
     Program PHONON v.6.1 (svn rev. 13369) starts on 12Feb2018 at 20:48: 4 

     This program is part of the open-source Quantum ESPRESSO suite
     for quantum simulation of materials; please cite
         "P. Giannozzi et al., J. Phys.:Condens. Matter 21 395502 (2009);
          URL http://www.quantum-espresso.org", 
     in publications or presentations arising from this work. More details at
     http://www.quantum-espresso.org/quote

     Parallel version (MPI), running on    64 processors
     K-points division:     npool     =       4
     R & G space division:  proc/nbgrp/npool/nimage =      16

     Reading data from directory:
     ./na.fcc.save

   Info: using nr1, nr2, nr3 values from input

   Info: using nr1, nr2, nr3 values from input

     IMPORTANT: XC functional enforced from input :
     Exchange-correlation      = SLA  PW   PBE  PBE ( 1  4  3  4 0 0)
     Any further DFT definition will be discarded
     Please, verify this is what you really want


     Parallelization info
     --------------------
     sticks:   dense  smooth     PW     G-vecs:    dense   smooth      PW
     Min          64      31     10                 1380      484      91
     Max          65      32     11                 1384      489      94
     Sum        1039     511    169                22123     7799    1471



     Dynamical matrices for ( 6, 6, 6)  uniform grid of q-points
     (  16q-points):
       N         xq(1)         xq(2)         xq(3) 
       1   0.000000000   0.000000000   0.000000000
       2  -0.166666667   0.166666667  -0.166666667
       3  -0.333333333   0.333333333  -0.333333333
       4   0.500000000  -0.500000000   0.500000000
       5   0.000000000   0.333333333   0.000000000
       6  -0.166666667   0.500000000  -0.166666667
       7   0.666666667  -0.333333333   0.666666667
       8   0.500000000  -0.166666667   0.500000000
       9   0.333333333   0.000000000   0.333333333
      10   0.000000000   0.666666667   0.000000000
      11   0.833333333  -0.166666667   0.833333333
      12   0.666666667  -0.000000000   0.666666667
      13   0.000000000  -1.000000000   0.000000000
      14   0.666666667  -0.333333333   1.000000000
      15   0.500000000  -0.166666667   0.833333333
      16  -0.333333333  -1.000000000   0.000000000

     Calculation of q =    0.0000000   0.0000000   0.0000000

                                                                                

     bravais-lattice index     =            2
     lattice parameter (alat)  =       9.7000  a.u.
     unit-cell volume          =     228.1682 (a.u.)^3
     number of atoms/cell      =            1
     number of atomic types    =            1
     kinetic-energy cut-off    =      40.0000  Ry
     charge density cut-off    =     320.0000  Ry
     convergence threshold     =      1.0E-16
     beta                      =       0.7000
     number of iterations used =            4
     Exchange-correlation      = SLA  PW   PBE  PBE ( 1  4  3  4 0 0)


     celldm(1)=    9.70000  celldm(2)=    0.00000  celldm(3)=    0.00000
     celldm(4)=    0.00000  celldm(5)=    0.00000  celldm(6)=    0.00000

     crystal axes: (cart. coord. in units of alat)
               a(1) = ( -0.5000  0.0000  0.5000 )  
               a(2) = (  0.0000  0.5000  0.5000 )  
               a(3) = ( -0.5000  0.5000  0.0000 )  

     reciprocal axes: (cart. coord. in units 2 pi/alat)
               b(1) = ( -1.0000 -1.0000  1.0000 )  
               b(2) = (  1.0000  1.0000  1.0000 )  
               b(3) = ( -1.0000  1.0000 -1.0000 )  


     Atoms inside the unit cell: 

     Cartesian axes

     site n.  atom      mass           positions (alat units)
        1     Na  22.9900   tau(    1) = (    0.00000    0.00000    0.00000  )

     Computing dynamical matrix for 
                    q = (   0.0000000   0.0000000   0.0000000 )

     49 Sym.Ops. (with q -> -q+G )


     G cutoff =  762.6648  (   1383 G-vectors)     FFT grid: ( 40, 40, 40)
     G cutoff =  381.3324  (    488 G-vectors)  smooth grid: ( 27, 27, 27)

     number of k points=   770  Marzari-Vanderbilt smearing, width (Ry)=  0.0200

     PseudoPot. # 1 for Na read from file:
     /home/s1333534/quantum_espresso/qe-6.1/pseudo/Na_pbe_v1.uspp.F.UPF
     MD5 check sum: 76a99c7e9422403d3e93cbc85ab7bccb
     Pseudo is Ultrasoft, Zval =  9.0
     Generated by new atomic code, or converted to UPF format
     Using radial grid of  819 points,  5 beta functions with: 
                l(1) =   0
                l(2) =   0
                l(3) =   1
                l(4) =   1
                l(5) =   2
     Q(r) pseudized with  8 coefficients,  rinner =    1.250   1.250   1.250
                                                       1.250   1.250

     Mode symmetry, O_h (m-3m)  point group:


     Atomic displacements:
     There are   1 irreducible representations

     Representation     1      3 modes -T_1u G_15  G_4-  To be done



     Alpha used in Ewald sum =   2.8000
     PHONON       :     7.42s CPU         7.94s WALL



     Representation #  1 modes #   1  2  3

     Self-consistent Calculation

     Pert. #  1: Fermi energy shift (Ry) =    -9.4781E-26     2.1943E-37
     Pert. #  2: Fermi energy shift (Ry) =    -1.7341E-25    -1.5673E-38
     Pert. #  3: Fermi energy shift (Ry) =    -1.0878E-25     2.0375E-37

      iter #   1 total cpu time :    17.4 secs   av.it.:   5.4
      thresh= 1.000E-02 alpha_mix =  0.700 |ddv_scf|^2 =  1.052E-06

     Pert. #  1: Fermi energy shift (Ry) =    -7.3240E-26     3.0612E-41
     Pert. #  2: Fermi energy shift (Ry) =    -9.9089E-26     4.3622E-40
     Pert. #  3: Fermi energy shift (Ry) =    -1.7233E-26     4.8979E-40

      iter #   2 total cpu time :    28.7 secs   av.it.:   8.4
      thresh= 1.026E-04 alpha_mix =  0.700 |ddv_scf|^2 =  1.980E-08

     Pert. #  1: Fermi energy shift (Ry) =     3.7798E-26    -1.5306E-41
     Pert. #  2: Fermi energy shift (Ry) =    -3.0982E-26    -2.1046E-41
     Pert. #  3: Fermi energy shift (Ry) =    -6.0921E-27     0.0000E+00

      iter #   3 total cpu time :    40.5 secs   av.it.:   8.6
      thresh= 1.407E-05 alpha_mix =  0.700 |ddv_scf|^2 =  3.643E-10

     Pert. #  1: Fermi energy shift (Ry) =     9.1550E-27     0.0000E+00
     Pert. #  2: Fermi energy shift (Ry) =     3.7697E-27     1.5306E-41
     Pert. #  3: Fermi energy shift (Ry) =     3.7697E-27    -7.4616E-41

      iter #   4 total cpu time :    51.6 secs   av.it.:   8.0
      thresh= 1.909E-06 alpha_mix =  0.700 |ddv_scf|^2 =  1.271E-12

     Pert. #  1: Fermi energy shift (Ry) =     3.4466E-26     1.7339E-42
     Pert. #  2: Fermi energy shift (Ry) =     5.6546E-27     2.3915E-43
     Pert. #  3: Fermi energy shift (Ry) =     1.0501E-26    -5.9789E-43

      iter #   5 total cpu time :    62.9 secs   av.it.:   8.5
      thresh= 1.127E-07 alpha_mix =  0.700 |ddv_scf|^2 =  2.883E-15

     Pert. #  1: Fermi energy shift (Ry) =    -8.8857E-27     4.7831E-43
     Pert. #  2: Fermi energy shift (Ry) =     1.9118E-26    -2.6307E-42
     Pert. #  3: Fermi energy shift (Ry) =    -7.6740E-27     4.3048E-42

      iter #   6 total cpu time :    74.2 secs   av.it.:   8.2
      thresh= 5.370E-09 alpha_mix =  0.700 |ddv_scf|^2 =  6.120E-17

     End of self-consistent calculation

     Convergence has been achieved 

     Number of q in the star =    1
     List of q in the star:
          1   0.000000000   0.000000000   0.000000000

     Diagonalizing the dynamical matrix

     q = (    0.000000000   0.000000000   0.000000000 ) 

 **************************************************************************
     freq (    1) =      -0.426976 [THz] =     -14.242383 [cm-1]
     freq (    2) =      -0.426976 [THz] =     -14.242383 [cm-1]
     freq (    3) =      -0.426976 [THz] =     -14.242383 [cm-1]
 **************************************************************************

     Mode symmetry, O_h (m-3m)  point group:

     freq (  1 -  3) =        -14.2  [cm-1]   --> T_1u G_15  G_4- I  

     Calculation of q =   -0.1666667   0.1666667  -0.1666667

   Info: using nr1, nr2, nr3 values from input

   Info: using nr1, nr2, nr3 values from input

     Parallelization info
     --------------------
     sticks:   dense  smooth     PW     G-vecs:    dense   smooth      PW
     Min          64      31     11                 1380      484     101
     Max          65      32     12                 1384      489     103
     Sum        1039     511    187                22123     7799    1639



     bravais-lattice index     =            2
     lattice parameter (alat)  =       9.7000  a.u.
     unit-cell volume          =     228.1682 (a.u.)^3
     number of atoms/cell      =            1
     number of atomic types    =            1
     number of electrons       =         9.00
     number of Kohn-Sham states=            9
     kinetic-energy cutoff     =      40.0000  Ry
     charge density cutoff     =     320.0000  Ry
     Exchange-correlation      = SLA  PW   PBE  PBE ( 1  4  3  4 0 0)

     celldm(1)=   9.700000  celldm(2)=   0.000000  celldm(3)=   0.000000
     celldm(4)=   0.000000  celldm(5)=   0.000000  celldm(6)=   0.000000

     crystal axes: (cart. coord. in units of alat)
               a(1) = (  -0.500000   0.000000   0.500000 )  
               a(2) = (   0.000000   0.500000   0.500000 )  
               a(3) = (  -0.500000   0.500000   0.000000 )  

     reciprocal axes: (cart. coord. in units 2 pi/alat)
               b(1) = ( -1.000000 -1.000000  1.000000 )  
               b(2) = (  1.000000  1.000000  1.000000 )  
               b(3) = ( -1.000000  1.000000 -1.000000 )  


     PseudoPot. # 1 for Na read from file:
     /home/s1333534/quantum_espresso/qe-6.1/pseudo/Na_pbe_v1.uspp.F.UPF
     MD5 check sum: 76a99c7e9422403d3e93cbc85ab7bccb
     Pseudo is Ultrasoft, Zval =  9.0
     Generated by new atomic code, or converted to UPF format
     Using radial grid of  819 points,  5 beta functions with: 
                l(1) =   0
                l(2) =   0
                l(3) =   1
                l(4) =   1
                l(5) =   2
     Q(r) pseudized with  8 coefficients,  rinner =    1.250   1.250   1.250
                                                       1.250   1.250

     atomic species   valence    mass     pseudopotential
        Na             9.00    22.99000     Na( 1.00)

     48 Sym. Ops., with inversion, found



   Cartesian axes

     site n.     atom                  positions (alat units)
         1           Na  tau(   1) = (   0.0000000   0.0000000   0.0000000  )

     number of k points= 11480  Marzari-Vanderbilt smearing, width (Ry)=  0.0200

     Number of k-points >= 100: set verbosity='high' to print them.

     Dense  grid:    22123 G-vectors     FFT dimensions: (  40,  40,  40)

     Smooth grid:     7799 G-vectors     FFT dimensions: (  27,  27,  27)

     Estimated max dynamical RAM per process >       0.76MB

     Estimated total allocated dynamical RAM >      48.61MB

     The potential is recalculated from file :
     ./_ph0/na.fcc.save/charge-density.dat

     Starting wfc are    5 atomic +    4 random wfc

     Band Structure Calculation
     Davidson diagonalization with overlap

     ethr =  1.11E-10,  avg # of iterations = 19.3

     total cpu time spent up to now is      177.5 secs

     End of band structure calculation

     Number of k-points >= 100: set verbosity='high' to print the bands.

     the Fermi energy is     2.0059 ev

     Writing output data file na.fcc.save

                                                                                

     bravais-lattice index     =            2
     lattice parameter (alat)  =       9.7000  a.u.
     unit-cell volume          =     228.1682 (a.u.)^3
     number of atoms/cell      =            1
     number of atomic types    =            1
     kinetic-energy cut-off    =      40.0000  Ry
     charge density cut-off    =     320.0000  Ry
     convergence threshold     =      1.0E-16
     beta                      =       0.7000
     number of iterations used =            4
     Exchange-correlation      = SLA  PW   PBE  PBE ( 1  4  3  4 0 0)


     celldm(1)=    9.70000  celldm(2)=    0.00000  celldm(3)=    0.00000
     celldm(4)=    0.00000  celldm(5)=    0.00000  celldm(6)=    0.00000

     crystal axes: (cart. coord. in units of alat)
               a(1) = ( -0.5000  0.0000  0.5000 )  
               a(2) = (  0.0000  0.5000  0.5000 )  
               a(3) = ( -0.5000  0.5000  0.0000 )  

     reciprocal axes: (cart. coord. in units 2 pi/alat)
               b(1) = ( -1.0000 -1.0000  1.0000 )  
               b(2) = (  1.0000  1.0000  1.0000 )  
               b(3) = ( -1.0000  1.0000 -1.0000 )  


     Atoms inside the unit cell: 

     Cartesian axes

     site n.  atom      mass           positions (alat units)
        1     Na  22.9900   tau(    1) = (    0.00000    0.00000    0.00000  )

     Computing dynamical matrix for 
                    q = (  -0.1666667   0.1666667  -0.1666667 )

      6 Sym.Ops. (no q -> -q+G )


     G cutoff =  762.6648  (   1383 G-vectors)     FFT grid: ( 40, 40, 40)
     G cutoff =  381.3324  (    488 G-vectors)  smooth grid: ( 27, 27, 27)

     number of k points= 11480  Marzari-Vanderbilt smearing, width (Ry)=  0.0200

     PseudoPot. # 1 for Na read from file:
     /home/s1333534/quantum_espresso/qe-6.1/pseudo/Na_pbe_v1.uspp.F.UPF
     MD5 check sum: 76a99c7e9422403d3e93cbc85ab7bccb
     Pseudo is Ultrasoft, Zval =  9.0
     Generated by new atomic code, or converted to UPF format
     Using radial grid of  819 points,  5 beta functions with: 
                l(1) =   0
                l(2) =   0
                l(3) =   1
                l(4) =   1
                l(5) =   2
     Q(r) pseudized with  8 coefficients,  rinner =    1.250   1.250   1.250
                                                       1.250   1.250

     Mode symmetry, C_3v (3m)   point group:


     Atomic displacements:
     There are   2 irreducible representations

     Representation     1      1 modes -A_1  L_1  To be done

     Representation     2      2 modes -E    L_3  To be done



     Alpha used in Ewald sum =   2.8000
     PHONON       :  4m38.05s CPU     4m54.93s WALL



     Representation #  1 mode #   1

     Self-consistent Calculation

      iter #   1 total cpu time :   317.2 secs   av.it.:   5.7
      thresh= 1.000E-02 alpha_mix =  0.700 |ddv_scf|^2 =  2.898E-02

      iter #   2 total cpu time :   338.0 secs   av.it.:   6.5
      thresh= 1.000E-02 alpha_mix =  0.700 |ddv_scf|^2 =  4.633E+00

      iter #   3 total cpu time :   359.0 secs   av.it.:   6.5
      thresh= 1.000E-02 alpha_mix =  0.700 |ddv_scf|^2 =  1.652E-07

      iter #   4 total cpu time :   386.0 secs   av.it.:   8.3
      thresh= 4.065E-05 alpha_mix =  0.700 |ddv_scf|^2 =  4.748E-08

      iter #   5 total cpu time :   410.6 secs   av.it.:   7.5
      thresh= 2.179E-05 alpha_mix =  0.700 |ddv_scf|^2 =  3.805E-09

      iter #   6 total cpu time :   433.8 secs   av.it.:   7.5
      thresh= 6.169E-06 alpha_mix =  0.700 |ddv_scf|^2 =  6.186E-10

      iter #   7 total cpu time :   455.4 secs   av.it.:   6.7
      thresh= 2.487E-06 alpha_mix =  0.700 |ddv_scf|^2 =  7.609E-09

      iter #   8 total cpu time :   475.2 secs   av.it.:   6.1
      thresh= 8.723E-06 alpha_mix =  0.700 |ddv_scf|^2 =  3.034E-11

      iter #   9 total cpu time :   497.9 secs   av.it.:   7.3
      thresh= 5.508E-07 alpha_mix =  0.700 |ddv_scf|^2 =  1.413E-12

      iter #  10 total cpu time :   520.8 secs   av.it.:   7.3
      thresh= 1.189E-07 alpha_mix =  0.700 |ddv_scf|^2 =  1.270E-13

      iter #  11 total cpu time :   543.3 secs   av.it.:   7.3
      thresh= 3.564E-08 alpha_mix =  0.700 |ddv_scf|^2 =  3.867E-16

      iter #  12 total cpu time :   567.3 secs   av.it.:   7.9
      thresh= 1.966E-09 alpha_mix =  0.700 |ddv_scf|^2 =  1.404E-16

      iter #  13 total cpu time :   591.5 secs   av.it.:   7.6
      thresh= 1.185E-09 alpha_mix =  0.700 |ddv_scf|^2 =  2.379E-15

      iter #  14 total cpu time :   607.0 secs   av.it.:   4.2
      thresh= 4.878E-09 alpha_mix =  0.700 |ddv_scf|^2 =  6.886E-18

     End of self-consistent calculation

     Convergence has been achieved 


     Representation #  2 modes #   2  3

     Self-consistent Calculation

      iter #   1 total cpu time :   650.6 secs   av.it.:   5.5
      thresh= 1.000E-02 alpha_mix =  0.700 |ddv_scf|^2 =  2.408E-06

      iter #   2 total cpu time :   701.6 secs   av.it.:   8.5
      thresh= 1.552E-04 alpha_mix =  0.700 |ddv_scf|^2 =  4.424E-08

      iter #   3 total cpu time :   755.6 secs   av.it.:   8.6
      thresh= 2.103E-05 alpha_mix =  0.700 |ddv_scf|^2 =  9.397E-10

      iter #   4 total cpu time :   806.6 secs   av.it.:   8.4
      thresh= 3.065E-06 alpha_mix =  0.700 |ddv_scf|^2 =  3.244E-12

      iter #   5 total cpu time :   858.6 secs   av.it.:   8.6
      thresh= 1.801E-07 alpha_mix =  0.700 |ddv_scf|^2 =  6.407E-15

      iter #   6 total cpu time :   911.5 secs   av.it.:   8.2
      thresh= 8.004E-09 alpha_mix =  0.700 |ddv_scf|^2 =  1.806E-16

      iter #   7 total cpu time :   963.5 secs   av.it.:   8.6
      thresh= 1.344E-09 alpha_mix =  0.700 |ddv_scf|^2 =  1.654E-19

     End of self-consistent calculation

     Convergence has been achieved 

     Number of q in the star =    8
     List of q in the star:
          1  -0.166666667   0.166666667  -0.166666667
          2   0.166666667   0.166666667   0.166666667
          3  -0.166666667  -0.166666667  -0.166666667
          4   0.166666667  -0.166666667   0.166666667
          5   0.166666667  -0.166666667  -0.166666667
          6   0.166666667   0.166666667  -0.166666667
          7  -0.166666667  -0.166666667   0.166666667
          8  -0.166666667   0.166666667   0.166666667

     Diagonalizing the dynamical matrix

     q = (   -0.166666667   0.166666667  -0.166666667 ) 

 **************************************************************************
     freq (    1) =       0.882497 [THz] =      29.436941 [cm-1]
     freq (    2) =       0.882497 [THz] =      29.436941 [cm-1]
     freq (    3) =       2.276836 [THz] =      75.947058 [cm-1]
 **************************************************************************

     Mode symmetry, C_3v (3m)   point group:

     freq (  1 -  2) =         29.4  [cm-1]   --> E    L_3           
     freq (  3 -  3) =         75.9  [cm-1]   --> A_1  L_1           

     Calculation of q =   -0.3333333   0.3333333  -0.3333333

   Info: using nr1, nr2, nr3 values from input

   Info: using nr1, nr2, nr3 values from input

     Parallelization info
     --------------------
     sticks:   dense  smooth     PW     G-vecs:    dense   smooth      PW
     Min          64      31     12                 1380      484     112
     Max          65      32     13                 1384      489     114
     Sum        1039     511    199                22123     7799    1807



     bravais-lattice index     =            2
     lattice parameter (alat)  =       9.7000  a.u.
     unit-cell volume          =     228.1682 (a.u.)^3
     number of atoms/cell      =            1
     number of atomic types    =            1
     number of electrons       =         9.00
     number of Kohn-Sham states=            9
     kinetic-energy cutoff     =      40.0000  Ry
     charge density cutoff     =     320.0000  Ry
     Exchange-correlation      = SLA  PW   PBE  PBE ( 1  4  3  4 0 0)

     celldm(1)=   9.700000  celldm(2)=   0.000000  celldm(3)=   0.000000
     celldm(4)=   0.000000  celldm(5)=   0.000000  celldm(6)=   0.000000

     crystal axes: (cart. coord. in units of alat)
               a(1) = (  -0.500000   0.000000   0.500000 )  
               a(2) = (   0.000000   0.500000   0.500000 )  
               a(3) = (  -0.500000   0.500000   0.000000 )  

     reciprocal axes: (cart. coord. in units 2 pi/alat)
               b(1) = ( -1.000000 -1.000000  1.000000 )  
               b(2) = (  1.000000  1.000000  1.000000 )  
               b(3) = ( -1.000000  1.000000 -1.000000 )  


     PseudoPot. # 1 for Na read from file:
     /home/s1333534/quantum_espresso/qe-6.1/pseudo/Na_pbe_v1.uspp.F.UPF
     MD5 check sum: 76a99c7e9422403d3e93cbc85ab7bccb
     Pseudo is Ultrasoft, Zval =  9.0
     Generated by new atomic code, or converted to UPF format
     Using radial grid of  819 points,  5 beta functions with: 
                l(1) =   0
                l(2) =   0
                l(3) =   1
                l(4) =   1
                l(5) =   2
     Q(r) pseudized with  8 coefficients,  rinner =    1.250   1.250   1.250
                                                       1.250   1.250

     atomic species   valence    mass     pseudopotential
        Na             9.00    22.99000     Na( 1.00)

     48 Sym. Ops., with inversion, found



   Cartesian axes

     site n.     atom                  positions (alat units)
         1           Na  tau(   1) = (   0.0000000   0.0000000   0.0000000  )

     number of k points= 11480  Marzari-Vanderbilt smearing, width (Ry)=  0.0200

     Number of k-points >= 100: set verbosity='high' to print them.

     Dense  grid:    22123 G-vectors     FFT dimensions: (  40,  40,  40)

     Smooth grid:     7799 G-vectors     FFT dimensions: (  27,  27,  27)

     Estimated max dynamical RAM per process >       0.76MB

     Estimated total allocated dynamical RAM >      48.61MB

     The potential is recalculated from file :
     ./_ph0/na.fcc.save/charge-density.dat

     Starting wfc are    5 atomic +    4 random wfc

     Band Structure Calculation
     Davidson diagonalization with overlap

     ethr =  1.11E-10,  avg # of iterations = 19.3

     total cpu time spent up to now is      391.0 secs

     End of band structure calculation

     Number of k-points >= 100: set verbosity='high' to print the bands.

     the Fermi energy is     2.0059 ev

     Writing output data file na.fcc.save

                                                                                

     bravais-lattice index     =            2
     lattice parameter (alat)  =       9.7000  a.u.
     unit-cell volume          =     228.1682 (a.u.)^3
     number of atoms/cell      =            1
     number of atomic types    =            1
     kinetic-energy cut-off    =      40.0000  Ry
     charge density cut-off    =     320.0000  Ry
     convergence threshold     =      1.0E-16
     beta                      =       0.7000
     number of iterations used =            4
     Exchange-correlation      = SLA  PW   PBE  PBE ( 1  4  3  4 0 0)


     celldm(1)=    9.70000  celldm(2)=    0.00000  celldm(3)=    0.00000
     celldm(4)=    0.00000  celldm(5)=    0.00000  celldm(6)=    0.00000

     crystal axes: (cart. coord. in units of alat)
               a(1) = ( -0.5000  0.0000  0.5000 )  
               a(2) = (  0.0000  0.5000  0.5000 )  
               a(3) = ( -0.5000  0.5000  0.0000 )  

     reciprocal axes: (cart. coord. in units 2 pi/alat)
               b(1) = ( -1.0000 -1.0000  1.0000 )  
               b(2) = (  1.0000  1.0000  1.0000 )  
               b(3) = ( -1.0000  1.0000 -1.0000 )  


     Atoms inside the unit cell: 

     Cartesian axes

     site n.  atom      mass           positions (alat units)
        1     Na  22.9900   tau(    1) = (    0.00000    0.00000    0.00000  )

     Computing dynamical matrix for 
                    q = (  -0.3333333   0.3333333  -0.3333333 )

      6 Sym.Ops. (no q -> -q+G )


     G cutoff =  762.6648  (   1383 G-vectors)     FFT grid: ( 40, 40, 40)
     G cutoff =  381.3324  (    488 G-vectors)  smooth grid: ( 27, 27, 27)

     number of k points= 11480  Marzari-Vanderbilt smearing, width (Ry)=  0.0200

     PseudoPot. # 1 for Na read from file:
     /home/s1333534/quantum_espresso/qe-6.1/pseudo/Na_pbe_v1.uspp.F.UPF
     MD5 check sum: 76a99c7e9422403d3e93cbc85ab7bccb
     Pseudo is Ultrasoft, Zval =  9.0
     Generated by new atomic code, or converted to UPF format
     Using radial grid of  819 points,  5 beta functions with: 
                l(1) =   0
                l(2) =   0
                l(3) =   1
                l(4) =   1
                l(5) =   2
     Q(r) pseudized with  8 coefficients,  rinner =    1.250   1.250   1.250
                                                       1.250   1.250

     Mode symmetry, C_3v (3m)   point group:


     Atomic displacements:
     There are   2 irreducible representations

     Representation     1      1 modes -A_1  L_1  To be done

     Representation     2      2 modes -E    L_3  To be done



     Alpha used in Ewald sum =   2.8000
     PHONON       : 18m12.85s CPU    19m48.14s WALL



     Representation #  1 mode #   1

     Self-consistent Calculation

      iter #   1 total cpu time :  1210.9 secs   av.it.:   5.7
      thresh= 1.000E-02 alpha_mix =  0.700 |ddv_scf|^2 =  4.894E-04

      iter #   2 total cpu time :  1233.3 secs   av.it.:   6.8
      thresh= 2.212E-03 alpha_mix =  0.700 |ddv_scf|^2 =  3.122E-03

      iter #   3 total cpu time :  1253.4 secs   av.it.:   5.8
      thresh= 5.587E-03 alpha_mix =  0.700 |ddv_scf|^2 =  5.449E-07

      iter #   4 total cpu time :  1278.8 secs   av.it.:   7.8
      thresh= 7.382E-05 alpha_mix =  0.700 |ddv_scf|^2 =  8.585E-09

      iter #   5 total cpu time :  1305.9 secs   av.it.:   8.4
      thresh= 9.266E-06 alpha_mix =  0.700 |ddv_scf|^2 =  3.586E-10

      iter #   6 total cpu time :  1331.1 secs   av.it.:   8.2
      thresh= 1.894E-06 alpha_mix =  0.700 |ddv_scf|^2 =  1.893E-11

      iter #   7 total cpu time :  1357.2 secs   av.it.:   7.8
      thresh= 4.350E-07 alpha_mix =  0.700 |ddv_scf|^2 =  5.749E-13

      iter #   8 total cpu time :  1382.5 secs   av.it.:   8.1
      thresh= 7.582E-08 alpha_mix =  0.700 |ddv_scf|^2 =  4.043E-14

      iter #   9 total cpu time :  1405.9 secs   av.it.:   7.2
      thresh= 2.011E-08 alpha_mix =  0.700 |ddv_scf|^2 =  1.712E-13

      iter #  10 total cpu time :  1427.4 secs   av.it.:   6.6
      thresh= 4.138E-08 alpha_mix =  0.700 |ddv_scf|^2 =  8.878E-16

      iter #  11 total cpu time :  1453.6 secs   av.it.:   7.7
      thresh= 2.980E-09 alpha_mix =  0.700 |ddv_scf|^2 =  3.541E-17

     End of self-consistent calculation

     Convergence has been achieved 


     Representation #  2 modes #   2  3

     Self-consistent Calculation

      iter #   1 total cpu time :  1498.6 secs   av.it.:   5.6
      thresh= 1.000E-02 alpha_mix =  0.700 |ddv_scf|^2 =  2.484E-06

      iter #   2 total cpu time :  1551.5 secs   av.it.:   8.5
      thresh= 1.576E-04 alpha_mix =  0.700 |ddv_scf|^2 =  4.384E-08

      iter #   3 total cpu time :  1604.6 secs   av.it.:   8.7
      thresh= 2.094E-05 alpha_mix =  0.700 |ddv_scf|^2 =  1.159E-09

      iter #   4 total cpu time :  1657.2 secs   av.it.:   8.4
      thresh= 3.405E-06 alpha_mix =  0.700 |ddv_scf|^2 =  3.945E-12

      iter #   5 total cpu time :  1712.4 secs   av.it.:   8.7
      thresh= 1.986E-07 alpha_mix =  0.700 |ddv_scf|^2 =  6.590E-15

      iter #   6 total cpu time :  1763.2 secs   av.it.:   8.0
      thresh= 8.118E-09 alpha_mix =  0.700 |ddv_scf|^2 =  2.522E-16

      iter #   7 total cpu time :  1816.1 secs   av.it.:   8.6
      thresh= 1.588E-09 alpha_mix =  0.700 |ddv_scf|^2 =  2.774E-19

     End of self-consistent calculation

     Convergence has been achieved 

     Number of q in the star =    8
     List of q in the star:
          1  -0.333333333   0.333333333  -0.333333333
          2   0.333333333   0.333333333   0.333333333
          3  -0.333333333  -0.333333333  -0.333333333
          4   0.333333333  -0.333333333   0.333333333
          5   0.333333333  -0.333333333  -0.333333333
          6   0.333333333   0.333333333  -0.333333333
          7  -0.333333333  -0.333333333   0.333333333
          8  -0.333333333   0.333333333   0.333333333

     Diagonalizing the dynamical matrix

     q = (   -0.333333333   0.333333333  -0.333333333 ) 

 **************************************************************************
     freq (    1) =       1.540386 [THz] =      51.381733 [cm-1]
     freq (    2) =       1.540386 [THz] =      51.381733 [cm-1]
     freq (    3) =       3.894311 [THz] =     129.900230 [cm-1]
 **************************************************************************

     Mode symmetry, C_3v (3m)   point group:

     freq (  1 -  2) =         51.4  [cm-1]   --> E    L_3           
     freq (  3 -  3) =        129.9  [cm-1]   --> A_1  L_1           

     Calculation of q =    0.5000000  -0.5000000   0.5000000

   Info: using nr1, nr2, nr3 values from input

   Info: using nr1, nr2, nr3 values from input

     Parallelization info
     --------------------
     sticks:   dense  smooth     PW     G-vecs:    dense   smooth      PW
     Min          64      31     12                 1380      484     117
     Max          65      32     13                 1384      489     120
     Sum        1039     511    199                22123     7799    1893



     bravais-lattice index     =            2
     lattice parameter (alat)  =       9.7000  a.u.
     unit-cell volume          =     228.1682 (a.u.)^3
     number of atoms/cell      =            1
     number of atomic types    =            1
     number of electrons       =         9.00
     number of Kohn-Sham states=            9
     kinetic-energy cutoff     =      40.0000  Ry
     charge density cutoff     =     320.0000  Ry
     Exchange-correlation      = SLA  PW   PBE  PBE ( 1  4  3  4 0 0)

     celldm(1)=   9.700000  celldm(2)=   0.000000  celldm(3)=   0.000000
     celldm(4)=   0.000000  celldm(5)=   0.000000  celldm(6)=   0.000000

     crystal axes: (cart. coord. in units of alat)
               a(1) = (  -0.500000   0.000000   0.500000 )  
               a(2) = (   0.000000   0.500000   0.500000 )  
               a(3) = (  -0.500000   0.500000   0.000000 )  

     reciprocal axes: (cart. coord. in units 2 pi/alat)
               b(1) = ( -1.000000 -1.000000  1.000000 )  
               b(2) = (  1.000000  1.000000  1.000000 )  
               b(3) = ( -1.000000  1.000000 -1.000000 )  


     PseudoPot. # 1 for Na read from file:
     /home/s1333534/quantum_espresso/qe-6.1/pseudo/Na_pbe_v1.uspp.F.UPF
     MD5 check sum: 76a99c7e9422403d3e93cbc85ab7bccb
     Pseudo is Ultrasoft, Zval =  9.0
     Generated by new atomic code, or converted to UPF format
     Using radial grid of  819 points,  5 beta functions with: 
                l(1) =   0
                l(2) =   0
                l(3) =   1
                l(4) =   1
                l(5) =   2
     Q(r) pseudized with  8 coefficients,  rinner =    1.250   1.250   1.250
                                                       1.250   1.250

     atomic species   valence    mass     pseudopotential
        Na             9.00    22.99000     Na( 1.00)

     48 Sym. Ops., with inversion, found



   Cartesian axes

     site n.     atom                  positions (alat units)
         1           Na  tau(   1) = (   0.0000000   0.0000000   0.0000000  )

     number of k points=  5740  Marzari-Vanderbilt smearing, width (Ry)=  0.0200

     Number of k-points >= 100: set verbosity='high' to print them.

     Dense  grid:    22123 G-vectors     FFT dimensions: (  40,  40,  40)

     Smooth grid:     7799 G-vectors     FFT dimensions: (  27,  27,  27)

     Estimated max dynamical RAM per process >       0.76MB

     Estimated total allocated dynamical RAM >      48.61MB

     The potential is recalculated from file :
     ./_ph0/na.fcc.save/charge-density.dat

     Starting wfc are    5 atomic +    4 random wfc

     Band Structure Calculation
     Davidson diagonalization with overlap

     ethr =  1.11E-10,  avg # of iterations = 19.3

     total cpu time spent up to now is      513.8 secs

     End of band structure calculation

     Number of k-points >= 100: set verbosity='high' to print the bands.

     the Fermi energy is     2.0059 ev

     Writing output data file na.fcc.save

                                                                                

     bravais-lattice index     =            2
     lattice parameter (alat)  =       9.7000  a.u.
     unit-cell volume          =     228.1682 (a.u.)^3
     number of atoms/cell      =            1
     number of atomic types    =            1
     kinetic-energy cut-off    =      40.0000  Ry
     charge density cut-off    =     320.0000  Ry
     convergence threshold     =      1.0E-16
     beta                      =       0.7000
     number of iterations used =            4
     Exchange-correlation      = SLA  PW   PBE  PBE ( 1  4  3  4 0 0)


     celldm(1)=    9.70000  celldm(2)=    0.00000  celldm(3)=    0.00000
     celldm(4)=    0.00000  celldm(5)=    0.00000  celldm(6)=    0.00000

     crystal axes: (cart. coord. in units of alat)
               a(1) = ( -0.5000  0.0000  0.5000 )  
               a(2) = (  0.0000  0.5000  0.5000 )  
               a(3) = ( -0.5000  0.5000  0.0000 )  

     reciprocal axes: (cart. coord. in units 2 pi/alat)
               b(1) = ( -1.0000 -1.0000  1.0000 )  
               b(2) = (  1.0000  1.0000  1.0000 )  
               b(3) = ( -1.0000  1.0000 -1.0000 )  


     Atoms inside the unit cell: 

     Cartesian axes

     site n.  atom      mass           positions (alat units)
        1     Na  22.9900   tau(    1) = (    0.00000    0.00000    0.00000  )

     Computing dynamical matrix for 
                    q = (   0.5000000  -0.5000000   0.5000000 )

     13 Sym.Ops. (with q -> -q+G )


     G cutoff =  762.6648  (   1383 G-vectors)     FFT grid: ( 40, 40, 40)
     G cutoff =  381.3324  (    488 G-vectors)  smooth grid: ( 27, 27, 27)

     number of k points=  5740  Marzari-Vanderbilt smearing, width (Ry)=  0.0200

     PseudoPot. # 1 for Na read from file:
     /home/s1333534/quantum_espresso/qe-6.1/pseudo/Na_pbe_v1.uspp.F.UPF
     MD5 check sum: 76a99c7e9422403d3e93cbc85ab7bccb
     Pseudo is Ultrasoft, Zval =  9.0
     Generated by new atomic code, or converted to UPF format
     Using radial grid of  819 points,  5 beta functions with: 
                l(1) =   0
                l(2) =   0
                l(3) =   1
                l(4) =   1
                l(5) =   2
     Q(r) pseudized with  8 coefficients,  rinner =    1.250   1.250   1.250
                                                       1.250   1.250

     Mode symmetry, D_3d (-3m)  point group:


     Atomic displacements:
     There are   2 irreducible representations

     Representation     1      1 modes -A_2u L_2'  To be done

     Representation     2      2 modes -E_u  L_3'  To be done



     Alpha used in Ewald sum =   2.8000
     PHONON       : 29m32.34s CPU    32m 7.62s WALL



     Representation #  1 mode #   1

     Self-consistent Calculation

      iter #   1 total cpu time :  1939.1 secs   av.it.:   5.7
      thresh= 1.000E-02 alpha_mix =  0.700 |ddv_scf|^2 =  9.847E-05

      iter #   2 total cpu time :  1951.0 secs   av.it.:   6.9
      thresh= 9.923E-04 alpha_mix =  0.700 |ddv_scf|^2 =  5.994E-05

      iter #   3 total cpu time :  1962.5 secs   av.it.:   6.7
      thresh= 7.742E-04 alpha_mix =  0.700 |ddv_scf|^2 =  7.261E-08

      iter #   4 total cpu time :  1975.4 secs   av.it.:   7.9
      thresh= 2.695E-05 alpha_mix =  0.700 |ddv_scf|^2 =  2.861E-10

      iter #   5 total cpu time :  1987.1 secs   av.it.:   7.0
      thresh= 1.692E-06 alpha_mix =  0.700 |ddv_scf|^2 =  6.138E-12

      iter #   6 total cpu time :  1998.4 secs   av.it.:   6.7
      thresh= 2.477E-07 alpha_mix =  0.700 |ddv_scf|^2 =  1.610E-14

      iter #   7 total cpu time :  2010.5 secs   av.it.:   7.5
      thresh= 1.269E-08 alpha_mix =  0.700 |ddv_scf|^2 =  3.042E-17

     End of self-consistent calculation

     Convergence has been achieved 


     Representation #  2 modes #   2  3

     Self-consistent Calculation

      iter #   1 total cpu time :  2032.6 secs   av.it.:   5.4
      thresh= 1.000E-02 alpha_mix =  0.700 |ddv_scf|^2 =  2.519E-06

      iter #   2 total cpu time :  2059.7 secs   av.it.:   8.4
      thresh= 1.587E-04 alpha_mix =  0.700 |ddv_scf|^2 =  4.369E-08

      iter #   3 total cpu time :  2086.1 secs   av.it.:   8.6
      thresh= 2.090E-05 alpha_mix =  0.700 |ddv_scf|^2 =  1.248E-09

      iter #   4 total cpu time :  2111.3 secs   av.it.:   7.9
      thresh= 3.533E-06 alpha_mix =  0.700 |ddv_scf|^2 =  4.275E-12

      iter #   5 total cpu time :  2137.9 secs   av.it.:   8.3
      thresh= 2.068E-07 alpha_mix =  0.700 |ddv_scf|^2 =  6.779E-15

      iter #   6 total cpu time :  2162.7 secs   av.it.:   7.7
      thresh= 8.233E-09 alpha_mix =  0.700 |ddv_scf|^2 =  2.806E-16

      iter #   7 total cpu time :  2189.1 secs   av.it.:   8.3
      thresh= 1.675E-09 alpha_mix =  0.700 |ddv_scf|^2 =  2.753E-19

     End of self-consistent calculation

     Convergence has been achieved 

     Number of q in the star =    4
     List of q in the star:
          1   0.500000000  -0.500000000   0.500000000
          2   0.500000000   0.500000000   0.500000000
          3  -0.500000000   0.500000000   0.500000000
          4   0.500000000   0.500000000  -0.500000000

     Diagonalizing the dynamical matrix

     q = (    0.500000000  -0.500000000   0.500000000 ) 

 **************************************************************************
     freq (    1) =       1.803962 [THz] =      60.173692 [cm-1]
     freq (    2) =       1.803962 [THz] =      60.173692 [cm-1]
     freq (    3) =       4.483168 [THz] =     149.542382 [cm-1]
 **************************************************************************

     Mode symmetry, D_3d (-3m)  point group:

     freq (  1 -  2) =         60.2  [cm-1]   --> E_u  L_3'          
     freq (  3 -  3) =        149.5  [cm-1]   --> A_2u L_2'          

     Calculation of q =    0.0000000   0.3333333   0.0000000

   Info: using nr1, nr2, nr3 values from input

   Info: using nr1, nr2, nr3 values from input

     Parallelization info
     --------------------
     sticks:   dense  smooth     PW     G-vecs:    dense   smooth      PW
     Min          64      31     11                 1380      484     101
     Max          65      32     12                 1384      489     103
     Sum        1039     511    187                22123     7799    1639



     bravais-lattice index     =            2
     lattice parameter (alat)  =       9.7000  a.u.
     unit-cell volume          =     228.1682 (a.u.)^3
     number of atoms/cell      =            1
     number of atomic types    =            1
     number of electrons       =         9.00
     number of Kohn-Sham states=            9
     kinetic-energy cutoff     =      40.0000  Ry
     charge density cutoff     =     320.0000  Ry
     Exchange-correlation      = SLA  PW   PBE  PBE ( 1  4  3  4 0 0)

     celldm(1)=   9.700000  celldm(2)=   0.000000  celldm(3)=   0.000000
     celldm(4)=   0.000000  celldm(5)=   0.000000  celldm(6)=   0.000000

     crystal axes: (cart. coord. in units of alat)
               a(1) = (  -0.500000   0.000000   0.500000 )  
               a(2) = (   0.000000   0.500000   0.500000 )  
               a(3) = (  -0.500000   0.500000   0.000000 )  

     reciprocal axes: (cart. coord. in units 2 pi/alat)
               b(1) = ( -1.000000 -1.000000  1.000000 )  
               b(2) = (  1.000000  1.000000  1.000000 )  
               b(3) = ( -1.000000  1.000000 -1.000000 )  


     PseudoPot. # 1 for Na read from file:
     /home/s1333534/quantum_espresso/qe-6.1/pseudo/Na_pbe_v1.uspp.F.UPF
     MD5 check sum: 76a99c7e9422403d3e93cbc85ab7bccb
     Pseudo is Ultrasoft, Zval =  9.0
     Generated by new atomic code, or converted to UPF format
     Using radial grid of  819 points,  5 beta functions with: 
                l(1) =   0
                l(2) =   0
                l(3) =   1
                l(4) =   1
                l(5) =   2
     Q(r) pseudized with  8 coefficients,  rinner =    1.250   1.250   1.250
                                                       1.250   1.250

     atomic species   valence    mass     pseudopotential
        Na             9.00    22.99000     Na( 1.00)

     48 Sym. Ops., with inversion, found



   Cartesian axes

     site n.     atom                  positions (alat units)
         1           Na  tau(   1) = (   0.0000000   0.0000000   0.0000000  )

     number of k points=  8400  Marzari-Vanderbilt smearing, width (Ry)=  0.0200

     Number of k-points >= 100: set verbosity='high' to print them.

     Dense  grid:    22123 G-vectors     FFT dimensions: (  40,  40,  40)

     Smooth grid:     7799 G-vectors     FFT dimensions: (  27,  27,  27)

     Estimated max dynamical RAM per process >       0.76MB

     Estimated total allocated dynamical RAM >      48.61MB

     The potential is recalculated from file :
     ./_ph0/na.fcc.save/charge-density.dat

     Starting wfc are    5 atomic +    4 random wfc

     Band Structure Calculation
     Davidson diagonalization with overlap

     ethr =  1.11E-10,  avg # of iterations = 19.2

     total cpu time spent up to now is      658.3 secs

     End of band structure calculation

     Number of k-points >= 100: set verbosity='high' to print the bands.

     the Fermi energy is     2.0059 ev

     Writing output data file na.fcc.save

                                                                                

     bravais-lattice index     =            2
     lattice parameter (alat)  =       9.7000  a.u.
     unit-cell volume          =     228.1682 (a.u.)^3
     number of atoms/cell      =            1
     number of atomic types    =            1
     kinetic-energy cut-off    =      40.0000  Ry
     charge density cut-off    =     320.0000  Ry
     convergence threshold     =      1.0E-16
     beta                      =       0.7000
     number of iterations used =            4
     Exchange-correlation      = SLA  PW   PBE  PBE ( 1  4  3  4 0 0)


     celldm(1)=    9.70000  celldm(2)=    0.00000  celldm(3)=    0.00000
     celldm(4)=    0.00000  celldm(5)=    0.00000  celldm(6)=    0.00000

     crystal axes: (cart. coord. in units of alat)
               a(1) = ( -0.5000  0.0000  0.5000 )  
               a(2) = (  0.0000  0.5000  0.5000 )  
               a(3) = ( -0.5000  0.5000  0.0000 )  

     reciprocal axes: (cart. coord. in units 2 pi/alat)
               b(1) = ( -1.0000 -1.0000  1.0000 )  
               b(2) = (  1.0000  1.0000  1.0000 )  
               b(3) = ( -1.0000  1.0000 -1.0000 )  


     Atoms inside the unit cell: 

     Cartesian axes

     site n.  atom      mass           positions (alat units)
        1     Na  22.9900   tau(    1) = (    0.00000    0.00000    0.00000  )

     Computing dynamical matrix for 
                    q = (   0.0000000   0.3333333   0.0000000 )

      8 Sym.Ops. (no q -> -q+G )


     G cutoff =  762.6648  (   1383 G-vectors)     FFT grid: ( 40, 40, 40)
     G cutoff =  381.3324  (    488 G-vectors)  smooth grid: ( 27, 27, 27)

     number of k points=  8400  Marzari-Vanderbilt smearing, width (Ry)=  0.0200

     PseudoPot. # 1 for Na read from file:
     /home/s1333534/quantum_espresso/qe-6.1/pseudo/Na_pbe_v1.uspp.F.UPF
     MD5 check sum: 76a99c7e9422403d3e93cbc85ab7bccb
     Pseudo is Ultrasoft, Zval =  9.0
     Generated by new atomic code, or converted to UPF format
     Using radial grid of  819 points,  5 beta functions with: 
                l(1) =   0
                l(2) =   0
                l(3) =   1
                l(4) =   1
                l(5) =   2
     Q(r) pseudized with  8 coefficients,  rinner =    1.250   1.250   1.250
                                                       1.250   1.250

     Mode symmetry, C_4v (4mm)  point group:


     Atomic displacements:
     There are   2 irreducible representations

     Representation     1      1 modes -A_1  G_1 D_1  To be done

     Representation     2      2 modes -E    G_5 D_5  To be done



     Alpha used in Ewald sum =   2.8000
     PHONON       : 36m 2.90s CPU    39m 8.51s WALL



     Representation #  1 mode #   1

     Self-consistent Calculation

      iter #   1 total cpu time :  2364.9 secs   av.it.:   5.7
      thresh= 1.000E-02 alpha_mix =  0.700 |ddv_scf|^2 =  1.239E-02

      iter #   2 total cpu time :  2380.1 secs   av.it.:   6.2
      thresh= 1.000E-02 alpha_mix =  0.700 |ddv_scf|^2 =  1.074E+00

      iter #   3 total cpu time :  2395.4 secs   av.it.:   6.2
      thresh= 1.000E-02 alpha_mix =  0.700 |ddv_scf|^2 =  1.708E-06

      iter #   4 total cpu time :  2414.0 secs   av.it.:   7.5
      thresh= 1.307E-04 alpha_mix =  0.700 |ddv_scf|^2 =  5.233E-08

      iter #   5 total cpu time :  2432.4 secs   av.it.:   7.6
      thresh= 2.288E-05 alpha_mix =  0.700 |ddv_scf|^2 =  1.534E-09

      iter #   6 total cpu time :  2449.6 secs   av.it.:   7.7
      thresh= 3.917E-06 alpha_mix =  0.700 |ddv_scf|^2 =  2.455E-11

      iter #   7 total cpu time :  2468.2 secs   av.it.:   8.1
      thresh= 4.955E-07 alpha_mix =  0.700 |ddv_scf|^2 =  9.577E-11

      iter #   8 total cpu time :  2484.5 secs   av.it.:   6.7
      thresh= 9.786E-07 alpha_mix =  0.700 |ddv_scf|^2 =  8.721E-11

      iter #   9 total cpu time :  2500.7 secs   av.it.:   6.5
      thresh= 9.339E-07 alpha_mix =  0.700 |ddv_scf|^2 =  7.076E-13

      iter #  10 total cpu time :  2517.5 secs   av.it.:   7.2
      thresh= 8.412E-08 alpha_mix =  0.700 |ddv_scf|^2 =  5.354E-14

      iter #  11 total cpu time :  2534.6 secs   av.it.:   7.5
      thresh= 2.314E-08 alpha_mix =  0.700 |ddv_scf|^2 =  2.620E-16

      iter #  12 total cpu time :  2552.5 secs   av.it.:   8.0
      thresh= 1.619E-09 alpha_mix =  0.700 |ddv_scf|^2 =  6.233E-17

     End of self-consistent calculation

     Convergence has been achieved 


     Representation #  2 modes #   2  3

     Self-consistent Calculation

      iter #   1 total cpu time :  2584.2 secs   av.it.:   5.5
      thresh= 1.000E-02 alpha_mix =  0.700 |ddv_scf|^2 =  2.542E-06

      iter #   2 total cpu time :  2621.8 secs   av.it.:   8.5
      thresh= 1.594E-04 alpha_mix =  0.700 |ddv_scf|^2 =  4.275E-08

      iter #   3 total cpu time :  2662.2 secs   av.it.:   8.6
      thresh= 2.068E-05 alpha_mix =  0.700 |ddv_scf|^2 =  1.454E-09

      iter #   4 total cpu time :  2699.5 secs   av.it.:   8.4
      thresh= 3.813E-06 alpha_mix =  0.700 |ddv_scf|^2 =  4.689E-12

      iter #   5 total cpu time :  2738.7 secs   av.it.:   8.6
      thresh= 2.165E-07 alpha_mix =  0.700 |ddv_scf|^2 =  5.712E-15

      iter #   6 total cpu time :  2774.2 secs   av.it.:   7.9
      thresh= 7.558E-09 alpha_mix =  0.700 |ddv_scf|^2 =  2.524E-16

      iter #   7 total cpu time :  2812.6 secs   av.it.:   8.5
      thresh= 1.589E-09 alpha_mix =  0.700 |ddv_scf|^2 =  1.436E-19

     End of self-consistent calculation

     Convergence has been achieved 

     Number of q in the star =    6
     List of q in the star:
          1   0.000000000   0.333333333   0.000000000
          2   0.333333333   0.000000000   0.000000000
          3   0.000000000   0.000000000   0.333333333
          4   0.000000000  -0.333333333   0.000000000
          5  -0.333333333   0.000000000   0.000000000
          6   0.000000000   0.000000000  -0.333333333

     Diagonalizing the dynamical matrix

     q = (    0.000000000   0.333333333   0.000000000 ) 

 **************************************************************************
     freq (    1) =       1.558498 [THz] =      51.985900 [cm-1]
     freq (    2) =       1.558498 [THz] =      51.985900 [cm-1]
     freq (    3) =       2.086872 [THz] =      69.610549 [cm-1]
 **************************************************************************

     Mode symmetry, C_4v (4mm)  point group:

     freq (  1 -  2) =         52.0  [cm-1]   --> E    G_5 D_5       
     freq (  3 -  3) =         69.6  [cm-1]   --> A_1  G_1 D_1       

     Calculation of q =   -0.1666667   0.5000000  -0.1666667

   Info: using nr1, nr2, nr3 values from input

   Info: using nr1, nr2, nr3 values from input

     Parallelization info
     --------------------
     sticks:   dense  smooth     PW     G-vecs:    dense   smooth      PW
     Min          64      31     12                 1380      484     112
     Max          65      32     13                 1384      489     114
     Sum        1039     511    199                22123     7799    1807



     bravais-lattice index     =            2
     lattice parameter (alat)  =       9.7000  a.u.
     unit-cell volume          =     228.1682 (a.u.)^3
     number of atoms/cell      =            1
     number of atomic types    =            1
     number of electrons       =         9.00
     number of Kohn-Sham states=            9
     kinetic-energy cutoff     =      40.0000  Ry
     charge density cutoff     =     320.0000  Ry
     Exchange-correlation      = SLA  PW   PBE  PBE ( 1  4  3  4 0 0)

     celldm(1)=   9.700000  celldm(2)=   0.000000  celldm(3)=   0.000000
     celldm(4)=   0.000000  celldm(5)=   0.000000  celldm(6)=   0.000000

     crystal axes: (cart. coord. in units of alat)
               a(1) = (  -0.500000   0.000000   0.500000 )  
               a(2) = (   0.000000   0.500000   0.500000 )  
               a(3) = (  -0.500000   0.500000   0.000000 )  

     reciprocal axes: (cart. coord. in units 2 pi/alat)
               b(1) = ( -1.000000 -1.000000  1.000000 )  
               b(2) = (  1.000000  1.000000  1.000000 )  
               b(3) = ( -1.000000  1.000000 -1.000000 )  


     PseudoPot. # 1 for Na read from file:
     /home/s1333534/quantum_espresso/qe-6.1/pseudo/Na_pbe_v1.uspp.F.UPF
     MD5 check sum: 76a99c7e9422403d3e93cbc85ab7bccb
     Pseudo is Ultrasoft, Zval =  9.0
     Generated by new atomic code, or converted to UPF format
     Using radial grid of  819 points,  5 beta functions with: 
                l(1) =   0
                l(2) =   0
                l(3) =   1
                l(4) =   1
                l(5) =   2
     Q(r) pseudized with  8 coefficients,  rinner =    1.250   1.250   1.250
                                                       1.250   1.250

     atomic species   valence    mass     pseudopotential
        Na             9.00    22.99000     Na( 1.00)

     48 Sym. Ops., with inversion, found



   Cartesian axes

     site n.     atom                  positions (alat units)
         1           Na  tau(   1) = (   0.0000000   0.0000000   0.0000000  )

     number of k points= 32800  Marzari-Vanderbilt smearing, width (Ry)=  0.0200

     Number of k-points >= 100: set verbosity='high' to print them.

     Dense  grid:    22123 G-vectors     FFT dimensions: (  40,  40,  40)

     Smooth grid:     7799 G-vectors     FFT dimensions: (  27,  27,  27)

     Estimated max dynamical RAM per process >       0.76MB

     Estimated total allocated dynamical RAM >      48.61MB

     The potential is recalculated from file :
     ./_ph0/na.fcc.save/charge-density.dat

     Starting wfc are    5 atomic +    4 random wfc

     Band Structure Calculation
     Davidson diagonalization with overlap

     ethr =  1.11E-10,  avg # of iterations = 19.2

     total cpu time spent up to now is     1190.4 secs

     End of band structure calculation

     Number of k-points >= 100: set verbosity='high' to print the bands.

     the Fermi energy is     2.0059 ev

     Writing output data file na.fcc.save

                                                                                

     bravais-lattice index     =            2
     lattice parameter (alat)  =       9.7000  a.u.
     unit-cell volume          =     228.1682 (a.u.)^3
     number of atoms/cell      =            1
     number of atomic types    =            1
     kinetic-energy cut-off    =      40.0000  Ry
     charge density cut-off    =     320.0000  Ry
     convergence threshold     =      1.0E-16
     beta                      =       0.7000
     number of iterations used =            4
     Exchange-correlation      = SLA  PW   PBE  PBE ( 1  4  3  4 0 0)


     celldm(1)=    9.70000  celldm(2)=    0.00000  celldm(3)=    0.00000
     celldm(4)=    0.00000  celldm(5)=    0.00000  celldm(6)=    0.00000

     crystal axes: (cart. coord. in units of alat)
               a(1) = ( -0.5000  0.0000  0.5000 )  
               a(2) = (  0.0000  0.5000  0.5000 )  
               a(3) = ( -0.5000  0.5000  0.0000 )  

     reciprocal axes: (cart. coord. in units 2 pi/alat)
               b(1) = ( -1.0000 -1.0000  1.0000 )  
               b(2) = (  1.0000  1.0000  1.0000 )  
               b(3) = ( -1.0000  1.0000 -1.0000 )  


     Atoms inside the unit cell: 

     Cartesian axes

     site n.  atom      mass           positions (alat units)
        1     Na  22.9900   tau(    1) = (    0.00000    0.00000    0.00000  )

     Computing dynamical matrix for 
                    q = (  -0.1666667   0.5000000  -0.1666667 )

      2 Sym.Ops. (no q -> -q+G )


     G cutoff =  762.6648  (   1383 G-vectors)     FFT grid: ( 40, 40, 40)
     G cutoff =  381.3324  (    488 G-vectors)  smooth grid: ( 27, 27, 27)

     number of k points= 32800  Marzari-Vanderbilt smearing, width (Ry)=  0.0200

     PseudoPot. # 1 for Na read from file:
     /home/s1333534/quantum_espresso/qe-6.1/pseudo/Na_pbe_v1.uspp.F.UPF
     MD5 check sum: 76a99c7e9422403d3e93cbc85ab7bccb
     Pseudo is Ultrasoft, Zval =  9.0
     Generated by new atomic code, or converted to UPF format
     Using radial grid of  819 points,  5 beta functions with: 
                l(1) =   0
                l(2) =   0
                l(3) =   1
                l(4) =   1
                l(5) =   2
     Q(r) pseudized with  8 coefficients,  rinner =    1.250   1.250   1.250
                                                       1.250   1.250

     Mode symmetry, C_s (m)     point group:


     Atomic displacements:
     There are   3 irreducible representations

     Representation     1      1 modes -A'  To be done

     Representation     2      1 modes -A'  To be done

     Representation     3      1 modes -A''  To be done



     Alpha used in Ewald sum =   2.8000
     PHONON       : 53m 3.87s CPU    57m25.77s WALL



     Representation #  1 mode #   1

     Self-consistent Calculation

      iter #   1 total cpu time :  3515.1 secs   av.it.:   5.8
      thresh= 1.000E-02 alpha_mix =  0.700 |ddv_scf|^2 =  5.458E-04

      iter #   2 total cpu time :  3584.7 secs   av.it.:   6.9
      thresh= 2.336E-03 alpha_mix =  0.700 |ddv_scf|^2 =  4.420E-03

      iter #   3 total cpu time :  3646.1 secs   av.it.:   5.7
      thresh= 6.648E-03 alpha_mix =  0.700 |ddv_scf|^2 =  5.950E-07

      iter #   4 total cpu time :  3721.1 secs   av.it.:   7.8
      thresh= 7.714E-05 alpha_mix =  0.700 |ddv_scf|^2 =  5.045E-09

      iter #   5 total cpu time :  3799.3 secs   av.it.:   8.3
      thresh= 7.103E-06 alpha_mix =  0.700 |ddv_scf|^2 =  5.329E-10

      iter #   6 total cpu time :  3877.2 secs   av.it.:   8.2
      thresh= 2.308E-06 alpha_mix =  0.700 |ddv_scf|^2 =  2.167E-11

      iter #   7 total cpu time :  3954.4 secs   av.it.:   8.1
      thresh= 4.655E-07 alpha_mix =  0.700 |ddv_scf|^2 =  2.873E-11

      iter #   8 total cpu time :  4022.0 secs   av.it.:   6.9
      thresh= 5.360E-07 alpha_mix =  0.700 |ddv_scf|^2 =  5.158E-12

      iter #   9 total cpu time :  4091.1 secs   av.it.:   7.1
      thresh= 2.271E-07 alpha_mix =  0.700 |ddv_scf|^2 =  1.417E-12

      iter #  10 total cpu time :  4158.8 secs   av.it.:   6.8
      thresh= 1.190E-07 alpha_mix =  0.700 |ddv_scf|^2 =  7.045E-15

      iter #  11 total cpu time :  4236.8 secs   av.it.:   8.4
      thresh= 8.393E-09 alpha_mix =  0.700 |ddv_scf|^2 =  4.163E-16

      iter #  12 total cpu time :  4311.3 secs   av.it.:   7.9
      thresh= 2.040E-09 alpha_mix =  0.700 |ddv_scf|^2 =  3.437E-17

     End of self-consistent calculation

     Convergence has been achieved 


     Representation #  2 mode #   2

     Self-consistent Calculation

      iter #   1 total cpu time :  4381.9 secs   av.it.:   5.7
      thresh= 1.000E-02 alpha_mix =  0.700 |ddv_scf|^2 =  9.243E-05

      iter #   2 total cpu time :  4455.3 secs   av.it.:   7.4
      thresh= 9.614E-04 alpha_mix =  0.700 |ddv_scf|^2 =  6.668E-04

      iter #   3 total cpu time :  4516.1 secs   av.it.:   5.7
      thresh= 2.582E-03 alpha_mix =  0.700 |ddv_scf|^2 =  2.094E-07

      iter #   4 total cpu time :  4594.6 secs   av.it.:   8.2
      thresh= 4.576E-05 alpha_mix =  0.700 |ddv_scf|^2 =  6.322E-09

      iter #   5 total cpu time :  4672.7 secs   av.it.:   8.2
      thresh= 7.951E-06 alpha_mix =  0.700 |ddv_scf|^2 =  1.936E-10

      iter #   6 total cpu time :  4751.7 secs   av.it.:   8.3
      thresh= 1.391E-06 alpha_mix =  0.700 |ddv_scf|^2 =  1.526E-11

      iter #   7 total cpu time :  4828.6 secs   av.it.:   8.2
      thresh= 3.906E-07 alpha_mix =  0.700 |ddv_scf|^2 =  1.648E-12

      iter #   8 total cpu time :  4901.1 secs   av.it.:   7.5
      thresh= 1.284E-07 alpha_mix =  0.700 |ddv_scf|^2 =  6.689E-12

      iter #   9 total cpu time :  4963.1 secs   av.it.:   6.1
      thresh= 2.586E-07 alpha_mix =  0.700 |ddv_scf|^2 =  1.330E-14

      iter #  10 total cpu time :  5036.8 secs   av.it.:   7.6
      thresh= 1.153E-08 alpha_mix =  0.700 |ddv_scf|^2 =  1.574E-16

      iter #  11 total cpu time :  5113.4 secs   av.it.:   7.9
      thresh= 1.255E-09 alpha_mix =  0.700 |ddv_scf|^2 =  2.400E-16

      iter #  12 total cpu time :  5181.9 secs   av.it.:   7.0
      thresh= 1.549E-09 alpha_mix =  0.700 |ddv_scf|^2 =  1.083E-17

     End of self-consistent calculation

     Convergence has been achieved 


     Representation #  3 mode #   3

     Self-consistent Calculation

      iter #   1 total cpu time :  5250.9 secs   av.it.:   5.5
      thresh= 1.000E-02 alpha_mix =  0.700 |ddv_scf|^2 =  1.075E-05

      iter #   2 total cpu time :  5325.4 secs   av.it.:   7.8
      thresh= 3.279E-04 alpha_mix =  0.700 |ddv_scf|^2 =  1.669E-07

      iter #   3 total cpu time :  5402.2 secs   av.it.:   8.0
      thresh= 4.085E-05 alpha_mix =  0.700 |ddv_scf|^2 =  8.057E-09

      iter #   4 total cpu time :  5474.9 secs   av.it.:   7.6
      thresh= 8.976E-06 alpha_mix =  0.700 |ddv_scf|^2 =  2.592E-11

      iter #   5 total cpu time :  5551.5 secs   av.it.:   8.0
      thresh= 5.091E-07 alpha_mix =  0.700 |ddv_scf|^2 =  2.361E-14

      iter #   6 total cpu time :  5619.7 secs   av.it.:   7.0
      thresh= 1.537E-08 alpha_mix =  0.700 |ddv_scf|^2 =  1.384E-15

      iter #   7 total cpu time :  5693.9 secs   av.it.:   7.7
      thresh= 3.720E-09 alpha_mix =  0.700 |ddv_scf|^2 =  1.369E-18

     End of self-consistent calculation

     Convergence has been achieved 

     Number of q in the star =   24
     List of q in the star:
          1  -0.166666667   0.500000000  -0.166666667
          2   0.166666667   0.500000000   0.166666667
          3  -0.166666667   0.500000000   0.166666667
          4   0.166666667   0.500000000  -0.166666667
          5   0.500000000  -0.166666667   0.166666667
          6   0.166666667  -0.166666667   0.500000000
          7  -0.166666667  -0.500000000  -0.166666667
          8   0.166666667  -0.500000000  -0.166666667
          9  -0.166666667  -0.500000000   0.166666667
         10   0.500000000  -0.166666667  -0.166666667
         11  -0.500000000  -0.166666667   0.166666667
         12   0.500000000   0.166666667   0.166666667
         13  -0.166666667   0.166666667  -0.500000000
         14  -0.166666667  -0.166666667   0.500000000
         15   0.166666667   0.166666667   0.500000000
         16   0.166666667  -0.166666667  -0.500000000
         17  -0.500000000   0.166666667  -0.166666667
         18  -0.500000000  -0.166666667  -0.166666667
         19   0.166666667  -0.500000000   0.166666667
         20   0.500000000   0.166666667  -0.166666667
         21   0.166666667   0.166666667  -0.500000000
         22  -0.166666667  -0.166666667  -0.500000000
         23  -0.500000000   0.166666667   0.166666667
         24  -0.166666667   0.166666667   0.500000000

     Diagonalizing the dynamical matrix

     q = (   -0.166666667   0.500000000  -0.166666667 ) 

 **************************************************************************
     freq (    1) =       2.034445 [THz] =      67.861767 [cm-1]
     freq (    2) =       2.109422 [THz] =      70.362755 [cm-1]
     freq (    3) =       3.514057 [THz] =     117.216308 [cm-1]
 **************************************************************************

     Mode symmetry, C_s (m)     point group:

     freq (  1 -  1) =         67.9  [cm-1]   --> A'                 
     freq (  2 -  2) =         70.4  [cm-1]   --> A''                
     freq (  3 -  3) =        117.2  [cm-1]   --> A'                 

     Calculation of q =    0.6666667  -0.3333333   0.6666667

   Info: using nr1, nr2, nr3 values from input

   Info: using nr1, nr2, nr3 values from input

     Parallelization info
     --------------------
     sticks:   dense  smooth     PW     G-vecs:    dense   smooth      PW
     Min          64      31     12                 1380      484     118
     Max          65      32     13                 1384      489     122
     Sum        1039     511    199                22123     7799    1917



     bravais-lattice index     =            2
     lattice parameter (alat)  =       9.7000  a.u.
     unit-cell volume          =     228.1682 (a.u.)^3
     number of atoms/cell      =            1
     number of atomic types    =            1
     number of electrons       =         9.00
     number of Kohn-Sham states=            9
     kinetic-energy cutoff     =      40.0000  Ry
     charge density cutoff     =     320.0000  Ry
     Exchange-correlation      = SLA  PW   PBE  PBE ( 1  4  3  4 0 0)

     celldm(1)=   9.700000  celldm(2)=   0.000000  celldm(3)=   0.000000
     celldm(4)=   0.000000  celldm(5)=   0.000000  celldm(6)=   0.000000

     crystal axes: (cart. coord. in units of alat)
               a(1) = (  -0.500000   0.000000   0.500000 )  
               a(2) = (   0.000000   0.500000   0.500000 )  
               a(3) = (  -0.500000   0.500000   0.000000 )  

     reciprocal axes: (cart. coord. in units 2 pi/alat)
               b(1) = ( -1.000000 -1.000000  1.000000 )  
               b(2) = (  1.000000  1.000000  1.000000 )  
               b(3) = ( -1.000000  1.000000 -1.000000 )  


     PseudoPot. # 1 for Na read from file:
     /home/s1333534/quantum_espresso/qe-6.1/pseudo/Na_pbe_v1.uspp.F.UPF
     MD5 check sum: 76a99c7e9422403d3e93cbc85ab7bccb
     Pseudo is Ultrasoft, Zval =  9.0
     Generated by new atomic code, or converted to UPF format
     Using radial grid of  819 points,  5 beta functions with: 
                l(1) =   0
                l(2) =   0
                l(3) =   1
                l(4) =   1
                l(5) =   2
     Q(r) pseudized with  8 coefficients,  rinner =    1.250   1.250   1.250
                                                       1.250   1.250

     atomic species   valence    mass     pseudopotential
        Na             9.00    22.99000     Na( 1.00)

     48 Sym. Ops., with inversion, found



   Cartesian axes

     site n.     atom                  positions (alat units)
         1           Na  tau(   1) = (   0.0000000   0.0000000   0.0000000  )

     number of k points= 32800  Marzari-Vanderbilt smearing, width (Ry)=  0.0200

     Number of k-points >= 100: set verbosity='high' to print them.

     Dense  grid:    22123 G-vectors     FFT dimensions: (  40,  40,  40)

     Smooth grid:     7799 G-vectors     FFT dimensions: (  27,  27,  27)

     Estimated max dynamical RAM per process >       0.76MB

     Estimated total allocated dynamical RAM >      48.61MB

     The potential is recalculated from file :
     ./_ph0/na.fcc.save/charge-density.dat

     Starting wfc are    5 atomic +    4 random wfc

     Band Structure Calculation
     Davidson diagonalization with overlap

     ethr =  1.11E-10,  avg # of iterations = 19.2

     total cpu time spent up to now is     1813.5 secs

     End of band structure calculation

     Number of k-points >= 100: set verbosity='high' to print the bands.

     the Fermi energy is     2.0059 ev

     Writing output data file na.fcc.save

                                                                                

     bravais-lattice index     =            2
     lattice parameter (alat)  =       9.7000  a.u.
     unit-cell volume          =     228.1682 (a.u.)^3
     number of atoms/cell      =            1
     number of atomic types    =            1
     kinetic-energy cut-off    =      40.0000  Ry
     charge density cut-off    =     320.0000  Ry
     convergence threshold     =      1.0E-16
     beta                      =       0.7000
     number of iterations used =            4
     Exchange-correlation      = SLA  PW   PBE  PBE ( 1  4  3  4 0 0)


     celldm(1)=    9.70000  celldm(2)=    0.00000  celldm(3)=    0.00000
     celldm(4)=    0.00000  celldm(5)=    0.00000  celldm(6)=    0.00000

     crystal axes: (cart. coord. in units of alat)
               a(1) = ( -0.5000  0.0000  0.5000 )  
               a(2) = (  0.0000  0.5000  0.5000 )  
               a(3) = ( -0.5000  0.5000  0.0000 )  

     reciprocal axes: (cart. coord. in units 2 pi/alat)
               b(1) = ( -1.0000 -1.0000  1.0000 )  
               b(2) = (  1.0000  1.0000  1.0000 )  
               b(3) = ( -1.0000  1.0000 -1.0000 )  


     Atoms inside the unit cell: 

     Cartesian axes

     site n.  atom      mass           positions (alat units)
        1     Na  22.9900   tau(    1) = (    0.00000    0.00000    0.00000  )

     Computing dynamical matrix for 
                    q = (   0.6666667  -0.3333333   0.6666667 )

      2 Sym.Ops. (no q -> -q+G )


     G cutoff =  762.6648  (   1383 G-vectors)     FFT grid: ( 40, 40, 40)
     G cutoff =  381.3324  (    488 G-vectors)  smooth grid: ( 27, 27, 27)

     number of k points= 32800  Marzari-Vanderbilt smearing, width (Ry)=  0.0200

     PseudoPot. # 1 for Na read from file:
     /home/s1333534/quantum_espresso/qe-6.1/pseudo/Na_pbe_v1.uspp.F.UPF
     MD5 check sum: 76a99c7e9422403d3e93cbc85ab7bccb
     Pseudo is Ultrasoft, Zval =  9.0
     Generated by new atomic code, or converted to UPF format
     Using radial grid of  819 points,  5 beta functions with: 
                l(1) =   0
                l(2) =   0
                l(3) =   1
                l(4) =   1
                l(5) =   2
     Q(r) pseudized with  8 coefficients,  rinner =    1.250   1.250   1.250
                                                       1.250   1.250

     Mode symmetry, C_s (m)     point group:


     Atomic displacements:
     There are   3 irreducible representations

     Representation     1      1 modes -A'  To be done

     Representation     2      1 modes -A'  To be done

     Representation     3      1 modes -A''  To be done



     Alpha used in Ewald sum =   2.8000
     PHONON       :     1h37m CPU        1h45m WALL



     Representation #  1 mode #   1

     Self-consistent Calculation

      iter #   1 total cpu time :  6414.2 secs   av.it.:   5.8
      thresh= 1.000E-02 alpha_mix =  0.700 |ddv_scf|^2 =  6.705E-05

      iter #   2 total cpu time :  6488.9 secs   av.it.:   7.5
      thresh= 8.189E-04 alpha_mix =  0.700 |ddv_scf|^2 =  4.798E-05

      iter #   3 total cpu time :  6560.5 secs   av.it.:   7.1
      thresh= 6.927E-04 alpha_mix =  0.700 |ddv_scf|^2 =  1.188E-07

      iter #   4 total cpu time :  6641.9 secs   av.it.:   8.3
      thresh= 3.446E-05 alpha_mix =  0.700 |ddv_scf|^2 =  9.130E-09

      iter #   5 total cpu time :  6720.3 secs   av.it.:   8.2
      thresh= 9.555E-06 alpha_mix =  0.700 |ddv_scf|^2 =  5.055E-10

      iter #   6 total cpu time :  6798.7 secs   av.it.:   8.0
      thresh= 2.248E-06 alpha_mix =  0.700 |ddv_scf|^2 =  6.822E-12

      iter #   7 total cpu time :  6878.4 secs   av.it.:   8.3
      thresh= 2.612E-07 alpha_mix =  0.700 |ddv_scf|^2 =  2.953E-13

      iter #   8 total cpu time :  6958.2 secs   av.it.:   8.4
      thresh= 5.434E-08 alpha_mix =  0.700 |ddv_scf|^2 =  2.487E-14

      iter #   9 total cpu time :  7039.0 secs   av.it.:   8.3
      thresh= 1.577E-08 alpha_mix =  0.700 |ddv_scf|^2 =  1.146E-15

      iter #  10 total cpu time :  7113.7 secs   av.it.:   7.5
      thresh= 3.385E-09 alpha_mix =  0.700 |ddv_scf|^2 =  8.476E-17

     End of self-consistent calculation

     Convergence has been achieved 


     Representation #  2 mode #   2

     Self-consistent Calculation

      iter #   1 total cpu time :  7185.9 secs   av.it.:   5.8
      thresh= 1.000E-02 alpha_mix =  0.700 |ddv_scf|^2 =  3.499E-05

      iter #   2 total cpu time :  7261.9 secs   av.it.:   7.8
      thresh= 5.915E-04 alpha_mix =  0.700 |ddv_scf|^2 =  1.486E-05

      iter #   3 total cpu time :  7334.8 secs   av.it.:   7.3
      thresh= 3.855E-04 alpha_mix =  0.700 |ddv_scf|^2 =  4.453E-07

      iter #   4 total cpu time :  7409.9 secs   av.it.:   7.6
      thresh= 6.673E-05 alpha_mix =  0.700 |ddv_scf|^2 =  1.467E-08

      iter #   5 total cpu time :  7488.3 secs   av.it.:   8.2
      thresh= 1.211E-05 alpha_mix =  0.700 |ddv_scf|^2 =  3.997E-10

      iter #   6 total cpu time :  7566.7 secs   av.it.:   8.1
      thresh= 1.999E-06 alpha_mix =  0.700 |ddv_scf|^2 =  1.571E-11

      iter #   7 total cpu time :  7646.9 secs   av.it.:   8.3
      thresh= 3.963E-07 alpha_mix =  0.700 |ddv_scf|^2 =  9.792E-13

      iter #   8 total cpu time :  7728.1 secs   av.it.:   8.4
      thresh= 9.895E-08 alpha_mix =  0.700 |ddv_scf|^2 =  2.924E-14

      iter #   9 total cpu time :  7807.9 secs   av.it.:   8.3
      thresh= 1.710E-08 alpha_mix =  0.700 |ddv_scf|^2 =  5.793E-15

      iter #  10 total cpu time :  7885.0 secs   av.it.:   7.7
      thresh= 7.611E-09 alpha_mix =  0.700 |ddv_scf|^2 =  1.333E-16

      iter #  11 total cpu time :  7964.2 secs   av.it.:   8.2
      thresh= 1.154E-09 alpha_mix =  0.700 |ddv_scf|^2 =  5.403E-18

     End of self-consistent calculation

     Convergence has been achieved 


     Representation #  3 mode #   3

     Self-consistent Calculation

      iter #   1 total cpu time :  8031.6 secs   av.it.:   5.5
      thresh= 1.000E-02 alpha_mix =  0.700 |ddv_scf|^2 =  1.073E-05

      iter #   2 total cpu time :  8107.9 secs   av.it.:   7.8
      thresh= 3.276E-04 alpha_mix =  0.700 |ddv_scf|^2 =  1.682E-07

      iter #   3 total cpu time :  8186.0 secs   av.it.:   8.0
      thresh= 4.102E-05 alpha_mix =  0.700 |ddv_scf|^2 =  7.877E-09

      iter #   4 total cpu time :  8260.4 secs   av.it.:   7.6
      thresh= 8.875E-06 alpha_mix =  0.700 |ddv_scf|^2 =  2.617E-11

      iter #   5 total cpu time :  8337.9 secs   av.it.:   8.0
      thresh= 5.116E-07 alpha_mix =  0.700 |ddv_scf|^2 =  2.547E-14

      iter #   6 total cpu time :  8405.9 secs   av.it.:   6.8
      thresh= 1.596E-08 alpha_mix =  0.700 |ddv_scf|^2 =  1.487E-15

      iter #   7 total cpu time :  8481.9 secs   av.it.:   7.7
      thresh= 3.857E-09 alpha_mix =  0.700 |ddv_scf|^2 =  1.621E-18

     End of self-consistent calculation

     Convergence has been achieved 

     Number of q in the star =   24
     List of q in the star:
          1   0.666666667  -0.333333333   0.666666667
          2  -0.666666667  -0.333333333  -0.666666667
          3   0.666666667  -0.333333333  -0.666666667
          4  -0.666666667  -0.333333333   0.666666667
          5  -0.333333333   0.666666667  -0.666666667
          6  -0.666666667   0.666666667  -0.333333333
          7   0.666666667   0.333333333   0.666666667
          8  -0.666666667   0.333333333   0.666666667
          9   0.666666667   0.333333333  -0.666666667
         10  -0.333333333   0.666666667   0.666666667
         11   0.333333333   0.666666667  -0.666666667
         12  -0.333333333  -0.666666667  -0.666666667
         13   0.666666667  -0.666666667   0.333333333
         14   0.666666667   0.666666667  -0.333333333
         15  -0.666666667  -0.666666667  -0.333333333
         16  -0.666666667   0.666666667   0.333333333
         17   0.333333333  -0.666666667   0.666666667
         18   0.333333333   0.666666667   0.666666667
         19  -0.666666667   0.333333333  -0.666666667
         20  -0.333333333  -0.666666667   0.666666667
         21  -0.666666667  -0.666666667   0.333333333
         22   0.666666667   0.666666667   0.333333333
         23   0.333333333  -0.666666667  -0.666666667
         24   0.666666667  -0.666666667  -0.333333333

     Diagonalizing the dynamical matrix

     q = (    0.666666667  -0.333333333   0.666666667 ) 

 **************************************************************************
     freq (    1) =       2.219988 [THz] =      74.050843 [cm-1]
     freq (    2) =       2.601930 [THz] =      86.791051 [cm-1]
     freq (    3) =       4.312986 [THz] =     143.865720 [cm-1]
 **************************************************************************

     Mode symmetry, C_s (m)     point group:

     freq (  1 -  1) =         74.1  [cm-1]   --> A''                
     freq (  2 -  2) =         86.8  [cm-1]   --> A'                 
     freq (  3 -  3) =        143.9  [cm-1]   --> A'                 

     Calculation of q =    0.5000000  -0.1666667   0.5000000

   Info: using nr1, nr2, nr3 values from input

   Info: using nr1, nr2, nr3 values from input

     Parallelization info
     --------------------
     sticks:   dense  smooth     PW     G-vecs:    dense   smooth      PW
     Min          64      31     12                 1380      484     113
     Max          65      32     13                 1384      489     116
     Sum        1039     511    199                22123     7799    1837



     bravais-lattice index     =            2
     lattice parameter (alat)  =       9.7000  a.u.
     unit-cell volume          =     228.1682 (a.u.)^3
     number of atoms/cell      =            1
     number of atomic types    =            1
     number of electrons       =         9.00
     number of Kohn-Sham states=            9
     kinetic-energy cutoff     =      40.0000  Ry
     charge density cutoff     =     320.0000  Ry
     Exchange-correlation      = SLA  PW   PBE  PBE ( 1  4  3  4 0 0)

     celldm(1)=   9.700000  celldm(2)=   0.000000  celldm(3)=   0.000000
     celldm(4)=   0.000000  celldm(5)=   0.000000  celldm(6)=   0.000000

     crystal axes: (cart. coord. in units of alat)
               a(1) = (  -0.500000   0.000000   0.500000 )  
               a(2) = (   0.000000   0.500000   0.500000 )  
               a(3) = (  -0.500000   0.500000   0.000000 )  

     reciprocal axes: (cart. coord. in units 2 pi/alat)
               b(1) = ( -1.000000 -1.000000  1.000000 )  
               b(2) = (  1.000000  1.000000  1.000000 )  
               b(3) = ( -1.000000  1.000000 -1.000000 )  


     PseudoPot. # 1 for Na read from file:
     /home/s1333534/quantum_espresso/qe-6.1/pseudo/Na_pbe_v1.uspp.F.UPF
     MD5 check sum: 76a99c7e9422403d3e93cbc85ab7bccb
     Pseudo is Ultrasoft, Zval =  9.0
     Generated by new atomic code, or converted to UPF format
     Using radial grid of  819 points,  5 beta functions with: 
                l(1) =   0
                l(2) =   0
                l(3) =   1
                l(4) =   1
                l(5) =   2
     Q(r) pseudized with  8 coefficients,  rinner =    1.250   1.250   1.250
                                                       1.250   1.250

     atomic species   valence    mass     pseudopotential
        Na             9.00    22.99000     Na( 1.00)

     48 Sym. Ops., with inversion, found



   Cartesian axes

     site n.     atom                  positions (alat units)
         1           Na  tau(   1) = (   0.0000000   0.0000000   0.0000000  )

     number of k points= 32800  Marzari-Vanderbilt smearing, width (Ry)=  0.0200

     Number of k-points >= 100: set verbosity='high' to print them.

     Dense  grid:    22123 G-vectors     FFT dimensions: (  40,  40,  40)

     Smooth grid:     7799 G-vectors     FFT dimensions: (  27,  27,  27)

     Estimated max dynamical RAM per process >       0.76MB

     Estimated total allocated dynamical RAM >      48.61MB

     The potential is recalculated from file :
     ./_ph0/na.fcc.save/charge-density.dat

     Starting wfc are    5 atomic +    4 random wfc

     Band Structure Calculation
     Davidson diagonalization with overlap

     ethr =  1.11E-10,  avg # of iterations = 19.2

     total cpu time spent up to now is     2439.7 secs

     End of band structure calculation

     Number of k-points >= 100: set verbosity='high' to print the bands.

     the Fermi energy is     2.0059 ev

     Writing output data file na.fcc.save

                                                                                

     bravais-lattice index     =            2
     lattice parameter (alat)  =       9.7000  a.u.
     unit-cell volume          =     228.1682 (a.u.)^3
     number of atoms/cell      =            1
     number of atomic types    =            1
     kinetic-energy cut-off    =      40.0000  Ry
     charge density cut-off    =     320.0000  Ry
     convergence threshold     =      1.0E-16
     beta                      =       0.7000
     number of iterations used =            4
     Exchange-correlation      = SLA  PW   PBE  PBE ( 1  4  3  4 0 0)


     celldm(1)=    9.70000  celldm(2)=    0.00000  celldm(3)=    0.00000
     celldm(4)=    0.00000  celldm(5)=    0.00000  celldm(6)=    0.00000

     crystal axes: (cart. coord. in units of alat)
               a(1) = ( -0.5000  0.0000  0.5000 )  
               a(2) = (  0.0000  0.5000  0.5000 )  
               a(3) = ( -0.5000  0.5000  0.0000 )  

     reciprocal axes: (cart. coord. in units 2 pi/alat)
               b(1) = ( -1.0000 -1.0000  1.0000 )  
               b(2) = (  1.0000  1.0000  1.0000 )  
               b(3) = ( -1.0000  1.0000 -1.0000 )  


     Atoms inside the unit cell: 

     Cartesian axes

     site n.  atom      mass           positions (alat units)
        1     Na  22.9900   tau(    1) = (    0.00000    0.00000    0.00000  )

     Computing dynamical matrix for 
                    q = (   0.5000000  -0.1666667   0.5000000 )

      2 Sym.Ops. (no q -> -q+G )


     G cutoff =  762.6648  (   1383 G-vectors)     FFT grid: ( 40, 40, 40)
     G cutoff =  381.3324  (    488 G-vectors)  smooth grid: ( 27, 27, 27)

     number of k points= 32800  Marzari-Vanderbilt smearing, width (Ry)=  0.0200

     PseudoPot. # 1 for Na read from file:
     /home/s1333534/quantum_espresso/qe-6.1/pseudo/Na_pbe_v1.uspp.F.UPF
     MD5 check sum: 76a99c7e9422403d3e93cbc85ab7bccb
     Pseudo is Ultrasoft, Zval =  9.0
     Generated by new atomic code, or converted to UPF format
     Using radial grid of  819 points,  5 beta functions with: 
                l(1) =   0
                l(2) =   0
                l(3) =   1
                l(4) =   1
                l(5) =   2
     Q(r) pseudized with  8 coefficients,  rinner =    1.250   1.250   1.250
                                                       1.250   1.250

     Mode symmetry, C_s (m)     point group:


     Atomic displacements:
     There are   3 irreducible representations

     Representation     1      1 modes -A'  To be done

     Representation     2      1 modes -A'  To be done

     Representation     3      1 modes -A''  To be done



     Alpha used in Ewald sum =   2.8000
     PHONON       :     2h20m CPU        2h32m WALL



     Representation #  1 mode #   1

     Self-consistent Calculation

      iter #   1 total cpu time :  9206.0 secs   av.it.:   5.8
      thresh= 1.000E-02 alpha_mix =  0.700 |ddv_scf|^2 =  5.265E-05

      iter #   2 total cpu time :  9281.0 secs   av.it.:   7.6
      thresh= 7.256E-04 alpha_mix =  0.700 |ddv_scf|^2 =  6.545E-05

      iter #   3 total cpu time :  9349.9 secs   av.it.:   6.8
[...]

      iter #   4 total cpu time : 22306.5 secs   av.it.:   8.3
      thresh= 1.808E-05 alpha_mix =  0.700 |ddv_scf|^2 =  1.077E-09

      iter #   5 total cpu time : 22380.6 secs   av.it.:   7.8
      thresh= 3.281E-06 alpha_mix =  0.700 |ddv_scf|^2 =  3.158E-11

      iter #   6 total cpu time : 22452.9 secs   av.it.:   7.5
      thresh= 5.619E-07 alpha_mix =  0.700 |ddv_scf|^2 =  5.567E-14

      iter #   7 total cpu time : 22527.8 secs   av.it.:   8.0
      thresh= 2.359E-08 alpha_mix =  0.700 |ddv_scf|^2 =  4.159E-15

      iter #   8 total cpu time : 22602.4 secs   av.it.:   7.9
      thresh= 6.449E-09 alpha_mix =  0.700 |ddv_scf|^2 =  1.291E-17

     End of self-consistent calculation

     Convergence has been achieved 

     Number of q in the star =   24
     List of q in the star:
          1   0.500000000  -0.166666667   0.833333333
          2   0.833333333   0.166666667   0.500000000
          3   0.500000000   0.166666667   0.833333333
          4  -0.833333333  -0.166666667   0.500000000
          5  -0.833333333  -0.166666667  -0.500000000
          6  -0.500000000  -0.166666667  -0.833333333
          7   0.833333333  -0.166666667   0.500000000
          8  -0.500000000  -0.166666667   0.833333333
          9  -0.833333333   0.166666667   0.500000000
         10   0.833333333   0.166666667  -0.500000000
         11   0.833333333  -0.166666667  -0.500000000
         12   0.500000000   0.166666667  -0.833333333
         13  -0.500000000   0.166666667   0.833333333
         14  -0.500000000   0.166666667  -0.833333333
         15  -0.833333333   0.166666667  -0.500000000
         16   0.833333333  -0.500000000   0.166666667
         17   0.833333333   0.500000000  -0.166666667
         18  -0.833333333  -0.500000000  -0.166666667
         19  -0.833333333   0.500000000   0.166666667
         20   0.166666667  -0.500000000   0.833333333
         21  -0.166666667   0.500000000   0.833333333
         22   0.166666667   0.500000000  -0.833333333
         23  -0.166666667  -0.500000000  -0.833333333
         24  -0.500000000   0.833333333   0.166666667

     Diagonalizing the dynamical matrix

     q = (    0.500000000  -0.166666667   0.833333333 ) 

 **************************************************************************
     freq (    1) =       2.594161 [THz] =      86.531904 [cm-1]
     freq (    2) =       3.518714 [THz] =     117.371680 [cm-1]
     freq (    3) =       4.126451 [THz] =     137.643589 [cm-1]
 **************************************************************************

     Mode symmetry, C_2  (2)    point group:

     freq (  1 -  1) =         86.5  [cm-1]   --> B                  
     freq (  2 -  2) =        117.4  [cm-1]   --> A                  
     freq (  3 -  3) =        137.6  [cm-1]   --> B                  

     Calculation of q =   -0.3333333  -1.0000000   0.0000000

   Info: using nr1, nr2, nr3 values from input

   Info: using nr1, nr2, nr3 values from input

     Parallelization info
     --------------------
     sticks:   dense  smooth     PW     G-vecs:    dense   smooth      PW
     Min          64      31     12                 1380      484     118
     Max          65      32     13                 1384      489     122
     Sum        1039     511    199                22123     7799    1917



     bravais-lattice index     =            2
     lattice parameter (alat)  =       9.7000  a.u.
     unit-cell volume          =     228.1682 (a.u.)^3
     number of atoms/cell      =            1
     number of atomic types    =            1
     number of electrons       =         9.00
     number of Kohn-Sham states=            9
     kinetic-energy cutoff     =      40.0000  Ry
     charge density cutoff     =     320.0000  Ry
     Exchange-correlation      = SLA  PW   PBE  PBE ( 1  4  3  4 0 0)

     celldm(1)=   9.700000  celldm(2)=   0.000000  celldm(3)=   0.000000
     celldm(4)=   0.000000  celldm(5)=   0.000000  celldm(6)=   0.000000

     crystal axes: (cart. coord. in units of alat)
               a(1) = (  -0.500000   0.000000   0.500000 )  
               a(2) = (   0.000000   0.500000   0.500000 )  
               a(3) = (  -0.500000   0.500000   0.000000 )  

     reciprocal axes: (cart. coord. in units 2 pi/alat)
               b(1) = ( -1.000000 -1.000000  1.000000 )  
               b(2) = (  1.000000  1.000000  1.000000 )  
               b(3) = ( -1.000000  1.000000 -1.000000 )  


     PseudoPot. # 1 for Na read from file:
     /home/s1333534/quantum_espresso/qe-6.1/pseudo/Na_pbe_v1.uspp.F.UPF
     MD5 check sum: 76a99c7e9422403d3e93cbc85ab7bccb
     Pseudo is Ultrasoft, Zval =  9.0
     Generated by new atomic code, or converted to UPF format
     Using radial grid of  819 points,  5 beta functions with: 
                l(1) =   0
                l(2) =   0
                l(3) =   1
                l(4) =   1
                l(5) =   2
     Q(r) pseudized with  8 coefficients,  rinner =    1.250   1.250   1.250
                                                       1.250   1.250

     atomic species   valence    mass     pseudopotential
        Na             9.00    22.99000     Na( 1.00)

     48 Sym. Ops., with inversion, found



   Cartesian axes

     site n.     atom                  positions (alat units)
         1           Na  tau(   1) = (   0.0000000   0.0000000   0.0000000  )

     number of k points= 16000  Marzari-Vanderbilt smearing, width (Ry)=  0.0200

     Number of k-points >= 100: set verbosity='high' to print them.

     Dense  grid:    22123 G-vectors     FFT dimensions: (  40,  40,  40)

     Smooth grid:     7799 G-vectors     FFT dimensions: (  27,  27,  27)

     Estimated max dynamical RAM per process >       0.76MB

     Estimated total allocated dynamical RAM >      48.61MB

     The potential is recalculated from file :
     ./_ph0/na.fcc.save/charge-density.dat

     Starting wfc are    5 atomic +    4 random wfc

     Band Structure Calculation
     Davidson diagonalization with overlap

     ethr =  1.11E-10,  avg # of iterations = 19.1

     total cpu time spent up to now is     5532.2 secs

     End of band structure calculation

     Number of k-points >= 100: set verbosity='high' to print the bands.

     the Fermi energy is     2.0059 ev

     Writing output data file na.fcc.save

                                                                                

     bravais-lattice index     =            2
     lattice parameter (alat)  =       9.7000  a.u.
     unit-cell volume          =     228.1682 (a.u.)^3
     number of atoms/cell      =            1
     number of atomic types    =            1
     kinetic-energy cut-off    =      40.0000  Ry
     charge density cut-off    =     320.0000  Ry
     convergence threshold     =      1.0E-16
     beta                      =       0.7000
     number of iterations used =            4
     Exchange-correlation      = SLA  PW   PBE  PBE ( 1  4  3  4 0 0)


     celldm(1)=    9.70000  celldm(2)=    0.00000  celldm(3)=    0.00000
     celldm(4)=    0.00000  celldm(5)=    0.00000  celldm(6)=    0.00000

     crystal axes: (cart. coord. in units of alat)
               a(1) = ( -0.5000  0.0000  0.5000 )  
               a(2) = (  0.0000  0.5000  0.5000 )  
               a(3) = ( -0.5000  0.5000  0.0000 )  

     reciprocal axes: (cart. coord. in units 2 pi/alat)
               b(1) = ( -1.0000 -1.0000  1.0000 )  
               b(2) = (  1.0000  1.0000  1.0000 )  
               b(3) = ( -1.0000  1.0000 -1.0000 )  


     Atoms inside the unit cell: 

     Cartesian axes

     site n.  atom      mass           positions (alat units)
        1     Na  22.9900   tau(    1) = (    0.00000    0.00000    0.00000  )

     Computing dynamical matrix for 
                    q = (  -0.3333333  -1.0000000   0.0000000 )

      4 Sym.Ops. (no q -> -q+G )


     G cutoff =  762.6648  (   1383 G-vectors)     FFT grid: ( 40, 40, 40)
     G cutoff =  381.3324  (    488 G-vectors)  smooth grid: ( 27, 27, 27)

     number of k points= 16000  Marzari-Vanderbilt smearing, width (Ry)=  0.0200

     PseudoPot. # 1 for Na read from file:
     /home/s1333534/quantum_espresso/qe-6.1/pseudo/Na_pbe_v1.uspp.F.UPF
     MD5 check sum: 76a99c7e9422403d3e93cbc85ab7bccb
     Pseudo is Ultrasoft, Zval =  9.0
     Generated by new atomic code, or converted to UPF format
     Using radial grid of  819 points,  5 beta functions with: 
                l(1) =   0
                l(2) =   0
                l(3) =   1
                l(4) =   1
                l(5) =   2
     Q(r) pseudized with  8 coefficients,  rinner =    1.250   1.250   1.250
                                                       1.250   1.250

     Mode symmetry, C_2v (mm2)  point group:


     Atomic displacements:
     There are   3 irreducible representations

     Representation     1      1 modes -A_1  D_1  S_1  To be done

     Representation     2      1 modes -B_1  D_3  S_3  To be done

     Representation     3      1 modes -B_2  D_4  S_4  To be done



     Alpha used in Ewald sum =   2.8000
     PHONON       :     5h52m CPU        6h22m WALL



     Representation #  1 mode #   1

     Self-consistent Calculation

      iter #   1 total cpu time : 22956.4 secs   av.it.:   5.6
      thresh= 1.000E-02 alpha_mix =  0.700 |ddv_scf|^2 =  1.592E-05

      iter #   2 total cpu time : 22994.5 secs   av.it.:   8.0
      thresh= 3.990E-04 alpha_mix =  0.700 |ddv_scf|^2 =  5.115E-07

      iter #   3 total cpu time : 23032.0 secs   av.it.:   7.8
      thresh= 7.152E-05 alpha_mix =  0.700 |ddv_scf|^2 =  1.750E-08

      iter #   4 total cpu time : 23070.5 secs   av.it.:   8.2
      thresh= 1.323E-05 alpha_mix =  0.700 |ddv_scf|^2 =  8.357E-10

      iter #   5 total cpu time : 23108.2 secs   av.it.:   8.1
      thresh= 2.891E-06 alpha_mix =  0.700 |ddv_scf|^2 =  4.461E-11

      iter #   6 total cpu time : 23146.2 secs   av.it.:   8.2
      thresh= 6.679E-07 alpha_mix =  0.700 |ddv_scf|^2 =  3.287E-12

      iter #   7 total cpu time : 23185.9 secs   av.it.:   8.2
      thresh= 1.813E-07 alpha_mix =  0.700 |ddv_scf|^2 =  4.342E-14

      iter #   8 total cpu time : 23223.3 secs   av.it.:   8.0
      thresh= 2.084E-08 alpha_mix =  0.700 |ddv_scf|^2 =  6.990E-16

      iter #   9 total cpu time : 23261.8 secs   av.it.:   8.2
      thresh= 2.644E-09 alpha_mix =  0.700 |ddv_scf|^2 =  3.211E-17

     End of self-consistent calculation

     Convergence has been achieved 


     Representation #  2 mode #   2

     Self-consistent Calculation

      iter #   1 total cpu time : 23296.0 secs   av.it.:   5.6
      thresh= 1.000E-02 alpha_mix =  0.700 |ddv_scf|^2 =  1.773E-05

      iter #   2 total cpu time : 23334.7 secs   av.it.:   7.9
      thresh= 4.211E-04 alpha_mix =  0.700 |ddv_scf|^2 =  3.742E-07

      iter #   3 total cpu time : 23371.7 secs   av.it.:   7.8
      thresh= 6.117E-05 alpha_mix =  0.700 |ddv_scf|^2 =  1.912E-08

      iter #   4 total cpu time : 23409.5 secs   av.it.:   8.0
      thresh= 1.383E-05 alpha_mix =  0.700 |ddv_scf|^2 =  2.029E-10

      iter #   5 total cpu time : 23444.3 secs   av.it.:   7.2
      thresh= 1.424E-06 alpha_mix =  0.700 |ddv_scf|^2 =  1.513E-13

      iter #   6 total cpu time : 23481.2 secs   av.it.:   7.8
      thresh= 3.890E-08 alpha_mix =  0.700 |ddv_scf|^2 =  4.928E-15

      iter #   7 total cpu time : 23518.1 secs   av.it.:   7.7
      thresh= 7.020E-09 alpha_mix =  0.700 |ddv_scf|^2 =  4.556E-17

     End of self-consistent calculation

     Convergence has been achieved 


     Representation #  3 mode #   3

     Self-consistent Calculation

      iter #   1 total cpu time : 23552.4 secs   av.it.:   5.6
      thresh= 1.000E-02 alpha_mix =  0.700 |ddv_scf|^2 =  3.423E-05

      iter #   2 total cpu time : 23588.8 secs   av.it.:   7.6
      thresh= 5.851E-04 alpha_mix =  0.700 |ddv_scf|^2 =  3.536E-06

      iter #   3 total cpu time : 23624.0 secs   av.it.:   7.3
      thresh= 1.880E-04 alpha_mix =  0.700 |ddv_scf|^2 =  3.645E-08

      iter #   4 total cpu time : 23662.2 secs   av.it.:   8.0
      thresh= 1.909E-05 alpha_mix =  0.700 |ddv_scf|^2 =  1.647E-10

      iter #   5 total cpu time : 23697.6 secs   av.it.:   7.1
      thresh= 1.283E-06 alpha_mix =  0.700 |ddv_scf|^2 =  1.811E-13

      iter #   6 total cpu time : 23734.0 secs   av.it.:   7.7
      thresh= 4.256E-08 alpha_mix =  0.700 |ddv_scf|^2 =  9.214E-15

      iter #   7 total cpu time : 23768.7 secs   av.it.:   7.3
      thresh= 9.599E-09 alpha_mix =  0.700 |ddv_scf|^2 =  1.950E-17

     End of self-consistent calculation

     Convergence has been achieved 

     Number of q in the star =   12
     List of q in the star:
          1  -0.333333333  -1.000000000   0.000000000
          2   0.000000000  -1.000000000  -0.333333333
          3   0.000000000  -1.000000000   0.333333333
          4   0.333333333  -1.000000000   0.000000000
          5  -1.000000000   0.000000000  -0.333333333
          6   1.000000000   0.000000000   0.333333333
          7   0.000000000   0.333333333   1.000000000
          8   0.000000000  -0.333333333  -1.000000000
          9  -1.000000000  -0.333333333   0.000000000
         10   1.000000000   0.333333333   0.000000000
         11  -0.333333333   0.000000000   1.000000000
         12   0.333333333   0.000000000   1.000000000

     Diagonalizing the dynamical matrix

     q = (   -0.333333333  -1.000000000   0.000000000 ) 

 **************************************************************************
     freq (    1) =       2.960171 [THz] =      98.740681 [cm-1]
     freq (    2) =       3.526912 [THz] =     117.645118 [cm-1]
     freq (    3) =       4.257322 [THz] =     142.008968 [cm-1]
 **************************************************************************

     Mode symmetry, C_2v (mm2)  point group:

     freq (  1 -  1) =         98.7  [cm-1]   --> A_1  D_1  S_1      
     freq (  2 -  2) =        117.6  [cm-1]   --> B_1  D_3  S_3      
     freq (  3 -  3) =        142.0  [cm-1]   --> B_2  D_4  S_4      

     init_run     :      3.34s CPU      3.51s WALL (      15 calls)
     electrons    :   4444.65s CPU   4708.49s WALL (      15 calls)

     Called by init_run:
     wfcinit      :      0.00s CPU      0.01s WALL (      15 calls)
     potinit      :      0.43s CPU      0.45s WALL (      15 calls)

     Called by electrons:
     c_bands      :   4443.42s CPU   4707.23s WALL (      15 calls)
     v_of_rho     :      0.17s CPU      0.17s WALL (      16 calls)
     newd         :      0.17s CPU      0.17s WALL (      16 calls)

     Called by c_bands:
     init_us_2    :     92.36s CPU    100.02s WALL ( 1264294 calls)
     cegterg      :   3462.33s CPU   3687.96s WALL (   96814 calls)

     Called by sum_band:

     Called by *egterg:
     h_psi        :  12860.88s CPU  13872.43s WALL (11661295 calls)
     s_psi        :    353.53s CPU    388.62s WALL (22651598 calls)
     g_psi        :     10.89s CPU     11.77s WALL ( 1485684 calls)
     cdiaghg      :    941.59s CPU   1001.46s WALL ( 1559110 calls)

     Called by h_psi:
     h_psi:pot    :  12773.88s CPU  13776.15s WALL (11661295 calls)
     h_psi:calbec :    729.31s CPU    781.51s WALL (11661295 calls)
     vloc_psi     :  11724.22s CPU  12648.97s WALL (11661295 calls)
     add_vuspsi   :    192.63s CPU    210.36s WALL (11661295 calls)

     General routines
     calbec       :   1355.37s CPU   1459.93s WALL (24706225 calls)
     fft          :      5.45s CPU      5.70s WALL (    6466 calls)
     ffts         :     19.31s CPU     22.02s WALL (  112704 calls)
     fftw         :  12986.41s CPU  14081.59s WALL (******** calls)
     interpolate  :      1.04s CPU      1.32s WALL (     886 calls)
     davcio       :    127.79s CPU    279.67s WALL ( 5131114 calls)

     Parallel routines
     fft_scatter  :   5895.30s CPU   6387.94s WALL (******** calls)

     PHONON       :     6h 5m CPU        6h36m WALL

     INITIALIZATION: 
     phq_setup    :      0.65s CPU      0.70s WALL (      16 calls)
     phq_init     :    231.71s CPU    245.55s WALL (      16 calls)

     phq_init     :    231.71s CPU    245.55s WALL (      16 calls)
     init_vloc    :      0.14s CPU      0.14s WALL (      16 calls)
     init_us_1    :      1.42s CPU      1.52s WALL (      16 calls)
     newd         :      0.17s CPU      0.17s WALL (      16 calls)
     dvanqq       :      0.63s CPU      0.64s WALL (      16 calls)
     drho         :    181.36s CPU    192.31s WALL (      16 calls)

     DYNAMICAL MATRIX:
     dynmat0      :     33.50s CPU     35.00s WALL (      16 calls)
     phqscf       :  16394.46s CPU  17934.96s WALL (      16 calls)
     dynmatrix    :      0.10s CPU      0.11s WALL (      16 calls)

     phqscf       :  16394.46s CPU  17934.96s WALL (      16 calls)
     solve_linter :  16341.58s CPU  17876.27s WALL (      40 calls)
     drhodv       :     52.64s CPU     56.12s WALL (      40 calls)

     dynmat0      :     33.50s CPU     35.00s WALL (      16 calls)
     dynmat_us    :     33.45s CPU     34.94s WALL (      16 calls)
     d2ionq       :      0.01s CPU      0.01s WALL (      16 calls)

     dynmat_us    :     33.45s CPU     34.94s WALL (      16 calls)
     addusdynmat  :      0.00s CPU      0.00s WALL (      16 calls)

     phqscf       :  16394.46s CPU  17934.96s WALL (      16 calls)
     solve_linter :  16341.58s CPU  17876.27s WALL (      40 calls)

     solve_linter :  16341.58s CPU  17876.27s WALL (      40 calls)
     dvqpsi_us    :    320.01s CPU    342.66s WALL (  110718 calls)
     ortho        :    211.64s CPU    225.94s WALL (  984932 calls)
     cgsolve      :  12922.17s CPU  14008.68s WALL (  984932 calls)
     incdrhoscf   :   1262.76s CPU   1433.23s WALL (  984932 calls)
     addusddens   :      4.84s CPU      4.90s WALL (     389 calls)
     vpsifft      :   1024.02s CPU   1111.31s WALL (  874214 calls)
     dv_of_drho   :      3.95s CPU      4.03s WALL (     403 calls)
     mix_pot      :      0.73s CPU      3.22s WALL (     349 calls)
     ef_shift     :      0.06s CPU      0.08s WALL (       7 calls)
     localdos     :      0.22s CPU      0.24s WALL (       1 calls)
     psymdvscf    :     25.72s CPU     26.43s WALL (     349 calls)
     newdq        :      4.69s CPU      4.77s WALL (     349 calls)
     adddvscf     :     55.08s CPU     59.05s WALL (  874214 calls)
     drhodvus     :      0.03s CPU      0.03s WALL (      40 calls)

     dvqpsi_us    :    320.01s CPU    342.66s WALL (  110718 calls)
     dvqpsi_us_on :     53.39s CPU     56.04s WALL (  110718 calls)

     cgsolve      :  12922.17s CPU  14008.68s WALL (  984932 calls)
     ch_psi       :  12219.71s CPU  13238.33s WALL (10005371 calls)

     ch_psi       :  12219.71s CPU  13238.33s WALL (10005371 calls)
     h_psi        :  12860.88s CPU  13872.43s WALL (11661295 calls)
     last         :   1250.01s CPU   1359.76s WALL (10005371 calls)

     h_psi        :  12860.88s CPU  13872.43s WALL (11661295 calls)
     add_vuspsi   :    192.63s CPU    210.36s WALL (11661295 calls)

     incdrhoscf   :   1262.76s CPU   1433.23s WALL (  984932 calls)
     addusdbec    :    101.83s CPU    108.33s WALL ( 1095650 calls)

     drhodvus     :      0.03s CPU      0.03s WALL (      40 calls)

      General routines
     calbec       :   1355.37s CPU   1459.93s WALL (24706225 calls)
     fft          :      5.45s CPU      5.70s WALL (    6466 calls)
     ffts         :     19.31s CPU     22.02s WALL (  112704 calls)
     fftw         :  12986.41s CPU  14081.59s WALL (******** calls)
     davcio       :    127.79s CPU    279.67s WALL ( 5131114 calls)
     write_rec    :      1.45s CPU      7.74s WALL (     389 calls)


     PHONON       :     6h 5m CPU        6h36m WALL


   This run was terminated on:   3:24:14  13Feb2018            

=------------------------------------------------------------------------------=
   JOB DONE.
=------------------------------------------------------------------------------=
