
     Program PHONON v.6.1 (svn rev. 13369) starts on 21Dec2017 at 11:50:19 

     This program is part of the open-source Quantum ESPRESSO suite
     for quantum simulation of materials; please cite
         "P. Giannozzi et al., J. Phys.:Condens. Matter 21 395502 (2009);
          URL http://www.quantum-espresso.org", 
     in publications or presentations arising from this work. More details at
     http://www.quantum-espresso.org/quote

     Parallel version (MPI), running on     4 processors
     R & G space division:  proc/nbgrp/npool/nimage =       4

     Reading data from directory:
     ./na.bcc.save

   Info: using nr1, nr2, nr3 values from input

   Info: using nr1, nr2, nr3 values from input

     IMPORTANT: XC functional enforced from input :
     Exchange-correlation      = SLA  PW   PBE  PBE ( 1  4  3  4 0 0)
     Any further DFT definition will be discarded
     Please, verify this is what you really want


     Parallelization info
     --------------------
     sticks:   dense  smooth     PW     G-vecs:    dense   smooth      PW
     Min         217     109     34                 4073     1443     263
     Max         218     110     35                 4074     1444     265
     Sum         871     437    137                16295     5775    1055



     Dynamical matrices for ( 8, 8, 8)  uniform grid of q-points
     (  29q-points):
       N         xq(1)         xq(2)         xq(3) 
       1   0.000000000   0.000000000   0.000000000
       2   0.000000000  -0.125000000   0.125000000
       3   0.000000000  -0.250000000   0.250000000
       4   0.000000000  -0.375000000   0.375000000
       5   0.000000000   0.500000000  -0.500000000
       6  -0.125000000  -0.125000000   0.250000000
       7  -0.125000000  -0.250000000   0.375000000
       8  -0.125000000   0.625000000  -0.500000000
       9  -0.250000000   0.750000000  -0.500000000
      10  -0.250000000   0.625000000  -0.375000000
      11   0.000000000   0.000000000   0.250000000
      12   0.000000000  -0.125000000   0.375000000
      13   0.000000000  -0.250000000   0.500000000
      14   0.000000000   0.625000000  -0.375000000
      15  -0.125000000  -0.125000000   0.500000000
      16  -0.125000000   0.750000000  -0.375000000
      17  -0.250000000   0.250000000   0.250000000
      18  -0.250000000   0.750000000  -0.250000000
      19   0.625000000  -0.625000000   0.250000000
      20   0.500000000  -0.500000000   0.250000000
      21   0.500000000  -0.625000000   0.375000000
      22   0.000000000   0.000000000   0.500000000
      23   0.000000000  -0.125000000   0.625000000
      24   0.000000000   0.750000000  -0.250000000
      25  -0.125000000   0.875000000  -0.250000000
      26   0.500000000  -0.500000000   0.500000000
      27   0.000000000   0.000000000   0.750000000
      28   0.000000000   0.875000000  -0.125000000
      29   0.000000000   0.000000000  -1.000000000

     Calculation of q =    0.0000000   0.0000000   0.0000000

                                                                                

     bravais-lattice index     =            3
     lattice parameter (alat)  =       6.9546  a.u.
     unit-cell volume          =     168.1818 (a.u.)^3
     number of atoms/cell      =            1
     number of atomic types    =            1
     kinetic-energy cut-off    =      40.0000  Ry
     charge density cut-off    =     320.0000  Ry
     convergence threshold     =      1.0E-12
     beta                      =       0.7000
     number of iterations used =            4
     Exchange-correlation      = SLA  PW   PBE  PBE ( 1  4  3  4 0 0)


     celldm(1)=    6.95456  celldm(2)=    0.00000  celldm(3)=    0.00000
     celldm(4)=    0.00000  celldm(5)=    0.00000  celldm(6)=    0.00000

     crystal axes: (cart. coord. in units of alat)
               a(1) = (  0.5000  0.5000  0.5000 )  
               a(2) = ( -0.5000  0.5000  0.5000 )  
               a(3) = ( -0.5000 -0.5000  0.5000 )  

     reciprocal axes: (cart. coord. in units 2 pi/alat)
               b(1) = (  1.0000  0.0000  1.0000 )  
               b(2) = ( -1.0000  1.0000  0.0000 )  
               b(3) = (  0.0000 -1.0000  1.0000 )  


     Atoms inside the unit cell: 

     Cartesian axes

     site n.  atom      mass           positions (alat units)
        1     Na  22.9900   tau(    1) = (    0.00000    0.00000    0.00000  )

     Computing dynamical matrix for 
                    q = (   0.0000000   0.0000000   0.0000000 )

     49 Sym.Ops. (with q -> -q+G )


     G cutoff =  392.0393  (   4074 G-vectors)     FFT grid: ( 36, 36, 36)
     G cutoff =  196.0197  (   1444 G-vectors)  smooth grid: ( 25, 25, 25)

     number of k points=   100  Marzari-Vanderbilt smearing, width (Ry)=  0.0200

     PseudoPot. # 1 for Na read from file:
     /home/s1333534/quantum_espresso/qe-6.1/pseudo/Na_pbe_v1.uspp.F.UPF
     MD5 check sum: 76a99c7e9422403d3e93cbc85ab7bccb
     Pseudo is Ultrasoft, Zval =  9.0
     Generated by new atomic code, or converted to UPF format
     Using radial grid of  819 points,  5 beta functions with: 
                l(1) =   0
                l(2) =   0
                l(3) =   1
                l(4) =   1
                l(5) =   2
     Q(r) pseudized with  8 coefficients,  rinner =    1.250   1.250   1.250
                                                       1.250   1.250

     Mode symmetry, O_h (m-3m)  point group:


     Atomic displacements:
     There are   1 irreducible representations

     Representation     1      3 modes -T_1u G_15  G_4-  To be done



     Alpha used in Ewald sum =   2.8000
     PHONON       :     0.92s CPU         0.97s WALL



     Representation #  1 modes #   1  2  3

     Self-consistent Calculation

     Pert. #  1: Fermi energy shift (Ry) =     1.3786E-25     3.4481E-37
     Pert. #  2: Fermi energy shift (Ry) =     6.2039E-25     0.0000E+00
     Pert. #  3: Fermi energy shift (Ry) =     1.7233E-25    -1.5673E-38

      iter #   1 total cpu time :     2.9 secs   av.it.:   5.4
      thresh= 1.000E-02 alpha_mix =  0.700 |ddv_scf|^2 =  2.559E-06

     Pert. #  1: Fermi energy shift (Ry) =     1.3442E-24     2.4489E-40
     Pert. #  2: Fermi energy shift (Ry) =     9.6504E-25     1.2245E-39
     Pert. #  3: Fermi energy shift (Ry) =    -6.8932E-26     0.0000E+00

      iter #   2 total cpu time :     5.0 secs   av.it.:   8.3
      thresh= 1.600E-04 alpha_mix =  0.700 |ddv_scf|^2 =  5.052E-08

     Pert. #  1: Fermi energy shift (Ry) =     8.2718E-25    -2.4489E-40
     Pert. #  2: Fermi energy shift (Ry) =     5.8592E-25    -6.1224E-40
     Pert. #  3: Fermi energy shift (Ry) =    -1.0340E-25    -4.2857E-40

      iter #   3 total cpu time :     7.2 secs   av.it.:   8.5
      thresh= 2.248E-05 alpha_mix =  0.700 |ddv_scf|^2 =  5.307E-10

     Pert. #  1: Fermi energy shift (Ry) =    -4.8252E-25    -1.9898E-40
     Pert. #  2: Fermi energy shift (Ry) =     2.0680E-25     1.7602E-40
     Pert. #  3: Fermi energy shift (Ry) =     3.4466E-26    -3.0612E-41

      iter #   4 total cpu time :     9.3 secs   av.it.:   8.0
      thresh= 2.304E-06 alpha_mix =  0.700 |ddv_scf|^2 =  1.896E-12

     Pert. #  1: Fermi energy shift (Ry) =    -6.8932E-26     1.0714E-40
     Pert. #  2: Fermi energy shift (Ry) =     5.1699E-25     3.2142E-40
     Pert. #  3: Fermi energy shift (Ry) =    -1.3786E-25    -6.1224E-41

      iter #   5 total cpu time :    11.4 secs   av.it.:   8.2
      thresh= 1.377E-07 alpha_mix =  0.700 |ddv_scf|^2 =  8.281E-15

     End of self-consistent calculation

     Convergence has been achieved 

     Number of q in the star =    1
     List of q in the star:
          1   0.000000000   0.000000000   0.000000000

     Diagonalizing the dynamical matrix

     q = (    0.000000000   0.000000000   0.000000000 ) 

 **************************************************************************
     freq (    1) =       0.123873 [THz] =       4.131966 [cm-1]
     freq (    2) =       0.123873 [THz] =       4.131966 [cm-1]
     freq (    3) =       0.123873 [THz] =       4.131966 [cm-1]
 **************************************************************************

     Mode symmetry, O_h (m-3m)  point group:

     freq (  1 -  3) =          4.1  [cm-1]   --> T_1u G_15  G_4- I  

     Calculation of q =    0.0000000  -0.1250000   0.1250000

   Info: using nr1, nr2, nr3 values from input

   Info: using nr1, nr2, nr3 values from input

     Parallelization info
     --------------------
     sticks:   dense  smooth     PW     G-vecs:    dense   smooth      PW
     Min         217     109     37                 4073     1443     289
     Max         219     110     38                 4074     1444     290
     Sum         871     437    151                16295     5775    1157



     bravais-lattice index     =            3
     lattice parameter (alat)  =       6.9546  a.u.
     unit-cell volume          =     168.1818 (a.u.)^3
     number of atoms/cell      =            1
     number of atomic types    =            1
     number of electrons       =         9.00
     number of Kohn-Sham states=            9
     kinetic-energy cutoff     =      40.0000  Ry
     charge density cutoff     =     320.0000  Ry
     Exchange-correlation      = SLA  PW   PBE  PBE ( 1  4  3  4 0 0)

     celldm(1)=   6.954561  celldm(2)=   0.000000  celldm(3)=   0.000000
     celldm(4)=   0.000000  celldm(5)=   0.000000  celldm(6)=   0.000000

     crystal axes: (cart. coord. in units of alat)
               a(1) = (   0.500000   0.500000   0.500000 )  
               a(2) = (  -0.500000   0.500000   0.500000 )  
               a(3) = (  -0.500000  -0.500000   0.500000 )  

     reciprocal axes: (cart. coord. in units 2 pi/alat)
               b(1) = (  1.000000  0.000000  1.000000 )  
               b(2) = ( -1.000000  1.000000  0.000000 )  
               b(3) = (  0.000000 -1.000000  1.000000 )  


     PseudoPot. # 1 for Na read from file:
     /home/s1333534/quantum_espresso/qe-6.1/pseudo/Na_pbe_v1.uspp.F.UPF
     MD5 check sum: 76a99c7e9422403d3e93cbc85ab7bccb
     Pseudo is Ultrasoft, Zval =  9.0
     Generated by new atomic code, or converted to UPF format
     Using radial grid of  819 points,  5 beta functions with: 
                l(1) =   0
                l(2) =   0
                l(3) =   1
                l(4) =   1
                l(5) =   2
     Q(r) pseudized with  8 coefficients,  rinner =    1.250   1.250   1.250
                                                       1.250   1.250

     atomic species   valence    mass     pseudopotential
        Na             9.00    22.99000     Na( 1.00)

     48 Sym. Ops., with inversion, found



   Cartesian axes

     site n.     atom                  positions (alat units)
         1           Na  tau(   1) = (   0.0000000   0.0000000   0.0000000  )

     number of k points=  1568  Marzari-Vanderbilt smearing, width (Ry)=  0.0200

     Number of k-points >= 100: set verbosity='high' to print them.

     Dense  grid:    16295 G-vectors     FFT dimensions: (  36,  36,  36)

     Smooth grid:     5775 G-vectors     FFT dimensions: (  25,  25,  25)

     Estimated max dynamical RAM per process >       1.56MB

     Estimated total allocated dynamical RAM >       6.26MB

     The potential is recalculated from file :
     ./_ph0/na.bcc.save/charge-density.dat

     Starting wfc are    5 atomic +    4 random wfc

     Band Structure Calculation
     Davidson diagonalization with overlap

     ethr =  1.11E-10,  avg # of iterations = 18.4

     total cpu time spent up to now is       29.2 secs

     End of band structure calculation

     Number of k-points >= 100: set verbosity='high' to print the bands.

     the Fermi energy is     3.6857 ev

     Writing output data file na.bcc.save

                                                                                

     bravais-lattice index     =            3
     lattice parameter (alat)  =       6.9546  a.u.
     unit-cell volume          =     168.1818 (a.u.)^3
     number of atoms/cell      =            1
     number of atomic types    =            1
     kinetic-energy cut-off    =      40.0000  Ry
     charge density cut-off    =     320.0000  Ry
     convergence threshold     =      1.0E-12
     beta                      =       0.7000
     number of iterations used =            4
     Exchange-correlation      = SLA  PW   PBE  PBE ( 1  4  3  4 0 0)


     celldm(1)=    6.95456  celldm(2)=    0.00000  celldm(3)=    0.00000
     celldm(4)=    0.00000  celldm(5)=    0.00000  celldm(6)=    0.00000

     crystal axes: (cart. coord. in units of alat)
               a(1) = (  0.5000  0.5000  0.5000 )  
               a(2) = ( -0.5000  0.5000  0.5000 )  
               a(3) = ( -0.5000 -0.5000  0.5000 )  

     reciprocal axes: (cart. coord. in units 2 pi/alat)
               b(1) = (  1.0000  0.0000  1.0000 )  
               b(2) = ( -1.0000  1.0000  0.0000 )  
               b(3) = (  0.0000 -1.0000  1.0000 )  


     Atoms inside the unit cell: 

     Cartesian axes

     site n.  atom      mass           positions (alat units)
        1     Na  22.9900   tau(    1) = (    0.00000    0.00000    0.00000  )

     Computing dynamical matrix for 
                    q = (   0.0000000  -0.1250000   0.1250000 )

      4 Sym.Ops. (no q -> -q+G )


     G cutoff =  392.0393  (   4074 G-vectors)     FFT grid: ( 36, 36, 36)
     G cutoff =  196.0197  (   1444 G-vectors)  smooth grid: ( 25, 25, 25)

     number of k points=  1568  Marzari-Vanderbilt smearing, width (Ry)=  0.0200

     PseudoPot. # 1 for Na read from file:
     /home/s1333534/quantum_espresso/qe-6.1/pseudo/Na_pbe_v1.uspp.F.UPF
     MD5 check sum: 76a99c7e9422403d3e93cbc85ab7bccb
     Pseudo is Ultrasoft, Zval =  9.0
     Generated by new atomic code, or converted to UPF format
     Using radial grid of  819 points,  5 beta functions with: 
                l(1) =   0
                l(2) =   0
                l(3) =   1
                l(4) =   1
                l(5) =   2
     Q(r) pseudized with  8 coefficients,  rinner =    1.250   1.250   1.250
                                                       1.250   1.250

     Mode symmetry, C_2v (mm2)  point group:


     Atomic displacements:
     There are   3 irreducible representations

     Representation     1      1 modes -A_1  D_1  S_1  To be done

     Representation     2      1 modes -B_1  D_3  S_3  To be done

     Representation     3      1 modes -B_2  D_4  S_4  To be done



     Alpha used in Ewald sum =   2.8000
     PHONON       :    41.68s CPU        44.24s WALL



     Representation #  1 mode #   1

     Self-consistent Calculation

      iter #   1 total cpu time :    48.9 secs   av.it.:   5.7
      thresh= 1.000E-02 alpha_mix =  0.700 |ddv_scf|^2 =  3.279E-01

      iter #   2 total cpu time :    53.8 secs   av.it.:   7.1
      thresh= 1.000E-02 alpha_mix =  0.700 |ddv_scf|^2 =  1.256E+02

      iter #   3 total cpu time :    58.6 secs   av.it.:   7.1
      thresh= 1.000E-02 alpha_mix =  0.700 |ddv_scf|^2 =  2.436E-04

      iter #   4 total cpu time :    62.5 secs   av.it.:   5.3
      thresh= 1.561E-03 alpha_mix =  0.700 |ddv_scf|^2 =  5.347E-07

      iter #   5 total cpu time :    67.2 secs   av.it.:   7.0
      thresh= 7.312E-05 alpha_mix =  0.700 |ddv_scf|^2 =  7.448E-09

      iter #   6 total cpu time :    72.0 secs   av.it.:   7.1
      thresh= 8.630E-06 alpha_mix =  0.700 |ddv_scf|^2 =  3.530E-08

      iter #   7 total cpu time :    75.2 secs   av.it.:   3.9
      thresh= 1.879E-05 alpha_mix =  0.700 |ddv_scf|^2 =  3.724E-09

      iter #   8 total cpu time :    79.8 secs   av.it.:   6.3
      thresh= 6.102E-06 alpha_mix =  0.700 |ddv_scf|^2 =  2.609E-11

      iter #   9 total cpu time :    84.8 secs   av.it.:   7.0
      thresh= 5.107E-07 alpha_mix =  0.700 |ddv_scf|^2 =  5.685E-14

     End of self-consistent calculation

     Convergence has been achieved 


     Representation #  2 mode #   2

     Self-consistent Calculation

      iter #   1 total cpu time :    89.5 secs   av.it.:   5.4
      thresh= 1.000E-02 alpha_mix =  0.700 |ddv_scf|^2 =  2.319E-05

      iter #   2 total cpu time :    94.4 secs   av.it.:   7.3
      thresh= 4.815E-04 alpha_mix =  0.700 |ddv_scf|^2 =  4.514E-07

      iter #   3 total cpu time :    99.5 secs   av.it.:   7.5
      thresh= 6.718E-05 alpha_mix =  0.700 |ddv_scf|^2 =  5.092E-09

      iter #   4 total cpu time :   104.3 secs   av.it.:   7.2
      thresh= 7.136E-06 alpha_mix =  0.700 |ddv_scf|^2 =  1.794E-11

      iter #   5 total cpu time :   109.3 secs   av.it.:   7.3
      thresh= 4.235E-07 alpha_mix =  0.700 |ddv_scf|^2 =  7.117E-14

     End of self-consistent calculation

     Convergence has been achieved 


     Representation #  3 mode #   3

     Self-consistent Calculation

      iter #   1 total cpu time :   114.0 secs   av.it.:   5.4
      thresh= 1.000E-02 alpha_mix =  0.700 |ddv_scf|^2 =  2.369E-05

      iter #   2 total cpu time :   118.9 secs   av.it.:   7.3
      thresh= 4.867E-04 alpha_mix =  0.700 |ddv_scf|^2 =  4.488E-07

      iter #   3 total cpu time :   123.9 secs   av.it.:   7.5
      thresh= 6.700E-05 alpha_mix =  0.700 |ddv_scf|^2 =  6.052E-09

      iter #   4 total cpu time :   128.8 secs   av.it.:   7.2
      thresh= 7.780E-06 alpha_mix =  0.700 |ddv_scf|^2 =  2.148E-11

      iter #   5 total cpu time :   133.7 secs   av.it.:   7.3
      thresh= 4.635E-07 alpha_mix =  0.700 |ddv_scf|^2 =  7.092E-14

     End of self-consistent calculation

     Convergence has been achieved 

     Number of q in the star =   12
     List of q in the star:
          1   0.000000000  -0.125000000   0.125000000
          2   0.125000000   0.000000000   0.125000000
          3  -0.125000000   0.000000000   0.125000000
          4   0.000000000   0.125000000   0.125000000
          5   0.125000000  -0.125000000   0.000000000
          6  -0.125000000   0.000000000  -0.125000000
          7   0.125000000   0.000000000  -0.125000000
          8   0.000000000  -0.125000000  -0.125000000
          9  -0.125000000  -0.125000000   0.000000000
         10  -0.125000000   0.125000000   0.000000000
         11   0.125000000   0.125000000   0.000000000
         12   0.000000000   0.125000000  -0.125000000

     Diagonalizing the dynamical matrix

     q = (    0.000000000  -0.125000000   0.125000000 ) 

 **************************************************************************
     freq (    1) =       1.076476 [THz] =      35.907388 [cm-1]
     freq (    2) =       1.509820 [THz] =      50.362173 [cm-1]
     freq (    3) =       2.742146 [THz] =      91.468153 [cm-1]
 **************************************************************************

     Mode symmetry, C_2v (mm2)  point group:

     freq (  1 -  1) =         35.9  [cm-1]   --> B_1  D_3  S_3      
     freq (  2 -  2) =         50.4  [cm-1]   --> B_2  D_4  S_4      
     freq (  3 -  3) =         91.5  [cm-1]   --> A_1  D_1  S_1      

     Calculation of q =    0.0000000  -0.2500000   0.2500000

   Info: using nr1, nr2, nr3 values from input

   Info: using nr1, nr2, nr3 values from input

     Parallelization info
     --------------------
     sticks:   dense  smooth     PW     G-vecs:    dense   smooth      PW
     Min         217     109     38                 4073     1443     301
     Max         218     110     39                 4074     1444     302
     Sum         871     437    155                16295     5775    1205



     bravais-lattice index     =            3
     lattice parameter (alat)  =       6.9546  a.u.
     unit-cell volume          =     168.1818 (a.u.)^3
     number of atoms/cell      =            1
     number of atomic types    =            1
     number of electrons       =         9.00
     number of Kohn-Sham states=            9
     kinetic-energy cutoff     =      40.0000  Ry
     charge density cutoff     =     320.0000  Ry
     Exchange-correlation      = SLA  PW   PBE  PBE ( 1  4  3  4 0 0)

     celldm(1)=   6.954561  celldm(2)=   0.000000  celldm(3)=   0.000000
     celldm(4)=   0.000000  celldm(5)=   0.000000  celldm(6)=   0.000000

     crystal axes: (cart. coord. in units of alat)
               a(1) = (   0.500000   0.500000   0.500000 )  
               a(2) = (  -0.500000   0.500000   0.500000 )  
               a(3) = (  -0.500000  -0.500000   0.500000 )  

     reciprocal axes: (cart. coord. in units 2 pi/alat)
               b(1) = (  1.000000  0.000000  1.000000 )  
               b(2) = ( -1.000000  1.000000  0.000000 )  
               b(3) = (  0.000000 -1.000000  1.000000 )  


     PseudoPot. # 1 for Na read from file:
     /home/s1333534/quantum_espresso/qe-6.1/pseudo/Na_pbe_v1.uspp.F.UPF
     MD5 check sum: 76a99c7e9422403d3e93cbc85ab7bccb
     Pseudo is Ultrasoft, Zval =  9.0
     Generated by new atomic code, or converted to UPF format
     Using radial grid of  819 points,  5 beta functions with: 
                l(1) =   0
                l(2) =   0
                l(3) =   1
                l(4) =   1
                l(5) =   2
     Q(r) pseudized with  8 coefficients,  rinner =    1.250   1.250   1.250
                                                       1.250   1.250

     atomic species   valence    mass     pseudopotential
        Na             9.00    22.99000     Na( 1.00)

     48 Sym. Ops., with inversion, found



   Cartesian axes

     site n.     atom                  positions (alat units)
         1           Na  tau(   1) = (   0.0000000   0.0000000   0.0000000  )

     number of k points=  1568  Marzari-Vanderbilt smearing, width (Ry)=  0.0200

     Number of k-points >= 100: set verbosity='high' to print them.

     Dense  grid:    16295 G-vectors     FFT dimensions: (  36,  36,  36)

     Smooth grid:     5775 G-vectors     FFT dimensions: (  25,  25,  25)

     Estimated max dynamical RAM per process >       1.56MB

     Estimated total allocated dynamical RAM >       6.26MB

     The potential is recalculated from file :
     ./_ph0/na.bcc.save/charge-density.dat

     Starting wfc are    5 atomic +    4 random wfc

     Band Structure Calculation
     Davidson diagonalization with overlap

     ethr =  1.11E-10,  avg # of iterations = 18.4

     total cpu time spent up to now is       59.7 secs

     End of band structure calculation

     Number of k-points >= 100: set verbosity='high' to print the bands.

     the Fermi energy is     3.6857 ev

     Writing output data file na.bcc.save

                                                                                

     bravais-lattice index     =            3
     lattice parameter (alat)  =       6.9546  a.u.
     unit-cell volume          =     168.1818 (a.u.)^3
     number of atoms/cell      =            1
     number of atomic types    =            1
     kinetic-energy cut-off    =      40.0000  Ry
     charge density cut-off    =     320.0000  Ry
     convergence threshold     =      1.0E-12
     beta                      =       0.7000
     number of iterations used =            4
     Exchange-correlation      = SLA  PW   PBE  PBE ( 1  4  3  4 0 0)


     celldm(1)=    6.95456  celldm(2)=    0.00000  celldm(3)=    0.00000
     celldm(4)=    0.00000  celldm(5)=    0.00000  celldm(6)=    0.00000

     crystal axes: (cart. coord. in units of alat)
               a(1) = (  0.5000  0.5000  0.5000 )  
               a(2) = ( -0.5000  0.5000  0.5000 )  
               a(3) = ( -0.5000 -0.5000  0.5000 )  

     reciprocal axes: (cart. coord. in units 2 pi/alat)
               b(1) = (  1.0000  0.0000  1.0000 )  
               b(2) = ( -1.0000  1.0000  0.0000 )  
               b(3) = (  0.0000 -1.0000  1.0000 )  


     Atoms inside the unit cell: 

     Cartesian axes

     site n.  atom      mass           positions (alat units)
        1     Na  22.9900   tau(    1) = (    0.00000    0.00000    0.00000  )

     Computing dynamical matrix for 
                    q = (   0.0000000  -0.2500000   0.2500000 )

      4 Sym.Ops. (no q -> -q+G )


     G cutoff =  392.0393  (   4074 G-vectors)     FFT grid: ( 36, 36, 36)
     G cutoff =  196.0197  (   1444 G-vectors)  smooth grid: ( 25, 25, 25)

     number of k points=  1568  Marzari-Vanderbilt smearing, width (Ry)=  0.0200

     PseudoPot. # 1 for Na read from file:
     /home/s1333534/quantum_espresso/qe-6.1/pseudo/Na_pbe_v1.uspp.F.UPF
     MD5 check sum: 76a99c7e9422403d3e93cbc85ab7bccb
     Pseudo is Ultrasoft, Zval =  9.0
     Generated by new atomic code, or converted to UPF format
     Using radial grid of  819 points,  5 beta functions with: 
                l(1) =   0
                l(2) =   0
                l(3) =   1
                l(4) =   1
                l(5) =   2
     Q(r) pseudized with  8 coefficients,  rinner =    1.250   1.250   1.250
                                                       1.250   1.250

     Mode symmetry, C_2v (mm2)  point group:


     Atomic displacements:
     There are   3 irreducible representations

     Representation     1      1 modes -A_1  D_1  S_1  To be done

     Representation     2      1 modes -B_1  D_3  S_3  To be done

     Representation     3      1 modes -B_2  D_4  S_4  To be done



     Alpha used in Ewald sum =   2.8000
     PHONON       :  2m33.72s CPU     2m46.77s WALL



     Representation #  1 mode #   1

     Self-consistent Calculation

      iter #   1 total cpu time :   171.5 secs   av.it.:   5.7
      thresh= 1.000E-02 alpha_mix =  0.700 |ddv_scf|^2 =  5.370E-03

      iter #   2 total cpu time :   175.9 secs   av.it.:   6.2
      thresh= 7.328E-03 alpha_mix =  0.700 |ddv_scf|^2 =  9.955E-02

      iter #   3 total cpu time :   180.1 secs   av.it.:   5.9
      thresh= 1.000E-02 alpha_mix =  0.700 |ddv_scf|^2 =  4.571E-06

      iter #   4 total cpu time :   185.0 secs   av.it.:   7.2
      thresh= 2.138E-04 alpha_mix =  0.700 |ddv_scf|^2 =  2.125E-08

      iter #   5 total cpu time :   190.2 secs   av.it.:   7.8
      thresh= 1.458E-05 alpha_mix =  0.700 |ddv_scf|^2 =  3.094E-09

      iter #   6 total cpu time :   195.2 secs   av.it.:   7.6
      thresh= 5.563E-06 alpha_mix =  0.700 |ddv_scf|^2 =  4.429E-11

      iter #   7 total cpu time :   200.3 secs   av.it.:   7.7
      thresh= 6.655E-07 alpha_mix =  0.700 |ddv_scf|^2 =  2.514E-11

      iter #   8 total cpu time :   204.7 secs   av.it.:   5.8
      thresh= 5.014E-07 alpha_mix =  0.700 |ddv_scf|^2 =  2.427E-11

      iter #   9 total cpu time :   209.1 secs   av.it.:   6.2
      thresh= 4.927E-07 alpha_mix =  0.700 |ddv_scf|^2 =  5.814E-13

     End of self-consistent calculation

     Convergence has been achieved 


     Representation #  2 mode #   2

     Self-consistent Calculation

      iter #   1 total cpu time :   213.8 secs   av.it.:   5.5
      thresh= 1.000E-02 alpha_mix =  0.700 |ddv_scf|^2 =  2.363E-05

      iter #   2 total cpu time :   218.8 secs   av.it.:   7.3
      thresh= 4.861E-04 alpha_mix =  0.700 |ddv_scf|^2 =  4.401E-07

      iter #   3 total cpu time :   223.9 secs   av.it.:   7.6
      thresh= 6.634E-05 alpha_mix =  0.700 |ddv_scf|^2 =  6.129E-09

      iter #   4 total cpu time :   228.7 secs   av.it.:   7.2
      thresh= 7.829E-06 alpha_mix =  0.700 |ddv_scf|^2 =  2.061E-11

      iter #   5 total cpu time :   233.7 secs   av.it.:   7.4
      thresh= 4.540E-07 alpha_mix =  0.700 |ddv_scf|^2 =  6.211E-14

     End of self-consistent calculation

     Convergence has been achieved 


     Representation #  3 mode #   3

     Self-consistent Calculation

      iter #   1 total cpu time :   238.5 secs   av.it.:   5.4
      thresh= 1.000E-02 alpha_mix =  0.700 |ddv_scf|^2 =  2.538E-05

      iter #   2 total cpu time :   243.5 secs   av.it.:   7.4
      thresh= 5.038E-04 alpha_mix =  0.700 |ddv_scf|^2 =  4.318E-07

      iter #   3 total cpu time :   248.5 secs   av.it.:   7.6
      thresh= 6.571E-05 alpha_mix =  0.700 |ddv_scf|^2 =  9.674E-09

      iter #   4 total cpu time :   253.4 secs   av.it.:   7.3
      thresh= 9.836E-06 alpha_mix =  0.700 |ddv_scf|^2 =  3.440E-11

      iter #   5 total cpu time :   258.4 secs   av.it.:   7.4
      thresh= 5.865E-07 alpha_mix =  0.700 |ddv_scf|^2 =  6.529E-14

     End of self-consistent calculation

     Convergence has been achieved 

     Number of q in the star =   12
     List of q in the star:
          1   0.000000000  -0.250000000   0.250000000
          2   0.250000000   0.000000000   0.250000000
          3  -0.250000000   0.000000000   0.250000000
          4   0.000000000   0.250000000   0.250000000
          5   0.250000000  -0.250000000   0.000000000
          6  -0.250000000   0.000000000  -0.250000000
          7   0.250000000   0.000000000  -0.250000000
          8   0.000000000  -0.250000000  -0.250000000
          9  -0.250000000  -0.250000000   0.000000000
         10  -0.250000000   0.250000000   0.000000000
         11   0.250000000   0.250000000   0.000000000
         12   0.000000000   0.250000000  -0.250000000

     Diagonalizing the dynamical matrix

     q = (    0.000000000  -0.250000000   0.250000000 ) 

 **************************************************************************
     freq (    1) =       1.475275 [THz] =      49.209864 [cm-1]
     freq (    2) =       2.510327 [THz] =      83.735490 [cm-1]
     freq (    3) =       4.738136 [THz] =     158.047212 [cm-1]
 **************************************************************************

     Mode symmetry, C_2v (mm2)  point group:

     freq (  1 -  1) =         49.2  [cm-1]   --> B_1  D_3  S_3      
     freq (  2 -  2) =         83.7  [cm-1]   --> B_2  D_4  S_4      
     freq (  3 -  3) =        158.0  [cm-1]   --> A_1  D_1  S_1      

     Calculation of q =    0.0000000  -0.3750000   0.3750000

   Info: using nr1, nr2, nr3 values from input

   Info: using nr1, nr2, nr3 values from input

     Parallelization info
     --------------------
     sticks:   dense  smooth     PW     G-vecs:    dense   smooth      PW
     Min         217     109     39                 4073     1443     312
     Max         218     110     40                 4074     1444     314
     Sum         871     437    159                16295     5775    1253



     bravais-lattice index     =            3
     lattice parameter (alat)  =       6.9546  a.u.
     unit-cell volume          =     168.1818 (a.u.)^3
     number of atoms/cell      =            1
     number of atomic types    =            1
     number of electrons       =         9.00
     number of Kohn-Sham states=            9
     kinetic-energy cutoff     =      40.0000  Ry
     charge density cutoff     =     320.0000  Ry
     Exchange-correlation      = SLA  PW   PBE  PBE ( 1  4  3  4 0 0)

     celldm(1)=   6.954561  celldm(2)=   0.000000  celldm(3)=   0.000000
     celldm(4)=   0.000000  celldm(5)=   0.000000  celldm(6)=   0.000000

     crystal axes: (cart. coord. in units of alat)
               a(1) = (   0.500000   0.500000   0.500000 )  
               a(2) = (  -0.500000   0.500000   0.500000 )  
               a(3) = (  -0.500000  -0.500000   0.500000 )  

     reciprocal axes: (cart. coord. in units 2 pi/alat)
               b(1) = (  1.000000  0.000000  1.000000 )  
               b(2) = ( -1.000000  1.000000  0.000000 )  
               b(3) = (  0.000000 -1.000000  1.000000 )  


     PseudoPot. # 1 for Na read from file:
     /home/s1333534/quantum_espresso/qe-6.1/pseudo/Na_pbe_v1.uspp.F.UPF
     MD5 check sum: 76a99c7e9422403d3e93cbc85ab7bccb
     Pseudo is Ultrasoft, Zval =  9.0
     Generated by new atomic code, or converted to UPF format
     Using radial grid of  819 points,  5 beta functions with: 
                l(1) =   0
                l(2) =   0
                l(3) =   1
                l(4) =   1
                l(5) =   2
     Q(r) pseudized with  8 coefficients,  rinner =    1.250   1.250   1.250
                                                       1.250   1.250

     atomic species   valence    mass     pseudopotential
        Na             9.00    22.99000     Na( 1.00)

     48 Sym. Ops., with inversion, found



   Cartesian axes

     site n.     atom                  positions (alat units)
         1           Na  tau(   1) = (   0.0000000   0.0000000   0.0000000  )

     number of k points=  1568  Marzari-Vanderbilt smearing, width (Ry)=  0.0200

     Number of k-points >= 100: set verbosity='high' to print them.

     Dense  grid:    16295 G-vectors     FFT dimensions: (  36,  36,  36)

     Smooth grid:     5775 G-vectors     FFT dimensions: (  25,  25,  25)

     Estimated max dynamical RAM per process >       1.56MB

     Estimated total allocated dynamical RAM >       6.26MB

     The potential is recalculated from file :
     ./_ph0/na.bcc.save/charge-density.dat

     Starting wfc are    5 atomic +    4 random wfc

     Band Structure Calculation
     Davidson diagonalization with overlap

     ethr =  1.11E-10,  avg # of iterations = 18.4

     total cpu time spent up to now is       90.3 secs

     End of band structure calculation

     Number of k-points >= 100: set verbosity='high' to print the bands.

     the Fermi energy is     3.6857 ev

     Writing output data file na.bcc.save

                                                                                

     bravais-lattice index     =            3
     lattice parameter (alat)  =       6.9546  a.u.
     unit-cell volume          =     168.1818 (a.u.)^3
     number of atoms/cell      =            1
     number of atomic types    =            1
     kinetic-energy cut-off    =      40.0000  Ry
     charge density cut-off    =     320.0000  Ry
     convergence threshold     =      1.0E-12
     beta                      =       0.7000
     number of iterations used =            4
     Exchange-correlation      = SLA  PW   PBE  PBE ( 1  4  3  4 0 0)


     celldm(1)=    6.95456  celldm(2)=    0.00000  celldm(3)=    0.00000
     celldm(4)=    0.00000  celldm(5)=    0.00000  celldm(6)=    0.00000

     crystal axes: (cart. coord. in units of alat)
               a(1) = (  0.5000  0.5000  0.5000 )  
               a(2) = ( -0.5000  0.5000  0.5000 )  
               a(3) = ( -0.5000 -0.5000  0.5000 )  

     reciprocal axes: (cart. coord. in units 2 pi/alat)
               b(1) = (  1.0000  0.0000  1.0000 )  
               b(2) = ( -1.0000  1.0000  0.0000 )  
               b(3) = (  0.0000 -1.0000  1.0000 )  


     Atoms inside the unit cell: 

     Cartesian axes

     site n.  atom      mass           positions (alat units)
        1     Na  22.9900   tau(    1) = (    0.00000    0.00000    0.00000  )

     Computing dynamical matrix for 
                    q = (   0.0000000  -0.3750000   0.3750000 )

      4 Sym.Ops. (no q -> -q+G )


     G cutoff =  392.0393  (   4074 G-vectors)     FFT grid: ( 36, 36, 36)
     G cutoff =  196.0197  (   1444 G-vectors)  smooth grid: ( 25, 25, 25)

     number of k points=  1568  Marzari-Vanderbilt smearing, width (Ry)=  0.0200

     PseudoPot. # 1 for Na read from file:
     /home/s1333534/quantum_espresso/qe-6.1/pseudo/Na_pbe_v1.uspp.F.UPF
     MD5 check sum: 76a99c7e9422403d3e93cbc85ab7bccb
     Pseudo is Ultrasoft, Zval =  9.0
     Generated by new atomic code, or converted to UPF format
     Using radial grid of  819 points,  5 beta functions with: 
                l(1) =   0
                l(2) =   0
                l(3) =   1
                l(4) =   1
                l(5) =   2
     Q(r) pseudized with  8 coefficients,  rinner =    1.250   1.250   1.250
                                                       1.250   1.250

     Mode symmetry, C_2v (mm2)  point group:


     Atomic displacements:
     There are   3 irreducible representations

     Representation     1      1 modes -A_1  D_1  S_1  To be done

     Representation     2      1 modes -B_1  D_3  S_3  To be done

     Representation     3      1 modes -B_2  D_4  S_4  To be done



     Alpha used in Ewald sum =   2.8000
     PHONON       :  4m27.70s CPU     4m51.62s WALL



     Representation #  1 mode #   1

     Self-consistent Calculation

      iter #   1 total cpu time :   296.4 secs   av.it.:   5.7
      thresh= 1.000E-02 alpha_mix =  0.700 |ddv_scf|^2 =  5.981E-04

      iter #   2 total cpu time :   301.0 secs   av.it.:   6.6
      thresh= 2.446E-03 alpha_mix =  0.700 |ddv_scf|^2 =  1.540E-03

      iter #   3 total cpu time :   305.3 secs   av.it.:   6.1
      thresh= 3.924E-03 alpha_mix =  0.700 |ddv_scf|^2 =  6.040E-07

      iter #   4 total cpu time :   310.4 secs   av.it.:   7.7
      thresh= 7.772E-05 alpha_mix =  0.700 |ddv_scf|^2 =  1.892E-08

      iter #   5 total cpu time :   315.7 secs   av.it.:   8.0
      thresh= 1.375E-05 alpha_mix =  0.700 |ddv_scf|^2 =  9.478E-10

      iter #   6 total cpu time :   320.9 secs   av.it.:   7.8
      thresh= 3.079E-06 alpha_mix =  0.700 |ddv_scf|^2 =  2.534E-11

      iter #   7 total cpu time :   326.5 secs   av.it.:   7.4
      thresh= 5.034E-07 alpha_mix =  0.700 |ddv_scf|^2 =  1.485E-12

      iter #   8 total cpu time :   331.7 secs   av.it.:   7.7
      thresh= 1.219E-07 alpha_mix =  0.700 |ddv_scf|^2 =  9.444E-15

     End of self-consistent calculation

     Convergence has been achieved 


     Representation #  2 mode #   2

     Self-consistent Calculation

      iter #   1 total cpu time :   336.4 secs   av.it.:   5.5
      thresh= 1.000E-02 alpha_mix =  0.700 |ddv_scf|^2 =  2.419E-05

      iter #   2 total cpu time :   341.4 secs   av.it.:   7.4
      thresh= 4.918E-04 alpha_mix =  0.700 |ddv_scf|^2 =  4.253E-07

      iter #   3 total cpu time :   346.5 secs   av.it.:   7.6
      thresh= 6.521E-05 alpha_mix =  0.700 |ddv_scf|^2 =  7.712E-09

      iter #   4 total cpu time :   351.3 secs   av.it.:   7.2
      thresh= 8.782E-06 alpha_mix =  0.700 |ddv_scf|^2 =  2.416E-11

      iter #   5 total cpu time :   356.3 secs   av.it.:   7.4
      thresh= 4.915E-07 alpha_mix =  0.700 |ddv_scf|^2 =  5.119E-14

     End of self-consistent calculation

     Convergence has been achieved 


     Representation #  3 mode #   3

     Self-consistent Calculation

      iter #   1 total cpu time :   361.0 secs   av.it.:   5.5
      thresh= 1.000E-02 alpha_mix =  0.700 |ddv_scf|^2 =  2.725E-05

      iter #   2 total cpu time :   366.0 secs   av.it.:   7.3
      thresh= 5.220E-04 alpha_mix =  0.700 |ddv_scf|^2 =  4.127E-07

      iter #   3 total cpu time :   371.1 secs   av.it.:   7.6
      thresh= 6.424E-05 alpha_mix =  0.700 |ddv_scf|^2 =  1.441E-08

      iter #   4 total cpu time :   376.0 secs   av.it.:   7.3
      thresh= 1.200E-05 alpha_mix =  0.700 |ddv_scf|^2 =  5.180E-11

      iter #   5 total cpu time :   380.9 secs   av.it.:   7.4
      thresh= 7.197E-07 alpha_mix =  0.700 |ddv_scf|^2 =  6.384E-14

     End of self-consistent calculation

     Convergence has been achieved 

     Number of q in the star =   12
     List of q in the star:
          1   0.000000000  -0.375000000   0.375000000
          2   0.375000000   0.000000000   0.375000000
          3  -0.375000000   0.000000000   0.375000000
          4   0.000000000   0.375000000   0.375000000
          5   0.375000000  -0.375000000   0.000000000
          6  -0.375000000   0.000000000  -0.375000000
          7   0.375000000   0.000000000  -0.375000000
          8   0.000000000  -0.375000000  -0.375000000
          9  -0.375000000  -0.375000000   0.000000000
         10  -0.375000000   0.375000000   0.000000000
         11   0.375000000   0.375000000   0.000000000
         12   0.000000000   0.375000000  -0.375000000

     Diagonalizing the dynamical matrix

     q = (    0.000000000  -0.375000000   0.375000000 ) 

 **************************************************************************
     freq (    1) =       1.534477 [THz] =      51.184637 [cm-1]
     freq (    2) =       3.164925 [THz] =     105.570532 [cm-1]
     freq (    3) =       6.081974 [THz] =     202.872831 [cm-1]
 **************************************************************************

     Mode symmetry, C_2v (mm2)  point group:

     freq (  1 -  1) =         51.2  [cm-1]   --> B_1  D_3  S_3      
     freq (  2 -  2) =        105.6  [cm-1]   --> B_2  D_4  S_4      
     freq (  3 -  3) =        202.9  [cm-1]   --> A_1  D_1  S_1      

     Calculation of q =    0.0000000   0.5000000  -0.5000000

   Info: using nr1, nr2, nr3 values from input

   Info: using nr1, nr2, nr3 values from input

     Parallelization info
     --------------------
     sticks:   dense  smooth     PW     G-vecs:    dense   smooth      PW
     Min         217     109     41                 4073     1443     322
     Max         219     110     42                 4074     1444     323
     Sum         871     437    165                16295     5775    1289



     bravais-lattice index     =            3
     lattice parameter (alat)  =       6.9546  a.u.
     unit-cell volume          =     168.1818 (a.u.)^3
     number of atoms/cell      =            1
     number of atomic types    =            1
     number of electrons       =         9.00
     number of Kohn-Sham states=            9
     kinetic-energy cutoff     =      40.0000  Ry
     charge density cutoff     =     320.0000  Ry
     Exchange-correlation      = SLA  PW   PBE  PBE ( 1  4  3  4 0 0)

     celldm(1)=   6.954561  celldm(2)=   0.000000  celldm(3)=   0.000000
     celldm(4)=   0.000000  celldm(5)=   0.000000  celldm(6)=   0.000000

     crystal axes: (cart. coord. in units of alat)
               a(1) = (   0.500000   0.500000   0.500000 )  
               a(2) = (  -0.500000   0.500000   0.500000 )  
               a(3) = (  -0.500000  -0.500000   0.500000 )  

     reciprocal axes: (cart. coord. in units 2 pi/alat)
               b(1) = (  1.000000  0.000000  1.000000 )  
               b(2) = ( -1.000000  1.000000  0.000000 )  
               b(3) = (  0.000000 -1.000000  1.000000 )  


     PseudoPot. # 1 for Na read from file:
     /home/s1333534/quantum_espresso/qe-6.1/pseudo/Na_pbe_v1.uspp.F.UPF
     MD5 check sum: 76a99c7e9422403d3e93cbc85ab7bccb
     Pseudo is Ultrasoft, Zval =  9.0
     Generated by new atomic code, or converted to UPF format
     Using radial grid of  819 points,  5 beta functions with: 
                l(1) =   0
                l(2) =   0
                l(3) =   1
                l(4) =   1
                l(5) =   2
     Q(r) pseudized with  8 coefficients,  rinner =    1.250   1.250   1.250
                                                       1.250   1.250

     atomic species   valence    mass     pseudopotential
        Na             9.00    22.99000     Na( 1.00)

     48 Sym. Ops., with inversion, found



   Cartesian axes

     site n.     atom                  positions (alat units)
         1           Na  tau(   1) = (   0.0000000   0.0000000   0.0000000  )

     number of k points=   840  Marzari-Vanderbilt smearing, width (Ry)=  0.0200

     Number of k-points >= 100: set verbosity='high' to print them.

     Dense  grid:    16295 G-vectors     FFT dimensions: (  36,  36,  36)

     Smooth grid:     5775 G-vectors     FFT dimensions: (  25,  25,  25)

     Estimated max dynamical RAM per process >       1.56MB

     Estimated total allocated dynamical RAM >       6.26MB

     The potential is recalculated from file :
     ./_ph0/na.bcc.save/charge-density.dat

     Starting wfc are    5 atomic +    4 random wfc

     Band Structure Calculation
     Davidson diagonalization with overlap

     ethr =  1.11E-10,  avg # of iterations = 18.5

     total cpu time spent up to now is      107.4 secs

     End of band structure calculation

     Number of k-points >= 100: set verbosity='high' to print the bands.

     the Fermi energy is     3.6857 ev

     Writing output data file na.bcc.save

                                                                                

     bravais-lattice index     =            3
     lattice parameter (alat)  =       6.9546  a.u.
     unit-cell volume          =     168.1818 (a.u.)^3
     number of atoms/cell      =            1
     number of atomic types    =            1
     kinetic-energy cut-off    =      40.0000  Ry
     charge density cut-off    =     320.0000  Ry
     convergence threshold     =      1.0E-12
     beta                      =       0.7000
     number of iterations used =            4
     Exchange-correlation      = SLA  PW   PBE  PBE ( 1  4  3  4 0 0)


     celldm(1)=    6.95456  celldm(2)=    0.00000  celldm(3)=    0.00000
     celldm(4)=    0.00000  celldm(5)=    0.00000  celldm(6)=    0.00000

     crystal axes: (cart. coord. in units of alat)
               a(1) = (  0.5000  0.5000  0.5000 )  
               a(2) = ( -0.5000  0.5000  0.5000 )  
               a(3) = ( -0.5000 -0.5000  0.5000 )  

     reciprocal axes: (cart. coord. in units 2 pi/alat)
               b(1) = (  1.0000  0.0000  1.0000 )  
               b(2) = ( -1.0000  1.0000  0.0000 )  
               b(3) = (  0.0000 -1.0000  1.0000 )  


     Atoms inside the unit cell: 

     Cartesian axes

     site n.  atom      mass           positions (alat units)
        1     Na  22.9900   tau(    1) = (    0.00000    0.00000    0.00000  )

     Computing dynamical matrix for 
                    q = (   0.0000000   0.5000000  -0.5000000 )

      9 Sym.Ops. (with q -> -q+G )


     G cutoff =  392.0393  (   4074 G-vectors)     FFT grid: ( 36, 36, 36)
     G cutoff =  196.0197  (   1444 G-vectors)  smooth grid: ( 25, 25, 25)

     number of k points=   840  Marzari-Vanderbilt smearing, width (Ry)=  0.0200

     PseudoPot. # 1 for Na read from file:
     /home/s1333534/quantum_espresso/qe-6.1/pseudo/Na_pbe_v1.uspp.F.UPF
     MD5 check sum: 76a99c7e9422403d3e93cbc85ab7bccb
     Pseudo is Ultrasoft, Zval =  9.0
     Generated by new atomic code, or converted to UPF format
     Using radial grid of  819 points,  5 beta functions with: 
                l(1) =   0
                l(2) =   0
                l(3) =   1
                l(4) =   1
                l(5) =   2
     Q(r) pseudized with  8 coefficients,  rinner =    1.250   1.250   1.250
                                                       1.250   1.250

     Mode symmetry, D_2h (mmm)  point group:


     Atomic displacements:
     There are   3 irreducible representations

     Representation     1      1 modes -B_1u  To be done

     Representation     2      1 modes -B_2u  To be done

     Representation     3      1 modes -B_3u  To be done



     Alpha used in Ewald sum =   2.8000
     PHONON       :  6m 5.66s CPU     6m39.03s WALL



     Representation #  1 mode #   1

     Self-consistent Calculation

      iter #   1 total cpu time :   401.5 secs   av.it.:   5.5
      thresh= 1.000E-02 alpha_mix =  0.700 |ddv_scf|^2 =  2.807E-05

      iter #   2 total cpu time :   404.2 secs   av.it.:   7.3
      thresh= 5.298E-04 alpha_mix =  0.700 |ddv_scf|^2 =  4.057E-07

      iter #   3 total cpu time :   407.0 secs   av.it.:   7.5
      thresh= 6.369E-05 alpha_mix =  0.700 |ddv_scf|^2 =  1.667E-08

      iter #   4 total cpu time :   409.6 secs   av.it.:   7.0
      thresh= 1.291E-05 alpha_mix =  0.700 |ddv_scf|^2 =  6.002E-11

      iter #   5 total cpu time :   412.3 secs   av.it.:   7.3
      thresh= 7.747E-07 alpha_mix =  0.700 |ddv_scf|^2 =  6.433E-14

     End of self-consistent calculation

     Convergence has been achieved 


     Representation #  2 mode #   2

     Self-consistent Calculation

      iter #   1 total cpu time :   414.9 secs   av.it.:   5.5
      thresh= 1.000E-02 alpha_mix =  0.700 |ddv_scf|^2 =  2.445E-05

      iter #   2 total cpu time :   417.6 secs   av.it.:   7.3
      thresh= 4.945E-04 alpha_mix =  0.700 |ddv_scf|^2 =  4.189E-07

      iter #   3 total cpu time :   420.4 secs   av.it.:   7.5
      thresh= 6.472E-05 alpha_mix =  0.700 |ddv_scf|^2 =  8.536E-09

      iter #   4 total cpu time :   423.0 secs   av.it.:   7.0
      thresh= 9.239E-06 alpha_mix =  0.700 |ddv_scf|^2 =  2.557E-11

      iter #   5 total cpu time :   425.7 secs   av.it.:   7.3
      thresh= 5.057E-07 alpha_mix =  0.700 |ddv_scf|^2 =  4.643E-14

     End of self-consistent calculation

     Convergence has been achieved 


     Representation #  3 mode #   3

     Self-consistent Calculation

      iter #   1 total cpu time :   428.3 secs   av.it.:   5.7
      thresh= 1.000E-02 alpha_mix =  0.700 |ddv_scf|^2 =  2.249E-04

      iter #   2 total cpu time :   430.9 secs   av.it.:   6.6
      thresh= 1.500E-03 alpha_mix =  0.700 |ddv_scf|^2 =  1.001E-04

      iter #   3 total cpu time :   433.4 secs   av.it.:   6.5
      thresh= 1.000E-03 alpha_mix =  0.700 |ddv_scf|^2 =  1.413E-07

      iter #   4 total cpu time :   436.1 secs   av.it.:   7.5
      thresh= 3.760E-05 alpha_mix =  0.700 |ddv_scf|^2 =  4.424E-10

      iter #   5 total cpu time :   438.5 secs   av.it.:   6.2
      thresh= 2.103E-06 alpha_mix =  0.700 |ddv_scf|^2 =  9.648E-12

      iter #   6 total cpu time :   441.0 secs   av.it.:   6.6
      thresh= 3.106E-07 alpha_mix =  0.700 |ddv_scf|^2 =  2.552E-14

     End of self-consistent calculation

     Convergence has been achieved 

     Number of q in the star =    6
     List of q in the star:
          1   0.000000000   0.500000000  -0.500000000
          2  -0.500000000   0.500000000   0.000000000
          3   0.500000000   0.000000000   0.500000000
          4   0.500000000   0.000000000  -0.500000000
          5   0.000000000   0.500000000   0.500000000
          6   0.500000000   0.500000000   0.000000000

     Diagonalizing the dynamical matrix

     q = (    0.000000000   0.500000000  -0.500000000 ) 

 **************************************************************************
     freq (    1) =       1.410044 [THz] =      47.034000 [cm-1]
     freq (    2) =       3.360479 [THz] =     112.093504 [cm-1]
     freq (    3) =       6.596753 [THz] =     220.044003 [cm-1]
 **************************************************************************

     Mode symmetry, D_2h (mmm)  point group:

     freq (  1 -  1) =         47.0  [cm-1]   --> B_2u               
     freq (  2 -  2) =        112.1  [cm-1]   --> B_1u               
     freq (  3 -  3) =        220.0  [cm-1]   --> B_3u               

     Calculation of q =   -0.1250000  -0.1250000   0.2500000

   Info: using nr1, nr2, nr3 values from input

   Info: using nr1, nr2, nr3 values from input

     Parallelization info
     --------------------
     sticks:   dense  smooth     PW     G-vecs:    dense   smooth      PW
     Min         217     109     38                 4073     1443     301
     Max         218     110     39                 4074     1444     302
     Sum         871     437    155                16295     5775    1205



     bravais-lattice index     =            3
     lattice parameter (alat)  =       6.9546  a.u.
     unit-cell volume          =     168.1818 (a.u.)^3
     number of atoms/cell      =            1
     number of atomic types    =            1
     number of electrons       =         9.00
     number of Kohn-Sham states=            9
     kinetic-energy cutoff     =      40.0000  Ry
     charge density cutoff     =     320.0000  Ry
     Exchange-correlation      = SLA  PW   PBE  PBE ( 1  4  3  4 0 0)

     celldm(1)=   6.954561  celldm(2)=   0.000000  celldm(3)=   0.000000
     celldm(4)=   0.000000  celldm(5)=   0.000000  celldm(6)=   0.000000

     crystal axes: (cart. coord. in units of alat)
               a(1) = (   0.500000   0.500000   0.500000 )  
               a(2) = (  -0.500000   0.500000   0.500000 )  
               a(3) = (  -0.500000  -0.500000   0.500000 )  

     reciprocal axes: (cart. coord. in units 2 pi/alat)
               b(1) = (  1.000000  0.000000  1.000000 )  
               b(2) = ( -1.000000  1.000000  0.000000 )  
               b(3) = (  0.000000 -1.000000  1.000000 )  


     PseudoPot. # 1 for Na read from file:
     /home/s1333534/quantum_espresso/qe-6.1/pseudo/Na_pbe_v1.uspp.F.UPF
     MD5 check sum: 76a99c7e9422403d3e93cbc85ab7bccb
     Pseudo is Ultrasoft, Zval =  9.0
     Generated by new atomic code, or converted to UPF format
     Using radial grid of  819 points,  5 beta functions with: 
                l(1) =   0
                l(2) =   0
                l(3) =   1
                l(4) =   1
                l(5) =   2
     Q(r) pseudized with  8 coefficients,  rinner =    1.250   1.250   1.250
                                                       1.250   1.250

     atomic species   valence    mass     pseudopotential
        Na             9.00    22.99000     Na( 1.00)

     48 Sym. Ops., with inversion, found



   Cartesian axes

     site n.     atom                  positions (alat units)
         1           Na  tau(   1) = (   0.0000000   0.0000000   0.0000000  )

     number of k points=  2940  Marzari-Vanderbilt smearing, width (Ry)=  0.0200

     Number of k-points >= 100: set verbosity='high' to print them.

     Dense  grid:    16295 G-vectors     FFT dimensions: (  36,  36,  36)

     Smooth grid:     5775 G-vectors     FFT dimensions: (  25,  25,  25)

     Estimated max dynamical RAM per process >       1.56MB

     Estimated total allocated dynamical RAM >       6.26MB

     The potential is recalculated from file :
     ./_ph0/na.bcc.save/charge-density.dat

     Starting wfc are    5 atomic +    4 random wfc

     Band Structure Calculation
     Davidson diagonalization with overlap

     ethr =  1.11E-10,  avg # of iterations = 18.4

     total cpu time spent up to now is      163.0 secs

     End of band structure calculation

     Number of k-points >= 100: set verbosity='high' to print the bands.

     the Fermi energy is     3.6857 ev

     Writing output data file na.bcc.save

                                                                                

     bravais-lattice index     =            3
     lattice parameter (alat)  =       6.9546  a.u.
     unit-cell volume          =     168.1818 (a.u.)^3
     number of atoms/cell      =            1
     number of atomic types    =            1
     kinetic-energy cut-off    =      40.0000  Ry
     charge density cut-off    =     320.0000  Ry
     convergence threshold     =      1.0E-12
     beta                      =       0.7000
     number of iterations used =            4
     Exchange-correlation      = SLA  PW   PBE  PBE ( 1  4  3  4 0 0)


     celldm(1)=    6.95456  celldm(2)=    0.00000  celldm(3)=    0.00000
     celldm(4)=    0.00000  celldm(5)=    0.00000  celldm(6)=    0.00000

     crystal axes: (cart. coord. in units of alat)
               a(1) = (  0.5000  0.5000  0.5000 )  
               a(2) = ( -0.5000  0.5000  0.5000 )  
               a(3) = ( -0.5000 -0.5000  0.5000 )  

     reciprocal axes: (cart. coord. in units 2 pi/alat)
               b(1) = (  1.0000  0.0000  1.0000 )  
               b(2) = ( -1.0000  1.0000  0.0000 )  
               b(3) = (  0.0000 -1.0000  1.0000 )  


     Atoms inside the unit cell: 

     Cartesian axes

     site n.  atom      mass           positions (alat units)
        1     Na  22.9900   tau(    1) = (    0.00000    0.00000    0.00000  )

     Computing dynamical matrix for 
                    q = (  -0.1250000  -0.1250000   0.2500000 )

      2 Sym.Ops. (no q -> -q+G )


     G cutoff =  392.0393  (   4074 G-vectors)     FFT grid: ( 36, 36, 36)
     G cutoff =  196.0197  (   1444 G-vectors)  smooth grid: ( 25, 25, 25)

     number of k points=  2940  Marzari-Vanderbilt smearing, width (Ry)=  0.0200

     PseudoPot. # 1 for Na read from file:
     /home/s1333534/quantum_espresso/qe-6.1/pseudo/Na_pbe_v1.uspp.F.UPF
     MD5 check sum: 76a99c7e9422403d3e93cbc85ab7bccb
     Pseudo is Ultrasoft, Zval =  9.0
     Generated by new atomic code, or converted to UPF format
     Using radial grid of  819 points,  5 beta functions with: 
                l(1) =   0
                l(2) =   0
                l(3) =   1
                l(4) =   1
                l(5) =   2
     Q(r) pseudized with  8 coefficients,  rinner =    1.250   1.250   1.250
                                                       1.250   1.250

     Mode symmetry, C_s (m)     point group:


     Atomic displacements:
     There are   3 irreducible representations

     Representation     1      1 modes -A'  To be done

     Representation     2      1 modes -A'  To be done

     Representation     3      1 modes -A''  To be done



     Alpha used in Ewald sum =   2.8000
     PHONON       :  7m41.14s CPU     8m22.99s WALL



     Representation #  1 mode #   1

     Self-consistent Calculation

      iter #   1 total cpu time :   511.7 secs   av.it.:   5.6
      thresh= 1.000E-02 alpha_mix =  0.700 |ddv_scf|^2 =  1.332E-03

      iter #   2 total cpu time :   520.3 secs   av.it.:   6.6
      thresh= 3.650E-03 alpha_mix =  0.700 |ddv_scf|^2 =  4.972E-02

      iter #   3 total cpu time :   527.4 secs   av.it.:   5.1
      thresh= 1.000E-02 alpha_mix =  0.700 |ddv_scf|^2 =  6.270E-07

      iter #   4 total cpu time :   537.0 secs   av.it.:   7.7
      thresh= 7.919E-05 alpha_mix =  0.700 |ddv_scf|^2 =  8.293E-09

      iter #   5 total cpu time :   546.9 secs   av.it.:   7.7
      thresh= 9.106E-06 alpha_mix =  0.700 |ddv_scf|^2 =  9.834E-10

      iter #   6 total cpu time :   556.4 secs   av.it.:   7.6
      thresh= 3.136E-06 alpha_mix =  0.700 |ddv_scf|^2 =  1.173E-09

      iter #   7 total cpu time :   564.0 secs   av.it.:   5.7
      thresh= 3.424E-06 alpha_mix =  0.700 |ddv_scf|^2 =  4.773E-10

      iter #   8 total cpu time :   572.5 secs   av.it.:   6.7
      thresh= 2.185E-06 alpha_mix =  0.700 |ddv_scf|^2 =  3.242E-11

      iter #   9 total cpu time :   581.3 secs   av.it.:   6.9
      thresh= 5.694E-07 alpha_mix =  0.700 |ddv_scf|^2 =  1.073E-11

      iter #  10 total cpu time :   590.1 secs   av.it.:   6.9
      thresh= 3.276E-07 alpha_mix =  0.700 |ddv_scf|^2 =  4.214E-14

     End of self-consistent calculation

     Convergence has been achieved 


     Representation #  2 mode #   2

     Self-consistent Calculation

      iter #   1 total cpu time :   599.2 secs   av.it.:   5.7
      thresh= 1.000E-02 alpha_mix =  0.700 |ddv_scf|^2 =  1.181E-02

      iter #   2 total cpu time :   607.4 secs   av.it.:   6.2
      thresh= 1.000E-02 alpha_mix =  0.700 |ddv_scf|^2 =  4.474E-01

      iter #   3 total cpu time :   615.5 secs   av.it.:   6.1
      thresh= 1.000E-02 alpha_mix =  0.700 |ddv_scf|^2 =  6.275E-06

      iter #   4 total cpu time :   624.6 secs   av.it.:   7.3
      thresh= 2.505E-04 alpha_mix =  0.700 |ddv_scf|^2 =  6.716E-08

      iter #   5 total cpu time :   634.8 secs   av.it.:   7.6
      thresh= 2.592E-05 alpha_mix =  0.700 |ddv_scf|^2 =  4.069E-09

      iter #   6 total cpu time :   644.2 secs   av.it.:   7.6
      thresh= 6.379E-06 alpha_mix =  0.700 |ddv_scf|^2 =  1.232E-10

      iter #   7 total cpu time :   653.7 secs   av.it.:   7.7
      thresh= 1.110E-06 alpha_mix =  0.700 |ddv_scf|^2 =  1.554E-09

      iter #   8 total cpu time :   660.6 secs   av.it.:   4.9
      thresh= 3.942E-06 alpha_mix =  0.700 |ddv_scf|^2 =  5.331E-12

      iter #   9 total cpu time :   669.2 secs   av.it.:   6.8
      thresh= 2.309E-07 alpha_mix =  0.700 |ddv_scf|^2 =  7.830E-14

     End of self-consistent calculation

     Convergence has been achieved 


     Representation #  3 mode #   3

     Self-consistent Calculation

      iter #   1 total cpu time :   678.0 secs   av.it.:   5.5
      thresh= 1.000E-02 alpha_mix =  0.700 |ddv_scf|^2 =  2.536E-05

      iter #   2 total cpu time :   687.3 secs   av.it.:   7.4
      thresh= 5.036E-04 alpha_mix =  0.700 |ddv_scf|^2 =  4.186E-07

      iter #   3 total cpu time :   696.8 secs   av.it.:   7.6
      thresh= 6.470E-05 alpha_mix =  0.700 |ddv_scf|^2 =  1.026E-08

      iter #   4 total cpu time :   706.1 secs   av.it.:   7.4
      thresh= 1.013E-05 alpha_mix =  0.700 |ddv_scf|^2 =  5.067E-11

      iter #   5 total cpu time :   715.5 secs   av.it.:   7.5
      thresh= 7.118E-07 alpha_mix =  0.700 |ddv_scf|^2 =  6.661E-14

     End of self-consistent calculation

     Convergence has been achieved 

     Number of q in the star =   24
     List of q in the star:
          1  -0.125000000  -0.125000000   0.250000000
          2  -0.125000000  -0.250000000   0.125000000
          3   0.125000000  -0.250000000   0.125000000
          4  -0.125000000   0.125000000  -0.250000000
          5  -0.125000000   0.250000000  -0.125000000
          6   0.125000000   0.125000000  -0.250000000
          7   0.125000000   0.250000000  -0.125000000
          8   0.125000000  -0.250000000  -0.125000000
          9  -0.250000000   0.125000000  -0.125000000
         10   0.250000000   0.125000000   0.125000000
         11   0.125000000   0.125000000   0.250000000
         12  -0.250000000  -0.125000000   0.125000000
         13   0.250000000  -0.125000000  -0.125000000
         14   0.125000000  -0.125000000  -0.250000000
         15   0.125000000  -0.125000000   0.250000000
         16   0.125000000   0.250000000   0.125000000
         17  -0.125000000  -0.125000000  -0.250000000
         18  -0.125000000   0.125000000   0.250000000
         19  -0.125000000   0.250000000   0.125000000
         20  -0.125000000  -0.250000000  -0.125000000
         21   0.250000000   0.125000000  -0.125000000
         22  -0.250000000   0.125000000   0.125000000
         23   0.250000000  -0.125000000   0.125000000
         24  -0.250000000  -0.125000000  -0.125000000

     Diagonalizing the dynamical matrix

     q = (   -0.125000000  -0.125000000   0.250000000 ) 

 **************************************************************************
     freq (    1) =       1.872612 [THz] =      62.463618 [cm-1]
     freq (    2) =       2.236016 [THz] =      74.585478 [cm-1]
     freq (    3) =       4.182695 [THz] =     139.519683 [cm-1]
 **************************************************************************

     Mode symmetry, C_s (m)     point group:

     freq (  1 -  1) =         62.5  [cm-1]   --> A'                 
     freq (  2 -  2) =         74.6  [cm-1]   --> A''                
     freq (  3 -  3) =        139.5  [cm-1]   --> A'                 

     Calculation of q =   -0.1250000  -0.2500000   0.3750000

   Info: using nr1, nr2, nr3 values from input

   Info: using nr1, nr2, nr3 values from input

     Parallelization info
     --------------------
     sticks:   dense  smooth     PW     G-vecs:    dense   smooth      PW
     Min         217     109     39                 4073     1443     312
     Max         218     110     40                 4074     1444     314
     Sum         871     437    159                16295     5775    1253



     bravais-lattice index     =            3
     lattice parameter (alat)  =       6.9546  a.u.
     unit-cell volume          =     168.1818 (a.u.)^3
     number of atoms/cell      =            1
     number of atomic types    =            1
     number of electrons       =         9.00
     number of Kohn-Sham states=            9
     kinetic-energy cutoff     =      40.0000  Ry
     charge density cutoff     =     320.0000  Ry
     Exchange-correlation      = SLA  PW   PBE  PBE ( 1  4  3  4 0 0)

     celldm(1)=   6.954561  celldm(2)=   0.000000  celldm(3)=   0.000000
     celldm(4)=   0.000000  celldm(5)=   0.000000  celldm(6)=   0.000000

     crystal axes: (cart. coord. in units of alat)
               a(1) = (   0.500000   0.500000   0.500000 )  
               a(2) = (  -0.500000   0.500000   0.500000 )  
               a(3) = (  -0.500000  -0.500000   0.500000 )  

     reciprocal axes: (cart. coord. in units 2 pi/alat)
               b(1) = (  1.000000  0.000000  1.000000 )  
               b(2) = ( -1.000000  1.000000  0.000000 )  
               b(3) = (  0.000000 -1.000000  1.000000 )  


     PseudoPot. # 1 for Na read from file:
     /home/s1333534/quantum_espresso/qe-6.1/pseudo/Na_pbe_v1.uspp.F.UPF
     MD5 check sum: 76a99c7e9422403d3e93cbc85ab7bccb
     Pseudo is Ultrasoft, Zval =  9.0
     Generated by new atomic code, or converted to UPF format
     Using radial grid of  819 points,  5 beta functions with: 
                l(1) =   0
                l(2) =   0
                l(3) =   1
                l(4) =   1
                l(5) =   2
     Q(r) pseudized with  8 coefficients,  rinner =    1.250   1.250   1.250
                                                       1.250   1.250

     atomic species   valence    mass     pseudopotential
        Na             9.00    22.99000     Na( 1.00)

     48 Sym. Ops., with inversion, found



   Cartesian axes

     site n.     atom                  positions (alat units)
         1           Na  tau(   1) = (   0.0000000   0.0000000   0.0000000  )

     number of k points=  5488  Marzari-Vanderbilt smearing, width (Ry)=  0.0200

     Number of k-points >= 100: set verbosity='high' to print them.

     Dense  grid:    16295 G-vectors     FFT dimensions: (  36,  36,  36)

     Smooth grid:     5775 G-vectors     FFT dimensions: (  25,  25,  25)

     Estimated max dynamical RAM per process >       1.56MB

     Estimated total allocated dynamical RAM >       6.26MB

     The potential is recalculated from file :
     ./_ph0/na.bcc.save/charge-density.dat

     Starting wfc are    5 atomic +    4 random wfc

     Band Structure Calculation
     Davidson diagonalization with overlap

     ethr =  1.11E-10,  avg # of iterations = 18.3

     total cpu time spent up to now is      267.6 secs

     End of band structure calculation

     Number of k-points >= 100: set verbosity='high' to print the bands.

     the Fermi energy is     3.6857 ev

     Writing output data file na.bcc.save

                                                                                

     bravais-lattice index     =            3
     lattice parameter (alat)  =       6.9546  a.u.
     unit-cell volume          =     168.1818 (a.u.)^3
     number of atoms/cell      =            1
     number of atomic types    =            1
     kinetic-energy cut-off    =      40.0000  Ry
     charge density cut-off    =     320.0000  Ry
     convergence threshold     =      1.0E-12
     beta                      =       0.7000
     number of iterations used =            4
     Exchange-correlation      = SLA  PW   PBE  PBE ( 1  4  3  4 0 0)


     celldm(1)=    6.95456  celldm(2)=    0.00000  celldm(3)=    0.00000
     celldm(4)=    0.00000  celldm(5)=    0.00000  celldm(6)=    0.00000

     crystal axes: (cart. coord. in units of alat)
               a(1) = (  0.5000  0.5000  0.5000 )  
               a(2) = ( -0.5000  0.5000  0.5000 )  
               a(3) = ( -0.5000 -0.5000  0.5000 )  

     reciprocal axes: (cart. coord. in units 2 pi/alat)
               b(1) = (  1.0000  0.0000  1.0000 )  
               b(2) = ( -1.0000  1.0000  0.0000 )  
               b(3) = (  0.0000 -1.0000  1.0000 )  


     Atoms inside the unit cell: 

     Cartesian axes

     site n.  atom      mass           positions (alat units)
        1     Na  22.9900   tau(    1) = (    0.00000    0.00000    0.00000  )

     Computing dynamical matrix for 
                    q = (  -0.1250000  -0.2500000   0.3750000 )

     No symmetry!

     G cutoff =  392.0393  (   4074 G-vectors)     FFT grid: ( 36, 36, 36)
     G cutoff =  196.0197  (   1444 G-vectors)  smooth grid: ( 25, 25, 25)

     number of k points=  5488  Marzari-Vanderbilt smearing, width (Ry)=  0.0200

     PseudoPot. # 1 for Na read from file:
     /home/s1333534/quantum_espresso/qe-6.1/pseudo/Na_pbe_v1.uspp.F.UPF
     MD5 check sum: 76a99c7e9422403d3e93cbc85ab7bccb
     Pseudo is Ultrasoft, Zval =  9.0
     Generated by new atomic code, or converted to UPF format
     Using radial grid of  819 points,  5 beta functions with: 
                l(1) =   0
                l(2) =   0
                l(3) =   1
                l(4) =   1
                l(5) =   2
     Q(r) pseudized with  8 coefficients,  rinner =    1.250   1.250   1.250
                                                       1.250   1.250

     Mode symmetry, C_1 (1)     point group:


     Atomic displacements:
     There are   3 irreducible representations

     Representation     1      1 modes -A  To be done

     Representation     2      1 modes -A  To be done

     Representation     3      1 modes -A  To be done



     Alpha used in Ewald sum =   2.8000
     PHONON       : 12m39.10s CPU    13m49.78s WALL



     Representation #  1 mode #   1

     Self-consistent Calculation

      iter #   1 total cpu time :   846.3 secs   av.it.:   5.7
      thresh= 1.000E-02 alpha_mix =  0.700 |ddv_scf|^2 =  3.973E-05

      iter #   2 total cpu time :   864.6 secs   av.it.:   7.7
      thresh= 6.303E-04 alpha_mix =  0.700 |ddv_scf|^2 =  7.237E-05

      iter #   3 total cpu time :   880.2 secs   av.it.:   6.1
      thresh= 8.507E-04 alpha_mix =  0.700 |ddv_scf|^2 =  5.993E-06

      iter #   4 total cpu time :   897.1 secs   av.it.:   7.2
      thresh= 2.448E-04 alpha_mix =  0.700 |ddv_scf|^2 =  6.532E-09

      iter #   5 total cpu time :   915.2 secs   av.it.:   7.8
      thresh= 8.082E-06 alpha_mix =  0.700 |ddv_scf|^2 =  2.053E-10

      iter #   6 total cpu time :   933.4 secs   av.it.:   7.9
      thresh= 1.433E-06 alpha_mix =  0.700 |ddv_scf|^2 =  9.687E-12

      iter #   7 total cpu time :   952.2 secs   av.it.:   8.1
      thresh= 3.112E-07 alpha_mix =  0.700 |ddv_scf|^2 =  9.703E-13

     End of self-consistent calculation

     Convergence has been achieved 


     Representation #  2 mode #   2

     Self-consistent Calculation

      iter #   1 total cpu time :   969.5 secs   av.it.:   5.8
      thresh= 1.000E-02 alpha_mix =  0.700 |ddv_scf|^2 =  5.765E-04

      iter #   2 total cpu time :   986.6 secs   av.it.:   7.0
      thresh= 2.401E-03 alpha_mix =  0.700 |ddv_scf|^2 =  2.760E-03

      iter #   3 total cpu time :  1001.1 secs   av.it.:   5.8
      thresh= 5.254E-03 alpha_mix =  0.700 |ddv_scf|^2 =  4.827E-07

      iter #   4 total cpu time :  1019.5 secs   av.it.:   7.8
      thresh= 6.948E-05 alpha_mix =  0.700 |ddv_scf|^2 =  9.395E-09

      iter #   5 total cpu time :  1038.4 secs   av.it.:   8.1
      thresh= 9.693E-06 alpha_mix =  0.700 |ddv_scf|^2 =  1.203E-09

      iter #   6 total cpu time :  1056.6 secs   av.it.:   7.9
      thresh= 3.469E-06 alpha_mix =  0.700 |ddv_scf|^2 =  2.245E-11

      iter #   7 total cpu time :  1074.9 secs   av.it.:   7.8
      thresh= 4.739E-07 alpha_mix =  0.700 |ddv_scf|^2 =  1.883E-12

      iter #   8 total cpu time :  1092.8 secs   av.it.:   7.7
      thresh= 1.372E-07 alpha_mix =  0.700 |ddv_scf|^2 =  9.083E-13

     End of self-consistent calculation

     Convergence has been achieved 


     Representation #  3 mode #   3

     Self-consistent Calculation

      iter #   1 total cpu time :  1110.3 secs   av.it.:   5.8
      thresh= 1.000E-02 alpha_mix =  0.700 |ddv_scf|^2 =  5.587E-04

      iter #   2 total cpu time :  1127.0 secs   av.it.:   7.0
      thresh= 2.364E-03 alpha_mix =  0.700 |ddv_scf|^2 =  2.642E-03

      iter #   3 total cpu time :  1142.6 secs   av.it.:   5.8
      thresh= 5.140E-03 alpha_mix =  0.700 |ddv_scf|^2 =  3.481E-07

      iter #   4 total cpu time :  1160.9 secs   av.it.:   7.9
      thresh= 5.900E-05 alpha_mix =  0.700 |ddv_scf|^2 =  1.192E-08

      iter #   5 total cpu time :  1179.7 secs   av.it.:   8.1
      thresh= 1.092E-05 alpha_mix =  0.700 |ddv_scf|^2 =  8.088E-10

      iter #   6 total cpu time :  1198.1 secs   av.it.:   8.0
      thresh= 2.844E-06 alpha_mix =  0.700 |ddv_scf|^2 =  2.848E-11

      iter #   7 total cpu time :  1216.0 secs   av.it.:   7.7
      thresh= 5.337E-07 alpha_mix =  0.700 |ddv_scf|^2 =  1.394E-12

      iter #   8 total cpu time :  1233.3 secs   av.it.:   7.4
      thresh= 1.181E-07 alpha_mix =  0.700 |ddv_scf|^2 =  1.158E-12

      iter #   9 total cpu time :  1249.2 secs   av.it.:   6.6
      thresh= 1.076E-07 alpha_mix =  0.700 |ddv_scf|^2 =  2.261E-13

     End of self-consistent calculation

     Convergence has been achieved 

     Number of q in the star =   48
     List of q in the star:
          1  -0.125000000  -0.250000000   0.375000000
          2  -0.250000000  -0.125000000   0.375000000
          3  -0.125000000  -0.375000000   0.250000000
          4   0.125000000  -0.375000000   0.250000000
          5  -0.125000000   0.250000000  -0.375000000
          6  -0.125000000   0.375000000  -0.250000000
          7   0.125000000   0.250000000  -0.375000000
          8   0.125000000   0.375000000  -0.250000000
          9   0.250000000  -0.375000000  -0.125000000
         10  -0.375000000   0.125000000  -0.250000000
         11   0.375000000   0.125000000   0.250000000
         12   0.250000000   0.125000000   0.375000000
         13  -0.375000000  -0.125000000   0.250000000
         14   0.375000000  -0.125000000  -0.250000000
         15   0.125000000  -0.250000000  -0.375000000
         16   0.250000000  -0.125000000  -0.375000000
         17  -0.250000000   0.125000000  -0.375000000
         18  -0.375000000  -0.250000000   0.125000000
         19  -0.375000000   0.250000000  -0.125000000
         20   0.375000000   0.250000000   0.125000000
         21   0.250000000  -0.125000000   0.375000000
         22  -0.250000000   0.375000000  -0.125000000
         23   0.125000000  -0.375000000  -0.250000000
         24   0.125000000   0.375000000   0.250000000
         25   0.250000000   0.125000000  -0.375000000
         26  -0.125000000  -0.250000000  -0.375000000
         27  -0.250000000   0.125000000   0.375000000
         28  -0.125000000   0.375000000   0.250000000
         29  -0.125000000   0.250000000   0.375000000
         30   0.125000000  -0.250000000   0.375000000
         31  -0.125000000  -0.375000000  -0.250000000
         32   0.125000000   0.250000000   0.375000000
         33   0.375000000  -0.250000000  -0.125000000
         34   0.250000000   0.375000000   0.125000000
         35  -0.250000000  -0.375000000   0.125000000
         36   0.375000000   0.250000000  -0.125000000
         37  -0.375000000   0.250000000   0.125000000
         38   0.375000000  -0.250000000   0.125000000
         39  -0.375000000  -0.250000000  -0.125000000
         40  -0.250000000  -0.125000000  -0.375000000
         41   0.250000000  -0.375000000   0.125000000
         42  -0.250000000  -0.375000000  -0.125000000
         43   0.250000000   0.375000000  -0.125000000
         44  -0.250000000   0.375000000   0.125000000
         45  -0.375000000   0.125000000   0.250000000
         46  -0.375000000  -0.125000000  -0.250000000
         47   0.375000000  -0.125000000   0.250000000
         48   0.375000000   0.125000000  -0.250000000

     Diagonalizing the dynamical matrix

     q = (   -0.125000000  -0.250000000   0.375000000 ) 

 **************************************************************************
     freq (    1) =       2.371453 [THz] =      79.103168 [cm-1]
     freq (    2) =       3.325122 [THz] =     110.914120 [cm-1]
     freq (    3) =       5.502267 [THz] =     183.535870 [cm-1]
 **************************************************************************

     Mode symmetry, C_1 (1)     point group:

     freq (  1 -  1) =         79.1  [cm-1]   --> A                  
     freq (  2 -  2) =        110.9  [cm-1]   --> A                  
     freq (  3 -  3) =        183.5  [cm-1]   --> A                  

     Calculation of q =   -0.1250000   0.6250000  -0.5000000

   Info: using nr1, nr2, nr3 values from input

   Info: using nr1, nr2, nr3 values from input

     Parallelization info
     --------------------
     sticks:   dense  smooth     PW     G-vecs:    dense   smooth      PW
     Min         217     109     43                 4073     1443     358
     Max         218     110     44                 4074     1444     359
     Sum         871     437    173                16295     5775    1433



     bravais-lattice index     =            3
     lattice parameter (alat)  =       6.9546  a.u.
     unit-cell volume          =     168.1818 (a.u.)^3
     number of atoms/cell      =            1
     number of atomic types    =            1
     number of electrons       =         9.00
     number of Kohn-Sham states=            9
     kinetic-energy cutoff     =      40.0000  Ry
     charge density cutoff     =     320.0000  Ry
     Exchange-correlation      = SLA  PW   PBE  PBE ( 1  4  3  4 0 0)

     celldm(1)=   6.954561  celldm(2)=   0.000000  celldm(3)=   0.000000
     celldm(4)=   0.000000  celldm(5)=   0.000000  celldm(6)=   0.000000

     crystal axes: (cart. coord. in units of alat)
               a(1) = (   0.500000   0.500000   0.500000 )  
               a(2) = (  -0.500000   0.500000   0.500000 )  
               a(3) = (  -0.500000  -0.500000   0.500000 )  

     reciprocal axes: (cart. coord. in units 2 pi/alat)
               b(1) = (  1.000000  0.000000  1.000000 )  
               b(2) = ( -1.000000  1.000000  0.000000 )  
               b(3) = (  0.000000 -1.000000  1.000000 )  


     PseudoPot. # 1 for Na read from file:
     /home/s1333534/quantum_espresso/qe-6.1/pseudo/Na_pbe_v1.uspp.F.UPF
     MD5 check sum: 76a99c7e9422403d3e93cbc85ab7bccb
     Pseudo is Ultrasoft, Zval =  9.0
     Generated by new atomic code, or converted to UPF format
     Using radial grid of  819 points,  5 beta functions with: 
                l(1) =   0
                l(2) =   0
                l(3) =   1
                l(4) =   1
                l(5) =   2
     Q(r) pseudized with  8 coefficients,  rinner =    1.250   1.250   1.250
                                                       1.250   1.250

     atomic species   valence    mass     pseudopotential
        Na             9.00    22.99000     Na( 1.00)

     48 Sym. Ops., with inversion, found



   Cartesian axes

     site n.     atom                  positions (alat units)
         1           Na  tau(   1) = (   0.0000000   0.0000000   0.0000000  )

     number of k points=  5488  Marzari-Vanderbilt smearing, width (Ry)=  0.0200

     Number of k-points >= 100: set verbosity='high' to print them.

     Dense  grid:    16295 G-vectors     FFT dimensions: (  36,  36,  36)

     Smooth grid:     5775 G-vectors     FFT dimensions: (  25,  25,  25)

     Estimated max dynamical RAM per process >       1.56MB

     Estimated total allocated dynamical RAM >       6.26MB

     The potential is recalculated from file :
     ./_ph0/na.bcc.save/charge-density.dat

     Starting wfc are    5 atomic +    4 random wfc

     Band Structure Calculation
     Davidson diagonalization with overlap

     ethr =  1.11E-10,  avg # of iterations = 18.3

     total cpu time spent up to now is      375.8 secs

     End of band structure calculation

     Number of k-points >= 100: set verbosity='high' to print the bands.

     the Fermi energy is     3.6857 ev

     Writing output data file na.bcc.save

                                                                                

     bravais-lattice index     =            3
     lattice parameter (alat)  =       6.9546  a.u.
     unit-cell volume          =     168.1818 (a.u.)^3
     number of atoms/cell      =            1
     number of atomic types    =            1
     kinetic-energy cut-off    =      40.0000  Ry
     charge density cut-off    =     320.0000  Ry
     convergence threshold     =      1.0E-12
     beta                      =       0.7000
     number of iterations used =            4
     Exchange-correlation      = SLA  PW   PBE  PBE ( 1  4  3  4 0 0)


     celldm(1)=    6.95456  celldm(2)=    0.00000  celldm(3)=    0.00000
     celldm(4)=    0.00000  celldm(5)=    0.00000  celldm(6)=    0.00000

     crystal axes: (cart. coord. in units of alat)
               a(1) = (  0.5000  0.5000  0.5000 )  
               a(2) = ( -0.5000  0.5000  0.5000 )  
               a(3) = ( -0.5000 -0.5000  0.5000 )  

     reciprocal axes: (cart. coord. in units 2 pi/alat)
               b(1) = (  1.0000  0.0000  1.0000 )  
[...]
     celldm(4)=    0.00000  celldm(5)=    0.00000  celldm(6)=    0.00000

     crystal axes: (cart. coord. in units of alat)
               a(1) = (  0.5000  0.5000  0.5000 )  
               a(2) = ( -0.5000  0.5000  0.5000 )  
               a(3) = ( -0.5000 -0.5000  0.5000 )  

     reciprocal axes: (cart. coord. in units 2 pi/alat)
               b(1) = (  1.0000  0.0000  1.0000 )  
               b(2) = ( -1.0000  1.0000  0.0000 )  
               b(3) = (  0.0000 -1.0000  1.0000 )  


     Atoms inside the unit cell: 

     Cartesian axes

     site n.  atom      mass           positions (alat units)
        1     Na  22.9900   tau(    1) = (    0.00000    0.00000    0.00000  )

     Computing dynamical matrix for 
                    q = (   0.0000000   0.8750000  -0.1250000 )

      4 Sym.Ops. (no q -> -q+G )


     G cutoff =  392.0393  (   4074 G-vectors)     FFT grid: ( 36, 36, 36)
     G cutoff =  196.0197  (   1444 G-vectors)  smooth grid: ( 25, 25, 25)

     number of k points=  1568  Marzari-Vanderbilt smearing, width (Ry)=  0.0200

     PseudoPot. # 1 for Na read from file:
     /home/s1333534/quantum_espresso/qe-6.1/pseudo/Na_pbe_v1.uspp.F.UPF
     MD5 check sum: 76a99c7e9422403d3e93cbc85ab7bccb
     Pseudo is Ultrasoft, Zval =  9.0
     Generated by new atomic code, or converted to UPF format
     Using radial grid of  819 points,  5 beta functions with: 
                l(1) =   0
                l(2) =   0
                l(3) =   1
                l(4) =   1
                l(5) =   2
     Q(r) pseudized with  8 coefficients,  rinner =    1.250   1.250   1.250
                                                       1.250   1.250

     Mode symmetry, C_2v (mm2)  point group:


     Atomic displacements:
     There are   3 irreducible representations

     Representation     1      1 modes -A_1  D_1  S_1  To be done

     Representation     2      1 modes -B_1  D_3  S_3  To be done

     Representation     3      1 modes -B_2  D_4  S_4  To be done



     Alpha used in Ewald sum =   2.8000
     PHONON       :     1h21m CPU        1h29m WALL



     Representation #  1 mode #   1

     Self-consistent Calculation

      iter #   1 total cpu time :  5388.4 secs   av.it.:   5.7
      thresh= 1.000E-02 alpha_mix =  0.700 |ddv_scf|^2 =  4.693E-05

      iter #   2 total cpu time :  5393.5 secs   av.it.:   7.5
      thresh= 6.850E-04 alpha_mix =  0.700 |ddv_scf|^2 =  1.214E-06

      iter #   3 total cpu time :  5398.7 secs   av.it.:   7.6
      thresh= 1.102E-04 alpha_mix =  0.700 |ddv_scf|^2 =  4.072E-08

      iter #   4 total cpu time :  5404.0 secs   av.it.:   7.9
      thresh= 2.018E-05 alpha_mix =  0.700 |ddv_scf|^2 =  2.277E-09

      iter #   5 total cpu time :  5409.3 secs   av.it.:   7.9
      thresh= 4.772E-06 alpha_mix =  0.700 |ddv_scf|^2 =  1.783E-10

      iter #   6 total cpu time :  5414.4 secs   av.it.:   7.6
      thresh= 1.335E-06 alpha_mix =  0.700 |ddv_scf|^2 =  1.051E-12

      iter #   7 total cpu time :  5420.5 secs   av.it.:   7.7
      thresh= 1.025E-07 alpha_mix =  0.700 |ddv_scf|^2 =  4.842E-14

     End of self-consistent calculation

     Convergence has been achieved 


     Representation #  2 mode #   2

     Self-consistent Calculation

      iter #   1 total cpu time :  5425.4 secs   av.it.:   5.5
      thresh= 1.000E-02 alpha_mix =  0.700 |ddv_scf|^2 =  4.241E-05

      iter #   2 total cpu time :  5430.4 secs   av.it.:   7.3
      thresh= 6.513E-04 alpha_mix =  0.700 |ddv_scf|^2 =  4.201E-07

      iter #   3 total cpu time :  5435.4 secs   av.it.:   7.3
      thresh= 6.482E-05 alpha_mix =  0.700 |ddv_scf|^2 =  3.830E-08

      iter #   4 total cpu time :  5440.4 secs   av.it.:   7.4
      thresh= 1.957E-05 alpha_mix =  0.700 |ddv_scf|^2 =  1.735E-10

      iter #   5 total cpu time :  5445.5 secs   av.it.:   7.3
      thresh= 1.317E-06 alpha_mix =  0.700 |ddv_scf|^2 =  6.133E-14

     End of self-consistent calculation

     Convergence has been achieved 


     Representation #  3 mode #   3

     Self-consistent Calculation

      iter #   1 total cpu time :  5450.4 secs   av.it.:   5.6
      thresh= 1.000E-02 alpha_mix =  0.700 |ddv_scf|^2 =  5.910E-05

      iter #   2 total cpu time :  5455.4 secs   av.it.:   7.3
      thresh= 7.688E-04 alpha_mix =  0.700 |ddv_scf|^2 =  2.180E-06

      iter #   3 total cpu time :  5460.9 secs   av.it.:   7.2
      thresh= 1.476E-04 alpha_mix =  0.700 |ddv_scf|^2 =  4.962E-08

      iter #   4 total cpu time :  5466.0 secs   av.it.:   7.5
      thresh= 2.228E-05 alpha_mix =  0.700 |ddv_scf|^2 =  1.644E-09

      iter #   5 total cpu time :  5470.9 secs   av.it.:   7.2
      thresh= 4.055E-06 alpha_mix =  0.700 |ddv_scf|^2 =  5.008E-12

      iter #   6 total cpu time :  5476.1 secs   av.it.:   7.6
      thresh= 2.238E-07 alpha_mix =  0.700 |ddv_scf|^2 =  5.714E-15

     End of self-consistent calculation

     Convergence has been achieved 

     Number of q in the star =   12
     List of q in the star:
          1   0.000000000   0.875000000  -0.125000000
          2   0.000000000  -0.875000000  -0.125000000
          3   0.875000000   0.000000000  -0.125000000
          4  -0.875000000   0.000000000  -0.125000000
          5   0.125000000   0.000000000  -0.875000000
          6   0.125000000   0.875000000   0.000000000
          7   0.000000000   0.875000000   0.125000000
          8   0.875000000   0.000000000   0.125000000
          9   0.125000000  -0.875000000   0.000000000
         10  -0.125000000  -0.875000000   0.000000000
         11   0.875000000  -0.125000000   0.000000000
         12   0.000000000  -0.875000000   0.125000000

     Diagonalizing the dynamical matrix

     q = (    0.000000000   0.875000000  -0.125000000 ) 

 **************************************************************************
     freq (    1) =       5.156388 [THz] =     171.998596 [cm-1]
     freq (    2) =       5.252811 [THz] =     175.214922 [cm-1]
     freq (    3) =       5.720046 [THz] =     190.800194 [cm-1]
 **************************************************************************

     Mode symmetry, C_2v (mm2)  point group:

     freq (  1 -  1) =        172.0  [cm-1]   --> A_1  D_1  S_1      
     freq (  2 -  2) =        175.2  [cm-1]   --> B_1  D_3  S_3      
     freq (  3 -  3) =        190.8  [cm-1]   --> B_2  D_4  S_4      

     Calculation of q =    0.0000000   0.0000000  -1.0000000

   Info: using nr1, nr2, nr3 values from input

   Info: using nr1, nr2, nr3 values from input

     Parallelization info
     --------------------
     sticks:   dense  smooth     PW     G-vecs:    dense   smooth      PW
     Min         217     109     42                 4073     1443     352
     Max         219     110     43                 4074     1444     353
     Sum         871     437    169                16295     5775    1409



     bravais-lattice index     =            3
     lattice parameter (alat)  =       6.9546  a.u.
     unit-cell volume          =     168.1818 (a.u.)^3
     number of atoms/cell      =            1
     number of atomic types    =            1
     number of electrons       =         9.00
     number of Kohn-Sham states=            9
     kinetic-energy cutoff     =      40.0000  Ry
     charge density cutoff     =     320.0000  Ry
     Exchange-correlation      = SLA  PW   PBE  PBE ( 1  4  3  4 0 0)

     celldm(1)=   6.954561  celldm(2)=   0.000000  celldm(3)=   0.000000
     celldm(4)=   0.000000  celldm(5)=   0.000000  celldm(6)=   0.000000

     crystal axes: (cart. coord. in units of alat)
               a(1) = (   0.500000   0.500000   0.500000 )  
               a(2) = (  -0.500000   0.500000   0.500000 )  
               a(3) = (  -0.500000  -0.500000   0.500000 )  

     reciprocal axes: (cart. coord. in units 2 pi/alat)
               b(1) = (  1.000000  0.000000  1.000000 )  
               b(2) = ( -1.000000  1.000000  0.000000 )  
               b(3) = (  0.000000 -1.000000  1.000000 )  


     PseudoPot. # 1 for Na read from file:
     /home/s1333534/quantum_espresso/qe-6.1/pseudo/Na_pbe_v1.uspp.F.UPF
     MD5 check sum: 76a99c7e9422403d3e93cbc85ab7bccb
     Pseudo is Ultrasoft, Zval =  9.0
     Generated by new atomic code, or converted to UPF format
     Using radial grid of  819 points,  5 beta functions with: 
                l(1) =   0
                l(2) =   0
                l(3) =   1
                l(4) =   1
                l(5) =   2
     Q(r) pseudized with  8 coefficients,  rinner =    1.250   1.250   1.250
                                                       1.250   1.250

     atomic species   valence    mass     pseudopotential
        Na             9.00    22.99000     Na( 1.00)

     48 Sym. Ops., with inversion, found



   Cartesian axes

     site n.     atom                  positions (alat units)
         1           Na  tau(   1) = (   0.0000000   0.0000000   0.0000000  )

     number of k points=   200  Marzari-Vanderbilt smearing, width (Ry)=  0.0200

     Number of k-points >= 100: set verbosity='high' to print them.

     Dense  grid:    16295 G-vectors     FFT dimensions: (  36,  36,  36)

     Smooth grid:     5775 G-vectors     FFT dimensions: (  25,  25,  25)

     Estimated max dynamical RAM per process >       1.56MB

     Estimated total allocated dynamical RAM >       6.26MB

     The potential is recalculated from file :
     ./_ph0/na.bcc.save/charge-density.dat

     Starting wfc are    5 atomic +    4 random wfc

     Band Structure Calculation
     Davidson diagonalization with overlap

     ethr =  1.11E-10,  avg # of iterations = 18.8

     total cpu time spent up to now is     1239.1 secs

     End of band structure calculation

     Number of k-points >= 100: set verbosity='high' to print the bands.

     the Fermi energy is     3.6857 ev

     Writing output data file na.bcc.save

                                                                                

     bravais-lattice index     =            3
     lattice parameter (alat)  =       6.9546  a.u.
     unit-cell volume          =     168.1818 (a.u.)^3
     number of atoms/cell      =            1
     number of atomic types    =            1
     kinetic-energy cut-off    =      40.0000  Ry
     charge density cut-off    =     320.0000  Ry
     convergence threshold     =      1.0E-12
     beta                      =       0.7000
     number of iterations used =            4
     Exchange-correlation      = SLA  PW   PBE  PBE ( 1  4  3  4 0 0)


     celldm(1)=    6.95456  celldm(2)=    0.00000  celldm(3)=    0.00000
     celldm(4)=    0.00000  celldm(5)=    0.00000  celldm(6)=    0.00000

     crystal axes: (cart. coord. in units of alat)
               a(1) = (  0.5000  0.5000  0.5000 )  
               a(2) = ( -0.5000  0.5000  0.5000 )  
               a(3) = ( -0.5000 -0.5000  0.5000 )  

     reciprocal axes: (cart. coord. in units 2 pi/alat)
               b(1) = (  1.0000  0.0000  1.0000 )  
               b(2) = ( -1.0000  1.0000  0.0000 )  
               b(3) = (  0.0000 -1.0000  1.0000 )  


     Atoms inside the unit cell: 

     Cartesian axes

     site n.  atom      mass           positions (alat units)
        1     Na  22.9900   tau(    1) = (    0.00000    0.00000    0.00000  )

     Computing dynamical matrix for 
                    q = (   0.0000000   0.0000000  -1.0000000 )

     49 Sym.Ops. (with q -> -q+G )


     G cutoff =  392.0393  (   4074 G-vectors)     FFT grid: ( 36, 36, 36)
     G cutoff =  196.0197  (   1444 G-vectors)  smooth grid: ( 25, 25, 25)

     number of k points=   200  Marzari-Vanderbilt smearing, width (Ry)=  0.0200

     PseudoPot. # 1 for Na read from file:
     /home/s1333534/quantum_espresso/qe-6.1/pseudo/Na_pbe_v1.uspp.F.UPF
     MD5 check sum: 76a99c7e9422403d3e93cbc85ab7bccb
     Pseudo is Ultrasoft, Zval =  9.0
     Generated by new atomic code, or converted to UPF format
     Using radial grid of  819 points,  5 beta functions with: 
                l(1) =   0
                l(2) =   0
                l(3) =   1
                l(4) =   1
                l(5) =   2
     Q(r) pseudized with  8 coefficients,  rinner =    1.250   1.250   1.250
                                                       1.250   1.250

     Mode symmetry, O_h (m-3m)  point group:


     Atomic displacements:
     There are   1 irreducible representations

     Representation     1      3 modes -T_1u G_15  G_4-  To be done



     Alpha used in Ewald sum =   2.8000
     PHONON       :     1h22m CPU        1h31m WALL



     Representation #  1 modes #   1  2  3

     Self-consistent Calculation

      iter #   1 total cpu time :  5482.9 secs   av.it.:   5.7
      thresh= 1.000E-02 alpha_mix =  0.700 |ddv_scf|^2 =  5.028E-06

      iter #   2 total cpu time :  5485.2 secs   av.it.:   8.3
      thresh= 2.242E-04 alpha_mix =  0.700 |ddv_scf|^2 =  5.290E-08

      iter #   3 total cpu time :  5487.6 secs   av.it.:   8.2
      thresh= 2.300E-05 alpha_mix =  0.700 |ddv_scf|^2 =  4.603E-09

      iter #   4 total cpu time :  5489.9 secs   av.it.:   8.3
      thresh= 6.785E-06 alpha_mix =  0.700 |ddv_scf|^2 =  2.025E-11

      iter #   5 total cpu time :  5492.2 secs   av.it.:   8.2
      thresh= 4.500E-07 alpha_mix =  0.700 |ddv_scf|^2 =  6.080E-15

     End of self-consistent calculation

     Convergence has been achieved 

     Number of q in the star =    1
     List of q in the star:
          1   0.000000000   0.000000000  -1.000000000

     Diagonalizing the dynamical matrix

     q = (    0.000000000   0.000000000  -1.000000000 ) 

 **************************************************************************
     freq (    1) =       5.471858 [THz] =     182.521523 [cm-1]
     freq (    2) =       5.471858 [THz] =     182.521523 [cm-1]
     freq (    3) =       5.471858 [THz] =     182.521523 [cm-1]
 **************************************************************************

     Mode symmetry, O_h (m-3m)  point group:

     freq (  1 -  3) =        182.5  [cm-1]   --> T_1u G_15  G_4-    

     init_run     :      4.57s CPU      4.61s WALL (      28 calls)
     electrons    :   1104.07s CPU   1189.33s WALL (      28 calls)

     Called by init_run:
     wfcinit      :      0.00s CPU      0.00s WALL (      28 calls)
     potinit      :      0.29s CPU      0.30s WALL (      28 calls)

     Called by electrons:
     c_bands      :   1103.78s CPU   1189.04s WALL (      28 calls)
     v_of_rho     :      0.23s CPU      0.23s WALL (      29 calls)
     newd         :      0.27s CPU      0.27s WALL (      29 calls)

     Called by c_bands:
     init_us_2    :     75.81s CPU     68.74s WALL (  908629 calls)
     cegterg      :   1015.62s CPU   1092.73s WALL (   75469 calls)

     Called by sum_band:

     Called by *egterg:
     h_psi        :   3223.16s CPU   3554.28s WALL ( 7487581 calls)
     s_psi        :    112.49s CPU    114.91s WALL (14320374 calls)
     g_psi        :      5.09s CPU      8.37s WALL ( 1159083 calls)
     cdiaghg      :    253.63s CPU    254.17s WALL ( 1222249 calls)

     Called by h_psi:
     h_psi:pot    :   3203.53s CPU   3530.02s WALL ( 7487581 calls)
     h_psi:calbec :     82.44s CPU     98.62s WALL ( 7487581 calls)
     vloc_psi     :   3049.98s CPU   3339.81s WALL ( 7487581 calls)
     add_vuspsi   :     56.31s CPU     69.59s WALL ( 7487581 calls)

     General routines
     calbec       :    177.50s CPU    191.39s WALL (15881811 calls)
     fft          :      2.15s CPU      2.28s WALL (    8977 calls)
     ffts         :      6.29s CPU      6.33s WALL (   97073 calls)
     fftw         :   3316.71s CPU   3575.21s WALL (72433857 calls)
     interpolate  :      0.34s CPU      0.42s WALL (    1245 calls)
     davcio       :     26.04s CPU     57.13s WALL ( 3440055 calls)

     Parallel routines
     fft_scatter  :    837.75s CPU    997.72s WALL (72539907 calls)

     PHONON       :     1h23m CPU        1h31m WALL

     INITIALIZATION: 
     phq_setup    :      0.77s CPU      0.78s WALL (      29 calls)
     phq_init     :     89.41s CPU     94.85s WALL (      29 calls)

     phq_init     :     89.41s CPU     94.85s WALL (      29 calls)
     init_vloc    :      0.07s CPU      0.07s WALL (      29 calls)
     init_us_1    :      2.62s CPU      2.64s WALL (      29 calls)
     newd         :      0.27s CPU      0.27s WALL (      29 calls)
     dvanqq       :      1.12s CPU      1.13s WALL (      29 calls)
     drho         :     70.49s CPU     75.09s WALL (      29 calls)

     DYNAMICAL MATRIX:
     dynmat0      :     10.97s CPU     11.35s WALL (      29 calls)
     phqscf       :   3737.41s CPU   4154.98s WALL (      29 calls)
     dynmatrix    :      0.03s CPU      0.03s WALL (      29 calls)

     phqscf       :   3737.41s CPU   4154.98s WALL (      29 calls)
     solve_linter :   3719.39s CPU   4136.03s WALL (      76 calls)
     drhodv       :     17.93s CPU     18.83s WALL (      76 calls)

     dynmat0      :     10.97s CPU     11.35s WALL (      29 calls)
     dynmat_us    :     10.93s CPU     11.31s WALL (      29 calls)
     d2ionq       :      0.02s CPU      0.02s WALL (      29 calls)

     dynmat_us    :     10.93s CPU     11.31s WALL (      29 calls)
     addusdynmat  :      0.00s CPU      0.00s WALL (      29 calls)

     phqscf       :   3737.41s CPU   4154.98s WALL (      29 calls)
     solve_linter :   3719.39s CPU   4136.03s WALL (      76 calls)

     solve_linter :   3719.39s CPU   4136.03s WALL (      76 calls)
     dvqpsi_us    :    110.28s CPU    120.71s WALL (   95049 calls)
     ortho        :     34.82s CPU     39.34s WALL (  642930 calls)
     cgsolve      :   2867.90s CPU   3165.83s WALL (  642930 calls)
     incdrhoscf   :    327.31s CPU    366.41s WALL (  642930 calls)
     addusddens   :      9.00s CPU      9.06s WALL (     571 calls)
     vpsifft      :    253.00s CPU    284.00s WALL (  547881 calls)
     dv_of_drho   :      2.44s CPU      2.53s WALL (     550 calls)
     mix_pot      :      0.34s CPU      1.12s WALL (     495 calls)
     ef_shift     :      0.01s CPU      0.01s WALL (       6 calls)
     localdos     :      0.05s CPU      0.06s WALL (       1 calls)
     psymdvscf    :      5.74s CPU      5.83s WALL (     427 calls)
     newdq        :      8.05s CPU      8.10s WALL (     495 calls)
     adddvscf     :     13.49s CPU     14.14s WALL (  547881 calls)
     drhodvus     :      0.02s CPU      0.02s WALL (      76 calls)

     dvqpsi_us    :    110.28s CPU    120.71s WALL (   95049 calls)
     dvqpsi_us_on :     20.40s CPU     20.38s WALL (   95049 calls)

     cgsolve      :   2867.90s CPU   3165.83s WALL (  642930 calls)
     ch_psi       :   2800.16s CPU   3095.95s WALL ( 6189863 calls)

     ch_psi       :   2800.16s CPU   3095.95s WALL ( 6189863 calls)
     h_psi        :   3223.16s CPU   3554.28s WALL ( 7487581 calls)
     last         :    199.98s CPU    222.74s WALL ( 6189863 calls)

     h_psi        :   3223.16s CPU   3554.28s WALL ( 7487581 calls)
     add_vuspsi   :     56.31s CPU     69.59s WALL ( 7487581 calls)

     incdrhoscf   :    327.31s CPU    366.41s WALL (  642930 calls)
     addusdbec    :     15.08s CPU     16.37s WALL (  737979 calls)

     drhodvus     :      0.02s CPU      0.02s WALL (      76 calls)

      General routines
     calbec       :    177.50s CPU    191.39s WALL (15881811 calls)
     fft          :      2.15s CPU      2.28s WALL (    8977 calls)
     ffts         :      6.29s CPU      6.33s WALL (   97073 calls)
     fftw         :   3316.71s CPU   3575.21s WALL (72433857 calls)
     davcio       :     26.04s CPU     57.13s WALL ( 3440055 calls)
     write_rec    :      0.42s CPU      0.57s WALL (     571 calls)


     PHONON       :     1h23m CPU        1h31m WALL


   This run was terminated on:  13:21:51  21Dec2017            

=------------------------------------------------------------------------------=
   JOB DONE.
=------------------------------------------------------------------------------=
