
     Program PWSCF v.6.1 (svn rev. 13369) starts on 20Dec2017 at 17: 1:30 

     This program is part of the open-source Quantum ESPRESSO suite
     for quantum simulation of materials; please cite
         "P. Giannozzi et al., J. Phys.:Condens. Matter 21 395502 (2009);
          URL http://www.quantum-espresso.org", 
     in publications or presentations arising from this work. More details at
     http://www.quantum-espresso.org/quote

     Parallel version (MPI), running on     4 processors
     R & G space division:  proc/nbgrp/npool/nimage =       4
     Waiting for input...
     Reading input from standard input

     Current dimensions of program PWSCF are:
     Max number of different atomic species (ntypx) = 10
     Max number of k-points (npk) =  40000
     Max angular momentum in pseudopotentials (lmaxx) =  3

     Subspace diagonalization in iterative solution of the eigenvalue problem:
     a serial algorithm will be used


     Parallelization info
     --------------------
     sticks:   dense  smooth     PW     G-vecs:    dense   smooth      PW
     Min         211     104     34                 3926     1370     263
     Max         212     105     35                 3928     1371     265
     Sum         845     419    137                15707     5481    1055



     bravais-lattice index     =            3
     lattice parameter (alat)  =       6.8901  a.u.
     unit-cell volume          =     163.5516 (a.u.)^3
     number of atoms/cell      =            1
     number of atomic types    =            1
     number of electrons       =         9.00
     number of Kohn-Sham states=            9
     kinetic-energy cutoff     =      40.0000  Ry
     charge density cutoff     =     320.0000  Ry
     convergence threshold     =      1.0E-08
     mixing beta               =       0.7000
     number of iterations used =            8  plain     mixing
     Exchange-correlation      = SLA  PW   PBE  PBE ( 1  4  3  4 0 0)
     nstep                     =           50


     celldm(1)=   6.890143  celldm(2)=   0.000000  celldm(3)=   0.000000
     celldm(4)=   0.000000  celldm(5)=   0.000000  celldm(6)=   0.000000

     crystal axes: (cart. coord. in units of alat)
               a(1) = (   0.500000   0.500000   0.500000 )  
               a(2) = (  -0.500000   0.500000   0.500000 )  
               a(3) = (  -0.500000  -0.500000   0.500000 )  

     reciprocal axes: (cart. coord. in units 2 pi/alat)
               b(1) = (  1.000000  0.000000  1.000000 )  
               b(2) = ( -1.000000  1.000000  0.000000 )  
               b(3) = (  0.000000 -1.000000  1.000000 )  


     PseudoPot. # 1 for Na read from file:
     /home/s1333534/quantum_espresso/qe-6.1/pseudo/Na_pbe_v1.uspp.F.UPF
     MD5 check sum: 76a99c7e9422403d3e93cbc85ab7bccb
     Pseudo is Ultrasoft, Zval =  9.0
     Generated by new atomic code, or converted to UPF format
     Using radial grid of  819 points,  5 beta functions with: 
                l(1) =   0
                l(2) =   0
                l(3) =   1
                l(4) =   1
                l(5) =   2
     Q(r) pseudized with  8 coefficients,  rinner =    1.250   1.250   1.250
                                                       1.250   1.250

     atomic species   valence    mass     pseudopotential
        Na             9.00    22.99000     Na( 1.00)

     48 Sym. Ops., with inversion, found



   Cartesian axes

     site n.     atom                  positions (alat units)
         1           Na  tau(   1) = (   0.0000000   0.0000000   0.0000000  )

     number of k points=   250  Marzari-Vanderbilt smearing, width (Ry)=  0.0200

     Number of k-points >= 100: set verbosity='high' to print them.

     Dense  grid:    15707 G-vectors     FFT dimensions: (  36,  36,  36)

     Smooth grid:     5481 G-vectors     FFT dimensions: (  25,  25,  25)

     Estimated max dynamical RAM per process >       8.62MB

     Estimated total allocated dynamical RAM >      34.48MB

     Initial potential from superposition of free atoms

     starting charge    8.99371, renormalised to    9.00000
     Starting wfc are    5 randomized atomic wfcs +    4 random wfc

     total cpu time spent up to now is        0.7 secs

     per-process dynamical memory:    14.8 Mb

     Self-consistent Calculation

     iteration #  1     ecut=    40.00 Ry     beta=0.70
     Davidson diagonalization with overlap
     ethr =  1.00E-02,  avg # of iterations =  5.5

     Threshold (ethr) on eigenvalues was too large:
     Diagonalizing with lowered threshold

     Davidson diagonalization with overlap
     ethr =  1.53E-05,  avg # of iterations =  3.4

     total cpu time spent up to now is        3.4 secs

     total energy              =     -95.09131758 Ry
     Harris-Foulkes estimate   =     -95.09182583 Ry
     estimated scf accuracy    <       0.00137179 Ry

     iteration #  2     ecut=    40.00 Ry     beta=0.70
     Davidson diagonalization with overlap
     ethr =  1.52E-05,  avg # of iterations =  2.0

     total cpu time spent up to now is        4.3 secs

     total energy              =     -95.09150117 Ry
     Harris-Foulkes estimate   =     -95.09154181 Ry
     estimated scf accuracy    <       0.00015642 Ry

     iteration #  3     ecut=    40.00 Ry     beta=0.70
     Davidson diagonalization with overlap
     ethr =  1.74E-06,  avg # of iterations =  2.1

     total cpu time spent up to now is        5.3 secs

     total energy              =     -95.09152028 Ry
     Harris-Foulkes estimate   =     -95.09152146 Ry
     estimated scf accuracy    <       0.00000923 Ry

     iteration #  4     ecut=    40.00 Ry     beta=0.70
     Davidson diagonalization with overlap
     ethr =  1.03E-07,  avg # of iterations =  1.0

     total cpu time spent up to now is        6.1 secs

     total energy              =     -95.09152108 Ry
     Harris-Foulkes estimate   =     -95.09152102 Ry
     estimated scf accuracy    <       0.00000001 Ry

     iteration #  5     ecut=    40.00 Ry     beta=0.70
     Davidson diagonalization with overlap
     ethr =  1.38E-10,  avg # of iterations =  3.0

     total cpu time spent up to now is        7.2 secs

     End of self-consistent calculation

     Number of k-points >= 100: set verbosity='high' to print the bands.

     the Fermi energy is     3.8505 ev

!    total energy              =     -95.09152112 Ry
     Harris-Foulkes estimate   =     -95.09152111 Ry
     estimated scf accuracy    <          1.7E-09 Ry

     The total energy is the sum of the following terms:

     one-electron contribution =     -78.28623130 Ry
     hartree contribution      =      40.30879038 Ry
     xc contribution           =     -14.33142179 Ry
     ewald contribution        =     -42.78255285 Ry
     smearing contrib. (-TS)   =      -0.00010556 Ry

     convergence has been achieved in   5 iterations

     Forces acting on atoms (cartesian axes, Ry/au):

     atom    1 type  1   force =     0.00000000    0.00000000    0.00000000

     Total force =     0.000000     Total SCF correction =     0.000000


     Computing stress (Cartesian axis) and pressure

          total   stress  (Ry/bohr**3)                   (kbar)     P=   67.77
   0.00046071  -0.00000000  -0.00000000         67.77     -0.00     -0.00
   0.00000000   0.00046071   0.00000000          0.00     67.77      0.00
   0.00000000  -0.00000000   0.00046071          0.00     -0.00     67.77


     BFGS Geometry Optimization

     number of scf cycles    =   1
     number of bfgs steps    =   0

     enthalpy new            =     -95.0136950342 Ry

     new trust radius        =       0.0009682497 bohr
     new conv_thr            =       0.0000000100 Ry

     new unit-cell volume =    163.36590 a.u.^3 (    24.20833 Ang^3 )
     density =      1.57697 g/cm^3

CELL_PARAMETERS (alat=  6.89014306)
   0.499810722   0.499810722   0.499810722
  -0.499810722   0.499810722   0.499810722
  -0.499810722  -0.499810722   0.499810722

ATOMIC_POSITIONS (crystal)
Na       0.000000000   0.000000000   0.000000000



     Writing output data file na.bcc.save
     NEW-OLD atomic charge density approx. for the potential
     extrapolated charge    8.98978, renormalised to    9.00000

     total cpu time spent up to now is        8.2 secs

     per-process dynamical memory:    22.3 Mb

     Self-consistent Calculation

     iteration #  1     ecut=    40.00 Ry     beta=0.70
     Davidson diagonalization with overlap
     ethr =  1.00E-06,  avg # of iterations =  2.0

     total cpu time spent up to now is        9.4 secs

     total energy              =     -95.09136935 Ry
     Harris-Foulkes estimate   =     -95.16181058 Ry
     estimated scf accuracy    <       0.00003710 Ry

     iteration #  2     ecut=    40.00 Ry     beta=0.70
     Davidson diagonalization with overlap
     ethr =  4.12E-07,  avg # of iterations =  2.9

     total cpu time spent up to now is       10.5 secs

     total energy              =     -95.09143644 Ry
     Harris-Foulkes estimate   =     -95.09146368 Ry
     estimated scf accuracy    <       0.00006202 Ry

     iteration #  3     ecut=    40.00 Ry     beta=0.70
     Davidson diagonalization with overlap
     ethr =  4.12E-07,  avg # of iterations =  1.4

     total cpu time spent up to now is       11.3 secs

     total energy              =     -95.09143758 Ry
     Harris-Foulkes estimate   =     -95.09144052 Ry
     estimated scf accuracy    <       0.00001205 Ry

     iteration #  4     ecut=    40.00 Ry     beta=0.70
     Davidson diagonalization with overlap
     ethr =  1.34E-07,  avg # of iterations =  1.0

     total cpu time spent up to now is       12.1 secs

     total energy              =     -95.09143641 Ry
     Harris-Foulkes estimate   =     -95.09143794 Ry
     estimated scf accuracy    <       0.00000573 Ry

     iteration #  5     ecut=    40.00 Ry     beta=0.70
     Davidson diagonalization with overlap
     ethr =  6.37E-08,  avg # of iterations =  1.0

     total cpu time spent up to now is       13.0 secs

     total energy              =     -95.09143544 Ry
     Harris-Foulkes estimate   =     -95.09143652 Ry
     estimated scf accuracy    <       0.00000273 Ry

     iteration #  6     ecut=    40.00 Ry     beta=0.70
     Davidson diagonalization with overlap
     ethr =  3.03E-08,  avg # of iterations =  1.0

     total cpu time spent up to now is       13.8 secs

     total energy              =     -95.09143524 Ry
     Harris-Foulkes estimate   =     -95.09143558 Ry
     estimated scf accuracy    <       0.00000069 Ry

     iteration #  7     ecut=    40.00 Ry     beta=0.70
     Davidson diagonalization with overlap
     ethr =  7.69E-09,  avg # of iterations =  1.3

     total cpu time spent up to now is       14.6 secs

     total energy              =     -95.09143525 Ry
     Harris-Foulkes estimate   =     -95.09143530 Ry
     estimated scf accuracy    <       0.00000008 Ry

     iteration #  8     ecut=    40.00 Ry     beta=0.70
     Davidson diagonalization with overlap
     ethr =  9.10E-10,  avg # of iterations =  2.0

     total cpu time spent up to now is       15.6 secs

     End of self-consistent calculation

     Number of k-points >= 100: set verbosity='high' to print the bands.

     the Fermi energy is     3.8580 ev

!    total energy              =     -95.09143527 Ry
     Harris-Foulkes estimate   =     -95.09143527 Ry
     estimated scf accuracy    <          7.4E-11 Ry

     The total energy is the sum of the following terms:

     one-electron contribution =     -78.25822270 Ry
     hartree contribution      =      40.29727135 Ry
     xc contribution           =     -14.33162380 Ry
     ewald contribution        =     -42.79875457 Ry
     smearing contrib. (-TS)   =      -0.00010556 Ry

     convergence has been achieved in   8 iterations

     Forces acting on atoms (cartesian axes, Ry/au):

     atom    1 type  1   force =     0.00000000    0.00000000    0.00000000

     Total force =     0.000000     Total SCF correction =     0.000000


     Computing stress (Cartesian axis) and pressure

          total   stress  (Ry/bohr**3)                   (kbar)     P=   68.13
   0.00046316   0.00000000  -0.00000000         68.13      0.00     -0.00
   0.00000000   0.00046316   0.00000000          0.00     68.13      0.00
  -0.00000000   0.00000000   0.00046316         -0.00      0.00     68.13


     number of scf cycles    =   2
     number of bfgs steps    =   1

     enthalpy old            =     -95.0136950342 Ry
     enthalpy new            =     -95.0136975362 Ry

     CASE: enthalpy_new < enthalpy_old


     WARNING: bfgs curvature condition failed, Theta= 0.955
     new trust radius        =       0.0014520997 bohr
     new conv_thr            =            1.0E-10 Ry

     new unit-cell volume =    163.08766 a.u.^3 (    24.16710 Ang^3 )
     density =      1.57966 g/cm^3

CELL_PARAMETERS (alat=  6.89014306)
   0.499526805   0.499526805   0.499526805
  -0.499526805   0.499526805   0.499526805
  -0.499526805  -0.499526805   0.499526805

ATOMIC_POSITIONS (crystal)
Na       0.000000000   0.000000000   0.000000000



     Writing output data file na.bcc.save
     NEW-OLD atomic charge density approx. for the potential
     extrapolated charge    8.98466, renormalised to    9.00000

     total cpu time spent up to now is       16.6 secs

     per-process dynamical memory:    22.5 Mb

     Self-consistent Calculation

     iteration #  1     ecut=    40.00 Ry     beta=0.70
     Davidson diagonalization with overlap
     ethr =  1.00E-06,  avg # of iterations =  2.0

     total cpu time spent up to now is       17.7 secs

     total energy              =     -95.09115765 Ry
     Harris-Foulkes estimate   =     -95.19688048 Ry
     estimated scf accuracy    <       0.00008323 Ry

     iteration #  2     ecut=    40.00 Ry     beta=0.70
     Davidson diagonalization with overlap
     ethr =  9.25E-07,  avg # of iterations =  2.9

     total cpu time spent up to now is       18.9 secs

     total energy              =     -95.09130837 Ry
     Harris-Foulkes estimate   =     -95.09136956 Ry
     estimated scf accuracy    <       0.00013940 Ry

     iteration #  3     ecut=    40.00 Ry     beta=0.70
     Davidson diagonalization with overlap
     ethr =  9.25E-07,  avg # of iterations =  1.4

     total cpu time spent up to now is       19.7 secs

     total energy              =     -95.09131082 Ry
     Harris-Foulkes estimate   =     -95.09131755 Ry
     estimated scf accuracy    <       0.00002707 Ry

     iteration #  4     ecut=    40.00 Ry     beta=0.70
     Davidson diagonalization with overlap
     ethr =  3.01E-07,  avg # of iterations =  1.0

     total cpu time spent up to now is       20.5 secs

     total energy              =     -95.09130814 Ry
     Harris-Foulkes estimate   =     -95.09131164 Ry
     estimated scf accuracy    <       0.00001267 Ry

     iteration #  5     ecut=    40.00 Ry     beta=0.70
     Davidson diagonalization with overlap
     ethr =  1.41E-07,  avg # of iterations =  1.0

     total cpu time spent up to now is       21.3 secs

     total energy              =     -95.09130607 Ry
     Harris-Foulkes estimate   =     -95.09130841 Ry
     estimated scf accuracy    <       0.00000582 Ry

     iteration #  6     ecut=    40.00 Ry     beta=0.70
     Davidson diagonalization with overlap
     ethr =  6.47E-08,  avg # of iterations =  1.0

     total cpu time spent up to now is       22.2 secs

     total energy              =     -95.09130565 Ry
     Harris-Foulkes estimate   =     -95.09130638 Ry
     estimated scf accuracy    <       0.00000143 Ry

     iteration #  7     ecut=    40.00 Ry     beta=0.70
     Davidson diagonalization with overlap
     ethr =  1.59E-08,  avg # of iterations =  1.5

     total cpu time spent up to now is       23.0 secs

     total energy              =     -95.09130570 Ry
     Harris-Foulkes estimate   =     -95.09130579 Ry
     estimated scf accuracy    <       0.00000014 Ry

     iteration #  8     ecut=    40.00 Ry     beta=0.70
     Davidson diagonalization with overlap
     ethr =  1.57E-09,  avg # of iterations =  2.0

     total cpu time spent up to now is       24.0 secs

     total energy              =     -95.09130574 Ry
     Harris-Foulkes estimate   =     -95.09130574 Ry
     estimated scf accuracy    <          4.5E-10 Ry

     iteration #  9     ecut=    40.00 Ry     beta=0.70
     Davidson diagonalization with overlap
     ethr =  5.00E-12,  avg # of iterations =  1.8

     total cpu time spent up to now is       24.9 secs

     End of self-consistent calculation

     Number of k-points >= 100: set verbosity='high' to print the bands.

     the Fermi energy is     3.8693 ev

!    total energy              =     -95.09130574 Ry
     Harris-Foulkes estimate   =     -95.09130574 Ry
     estimated scf accuracy    <          9.7E-11 Ry

     The total energy is the sum of the following terms:

     one-electron contribution =     -78.21613719 Ry
     hartree contribution      =      40.27993402 Ry
     xc contribution           =     -14.33191685 Ry
     ewald contribution        =     -42.82308017 Ry
     smearing contrib. (-TS)   =      -0.00010555 Ry

     convergence has been achieved in   9 iterations

     Forces acting on atoms (cartesian axes, Ry/au):

     atom    1 type  1   force =     0.00000000    0.00000000    0.00000000

     Total force =     0.000000     Total SCF correction =     0.000000


     Computing stress (Cartesian axis) and pressure

          total   stress  (Ry/bohr**3)                   (kbar)     P=   68.68
   0.00046691   0.00000000  -0.00000000         68.68      0.00     -0.00
   0.00000000   0.00046691   0.00000000          0.00     68.68      0.00
  -0.00000000   0.00000000   0.00046691         -0.00      0.00     68.68


     number of scf cycles    =   3
     number of bfgs steps    =   2

     enthalpy old            =     -95.0136975362 Ry
     enthalpy new            =     -95.0137004057 Ry

     CASE: enthalpy_new < enthalpy_old

     new trust radius        =       0.0021775308 bohr
     new conv_thr            =            1.0E-10 Ry

     new unit-cell volume =    162.67089 a.u.^3 (    24.10534 Ang^3 )
     density =      1.58371 g/cm^3

CELL_PARAMETERS (alat=  6.89014306)
   0.499100930   0.499100930   0.499100930
  -0.499100930   0.499100930   0.499100930
  -0.499100930  -0.499100930   0.499100930

ATOMIC_POSITIONS (crystal)
Na       0.000000000   0.000000000   0.000000000



     Writing output data file na.bcc.save
     NEW-OLD atomic charge density approx. for the potential
     extrapolated charge    8.97696, renormalised to    9.00000

     total cpu time spent up to now is       25.9 secs

     per-process dynamical memory:    22.5 Mb

     Self-consistent Calculation

     iteration #  1     ecut=    40.00 Ry     beta=0.70
     Davidson diagonalization with overlap
     ethr =  1.00E-06,  avg # of iterations =  2.0

     total cpu time spent up to now is       27.0 secs

     total energy              =     -95.09077687 Ry
     Harris-Foulkes estimate   =     -95.24949812 Ry
     estimated scf accuracy    <       0.00018709 Ry

     iteration #  2     ecut=    40.00 Ry     beta=0.70
     Davidson diagonalization with overlap
     ethr =  2.08E-06,  avg # of iterations =  2.9

     total cpu time spent up to now is       28.3 secs

     total energy              =     -95.09111557 Ry
     Harris-Foulkes estimate   =     -95.09125313 Ry
     estimated scf accuracy    <       0.00031337 Ry

     iteration #  3     ecut=    40.00 Ry     beta=0.70
     Davidson diagonalization with overlap
     ethr =  2.08E-06,  avg # of iterations =  1.4

     total cpu time spent up to now is       29.2 secs

     total energy              =     -95.09111981 Ry
     Harris-Foulkes estimate   =     -95.09113635 Ry
     estimated scf accuracy    <       0.00006041 Ry

     iteration #  4     ecut=    40.00 Ry     beta=0.70
     Davidson diagonalization with overlap
     ethr =  6.71E-07,  avg # of iterations =  1.0

     total cpu time spent up to now is       30.0 secs

     total energy              =     -95.09111465 Ry
     Harris-Foulkes estimate   =     -95.09112174 Ry
     estimated scf accuracy    <       0.00002593 Ry

     iteration #  5     ecut=    40.00 Ry     beta=0.70
     Davidson diagonalization with overlap
     ethr =  2.88E-07,  avg # of iterations =  1.0

     total cpu time spent up to now is       30.8 secs

     total energy              =     -95.09111102 Ry
     Harris-Foulkes estimate   =     -95.09111524 Ry
     estimated scf accuracy    <       0.00001189 Ry

     iteration #  6     ecut=    40.00 Ry     beta=0.70
     Davidson diagonalization with overlap
     ethr =  1.32E-07,  avg # of iterations =  1.0

     total cpu time spent up to now is       31.6 secs

     total energy              =     -95.09110962 Ry
     Harris-Foulkes estimate   =     -95.09111147 Ry
     estimated scf accuracy    <       0.00000385 Ry

     iteration #  7     ecut=    40.00 Ry     beta=0.70
     Davidson diagonalization with overlap
     ethr =  4.28E-08,  avg # of iterations =  1.0

     total cpu time spent up to now is       32.4 secs

     total energy              =     -95.09110962 Ry
     Harris-Foulkes estimate   =     -95.09110995 Ry
     estimated scf accuracy    <       0.00000052 Ry

     iteration #  8     ecut=    40.00 Ry     beta=0.70
     Davidson diagonalization with overlap
     ethr =  5.76E-09,  avg # of iterations =  2.0

     total cpu time spent up to now is       33.4 secs

     total energy              =     -95.09110973 Ry
     Harris-Foulkes estimate   =     -95.09110973 Ry
     estimated scf accuracy    <          5.7E-09 Ry

     iteration #  9     ecut=    40.00 Ry     beta=0.70
     Davidson diagonalization with overlap
     ethr =  6.38E-11,  avg # of iterations =  1.0

     total cpu time spent up to now is       34.2 secs

     total energy              =     -95.09110973 Ry
     Harris-Foulkes estimate   =     -95.09110973 Ry
     estimated scf accuracy    <          3.9E-09 Ry

     iteration # 10     ecut=    40.00 Ry     beta=0.70
     Davidson diagonalization with overlap
     ethr =  4.32E-11,  avg # of iterations =  1.0

     total cpu time spent up to now is       35.0 secs

     total energy              =     -95.09110972 Ry
     Harris-Foulkes estimate   =     -95.09110973 Ry
     estimated scf accuracy    <          4.0E-09 Ry

     iteration # 11     ecut=    40.00 Ry     beta=0.70
     Davidson diagonalization with overlap
     ethr =  4.32E-11,  avg # of iterations =  2.0

     total cpu time spent up to now is       36.0 secs

     total energy              =     -95.09110973 Ry
     Harris-Foulkes estimate   =     -95.09110973 Ry
     estimated scf accuracy    <          3.6E-10 Ry

     iteration # 12     ecut=    40.00 Ry     beta=0.70
     Davidson diagonalization with overlap
     ethr =  3.97E-12,  avg # of iterations =  3.0

     total cpu time spent up to now is       37.1 secs

     total energy              =     -95.09110972 Ry
     Harris-Foulkes estimate   =     -95.09110973 Ry
     estimated scf accuracy    <          3.8E-09 Ry

     iteration # 13     ecut=    40.00 Ry     beta=0.70
     Davidson diagonalization with overlap
     ethr =  3.97E-12,  avg # of iterations =  2.0

     total cpu time spent up to now is       38.1 secs

     total energy              =     -95.09110973 Ry
     Harris-Foulkes estimate   =     -95.09110973 Ry
     estimated scf accuracy    <          1.4E-10 Ry

     iteration # 14     ecut=    40.00 Ry     beta=0.70
     Davidson diagonalization with overlap
     ethr =  1.61E-12,  avg # of iterations =  1.0

     total cpu time spent up to now is       38.9 secs

     total energy              =     -95.09110973 Ry
     Harris-Foulkes estimate   =     -95.09110973 Ry
     estimated scf accuracy    <          3.9E-10 Ry

     iteration # 15     ecut=    40.00 Ry     beta=0.70
     Davidson diagonalization with overlap
     ethr =  1.61E-12,  avg # of iterations =  1.0

     total cpu time spent up to now is       39.7 secs

     total energy              =     -95.09110973 Ry
     Harris-Foulkes estimate   =     -95.09110973 Ry
     estimated scf accuracy    <          4.7E-10 Ry

     iteration # 16     ecut=    40.00 Ry     beta=0.70
     Davidson diagonalization with overlap
     ethr =  1.61E-12,  avg # of iterations =  1.0

     total cpu time spent up to now is       40.5 secs

     total energy              =     -95.09110973 Ry
     Harris-Foulkes estimate   =     -95.09110973 Ry
     estimated scf accuracy    <          2.1E-10 Ry

     iteration # 17     ecut=    40.00 Ry     beta=0.70
     Davidson diagonalization with overlap
     ethr =  1.61E-12,  avg # of iterations =  2.0

     total cpu time spent up to now is       41.5 secs

     End of self-consistent calculation

     Number of k-points >= 100: set verbosity='high' to print the bands.

     the Fermi energy is     3.8863 ev

!    total energy              =     -95.09110973 Ry
     Harris-Foulkes estimate   =     -95.09110973 Ry
     estimated scf accuracy    <          3.4E-13 Ry

     The total energy is the sum of the following terms:

     one-electron contribution =     -78.15296052 Ry
     hartree contribution      =      40.25394283 Ry
     xc contribution           =     -14.33236603 Ry
     ewald contribution        =     -42.85962047 Ry
     smearing contrib. (-TS)   =      -0.00010554 Ry

     convergence has been achieved in  17 iterations

     Forces acting on atoms (cartesian axes, Ry/au):

     atom    1 type  1   force =     0.00000000    0.00000000    0.00000000

     Total force =     0.000000     Total SCF correction =     0.000000


     Computing stress (Cartesian axis) and pressure

          total   stress  (Ry/bohr**3)                   (kbar)     P=   69.60
   0.00047315  -0.00000000   0.00000000         69.60     -0.00      0.00
  -0.00000000   0.00047315  -0.00000000         -0.00     69.60     -0.00
   0.00000000  -0.00000000   0.00047315          0.00     -0.00     69.60


     bfgs converged in   4 scf cycles and   3 bfgs steps
     (criteria: energy <  1.0E-04 Ry, force <  1.0E-03Ry/Bohr, cell <  5.0E-01kbar)

     End of BFGS Geometry Optimization

     Final enthalpy =     -95.0137027156 Ry
Begin final coordinates
     new unit-cell volume =    162.67089 a.u.^3 (    24.10534 Ang^3 )
     density =      1.58371 g/cm^3

CELL_PARAMETERS (alat=  6.89014306)
   0.499100930   0.499100930   0.499100930
  -0.499100930   0.499100930   0.499100930
  -0.499100930  -0.499100930   0.499100930

ATOMIC_POSITIONS (crystal)
Na       0.000000000   0.000000000   0.000000000
End final coordinates



     A final scf calculation at the relaxed structure.
     The G-vectors are recalculated for the final unit cell
     Results may differ from those at the preceding step.

     Parallelization info
     --------------------
     sticks:   dense  smooth     PW     G-vecs:    dense   smooth      PW
     Min         210     103     34                 3920     1367     263
     Max         211     104     35                 3923     1369     265
     Sum         841     415    137                15683     5473    1055



     bravais-lattice index     =            3
     lattice parameter (alat)  =       6.8901  a.u.
     unit-cell volume          =     162.6709 (a.u.)^3
     number of atoms/cell      =            1
     number of atomic types    =            1
     number of electrons       =         9.00
     number of Kohn-Sham states=            9
     kinetic-energy cutoff     =      40.0000  Ry
     charge density cutoff     =     320.0000  Ry
     convergence threshold     =      1.0E-10
     mixing beta               =       0.7000
     number of iterations used =            8  plain     mixing
     Exchange-correlation      = SLA  PW   PBE  PBE ( 1  4  3  4 0 0)

     celldm(1)=   6.890143  celldm(2)=   0.000000  celldm(3)=   0.000000
     celldm(4)=   0.000000  celldm(5)=   0.000000  celldm(6)=   0.000000

     crystal axes: (cart. coord. in units of alat)
               a(1) = (   0.499101   0.499101   0.499101 )  
               a(2) = (  -0.499101   0.499101   0.499101 )  
               a(3) = (  -0.499101  -0.499101   0.499101 )  

     reciprocal axes: (cart. coord. in units 2 pi/alat)
               b(1) = (  1.001801 -0.000000  1.001801 )  
               b(2) = ( -1.001801  1.001801  0.000000 )  
               b(3) = (  0.000000 -1.001801  1.001801 )  


     PseudoPot. # 1 for Na read from file:
     /home/s1333534/quantum_espresso/qe-6.1/pseudo/Na_pbe_v1.uspp.F.UPF
     MD5 check sum: 76a99c7e9422403d3e93cbc85ab7bccb
     Pseudo is Ultrasoft, Zval =  9.0
     Generated by new atomic code, or converted to UPF format
     Using radial grid of  819 points,  5 beta functions with: 
                l(1) =   0
                l(2) =   0
                l(3) =   1
                l(4) =   1
                l(5) =   2
     Q(r) pseudized with  8 coefficients,  rinner =    1.250   1.250   1.250
                                                       1.250   1.250

     atomic species   valence    mass     pseudopotential
        Na             9.00    22.99000     Na( 1.00)

     48 Sym. Ops., with inversion, found



   Cartesian axes

     site n.     atom                  positions (alat units)
         1           Na  tau(   1) = (   0.0000000   0.0000000   0.0000000  )

     number of k points=   250  Marzari-Vanderbilt smearing, width (Ry)=  0.0200

     Number of k-points >= 100: set verbosity='high' to print them.

     Dense  grid:    15683 G-vectors     FFT dimensions: (  36,  36,  36)

     Smooth grid:     5473 G-vectors     FFT dimensions: (  24,  24,  24)

     Estimated max dynamical RAM per process >       8.58MB

     Estimated total allocated dynamical RAM >      34.32MB

     Initial potential from superposition of free atoms

     starting charge    8.99371, renormalised to    9.00000
     Starting wfc are    5 randomized atomic wfcs +    4 random wfc

     Writing output data file na.bcc.save

     total cpu time spent up to now is       42.9 secs

     per-process dynamical memory:    20.2 Mb

     Self-consistent Calculation

     iteration #  1     ecut=    40.00 Ry     beta=0.70
     Davidson diagonalization with overlap
     c_bands:  1 eigenvalues not converged
     c_bands:  1 eigenvalues not converged
     ethr =  1.00E-06,  avg # of iterations = 10.8

     total cpu time spent up to now is       45.6 secs

     total energy              =     -95.09087648 Ry
     Harris-Foulkes estimate   =     -95.09139623 Ry
     estimated scf accuracy    <       0.00139026 Ry

     iteration #  2     ecut=    40.00 Ry     beta=0.70
     Davidson diagonalization with overlap
     ethr =  1.54E-05,  avg # of iterations =  2.0

     total cpu time spent up to now is       46.5 secs

     total energy              =     -95.09106799 Ry
     Harris-Foulkes estimate   =     -95.09111135 Ry
     estimated scf accuracy    <       0.00016226 Ry

     iteration #  3     ecut=    40.00 Ry     beta=0.70
     Davidson diagonalization with overlap
     ethr =  1.80E-06,  avg # of iterations =  2.0

     total cpu time spent up to now is       47.5 secs

     total energy              =     -95.09108721 Ry
     Harris-Foulkes estimate   =     -95.09108851 Ry
     estimated scf accuracy    <       0.00000969 Ry

     iteration #  4     ecut=    40.00 Ry     beta=0.70
     Davidson diagonalization with overlap
     ethr =  1.08E-07,  avg # of iterations =  1.0

     total cpu time spent up to now is       48.2 secs

     total energy              =     -95.09108803 Ry
     Harris-Foulkes estimate   =     -95.09108797 Ry
     estimated scf accuracy    <       0.00000001 Ry

     iteration #  5     ecut=    40.00 Ry     beta=0.70
     Davidson diagonalization with overlap
     ethr =  1.35E-10,  avg # of iterations =  3.0

     total cpu time spent up to now is       49.3 secs

     total energy              =     -95.09108806 Ry
     Harris-Foulkes estimate   =     -95.09108805 Ry
     estimated scf accuracy    <          1.2E-09 Ry

     iteration #  6     ecut=    40.00 Ry     beta=0.70
     Davidson diagonalization with overlap
     ethr =  1.30E-11,  avg # of iterations =  1.5

     total cpu time spent up to now is       50.1 secs

     End of self-consistent calculation

     Number of k-points >= 100: set verbosity='high' to print the bands.

     the Fermi energy is     3.8863 ev

!    total energy              =     -95.09108806 Ry
     Harris-Foulkes estimate   =     -95.09108806 Ry
     estimated scf accuracy    <          9.0E-11 Ry

     The total energy is the sum of the following terms:

     one-electron contribution =     -78.15295672 Ry
     hartree contribution      =      40.25396097 Ry
     xc contribution           =     -14.33236630 Ry
     ewald contribution        =     -42.85962047 Ry
     smearing contrib. (-TS)   =      -0.00010555 Ry

     convergence has been achieved in   6 iterations

     Forces acting on atoms (cartesian axes, Ry/au):

     atom    1 type  1   force =     0.00000000    0.00000000    0.00000000

     Total force =     0.000000     Total SCF correction =     0.000000


     Computing stress (Cartesian axis) and pressure

          total   stress  (Ry/bohr**3)                   (kbar)     P=   69.56
   0.00047285  -0.00000000   0.00000000         69.56     -0.00      0.00
  -0.00000000   0.00047285  -0.00000000         -0.00     69.56     -0.00
   0.00000000  -0.00000000   0.00047285          0.00     -0.00     69.56


     Writing output data file na.bcc.save

     init_run     :      1.16s CPU      1.19s WALL (       2 calls)
     electrons    :     43.36s CPU     45.08s WALL (       5 calls)
     update_pot   :      0.44s CPU      0.44s WALL (       3 calls)
     forces       :      0.49s CPU      0.49s WALL (       5 calls)
     stress       :      2.32s CPU      2.33s WALL (       5 calls)

     Called by init_run:
     wfcinit      :      0.59s CPU      0.61s WALL (       2 calls)
     potinit      :      0.07s CPU      0.07s WALL (       2 calls)

     Called by electrons:
     c_bands      :     35.04s CPU     36.48s WALL (      46 calls)
     sum_band     :      7.45s CPU      7.70s WALL (      46 calls)
     v_of_rho     :      0.40s CPU      0.40s WALL (      50 calls)
     newd         :      0.50s CPU      0.52s WALL (      50 calls)
     mix_rho      :      0.03s CPU      0.03s WALL (      46 calls)

     Called by c_bands:
     init_us_2    :      2.02s CPU      1.96s WALL (   26000 calls)
     cegterg      :     33.03s CPU     34.48s WALL (   11500 calls)

     Called by sum_band:
     sum_band:bec :      0.03s CPU      0.03s WALL (   11500 calls)
     addusdens    :      0.55s CPU      0.56s WALL (      46 calls)

     Called by *egterg:
     h_psi        :     25.90s CPU     27.04s WALL (   34767 calls)
     s_psi        :      0.49s CPU      0.38s WALL (   34767 calls)
     g_psi        :      0.24s CPU      0.22s WALL (   22767 calls)
     cdiaghg      :      4.26s CPU      4.38s WALL (   33267 calls)

     Called by h_psi:
     h_psi:pot    :     25.80s CPU     26.89s WALL (   34767 calls)
     h_psi:calbec :      0.79s CPU      0.63s WALL (   34767 calls)
     vloc_psi     :     24.68s CPU     25.74s WALL (   34767 calls)
     add_vuspsi   :      0.27s CPU      0.42s WALL (   34767 calls)

     General routines
     calbec       :      1.22s CPU      1.08s WALL (   52517 calls)
     fft          :      0.18s CPU      0.18s WALL (     827 calls)
     ffts         :      0.01s CPU      0.01s WALL (      96 calls)
     fftw         :     27.19s CPU     26.75s WALL (  610622 calls)
     interpolate  :      0.04s CPU      0.04s WALL (      96 calls)
     davcio       :      0.00s CPU      0.00s WALL (     500 calls)

     Parallel routines
     fft_scatter  :      5.03s CPU      5.78s WALL (  611545 calls)

     PWSCF        :    49.01s CPU        50.84s WALL


   This run was terminated on:  17: 2:21  20Dec2017            

=------------------------------------------------------------------------------=
   JOB DONE.
=------------------------------------------------------------------------------=
