
     Program PWSCF v.6.1 (svn rev. 13369) starts on 20Dec2017 at 16:55:37 

     This program is part of the open-source Quantum ESPRESSO suite
     for quantum simulation of materials; please cite
         "P. Giannozzi et al., J. Phys.:Condens. Matter 21 395502 (2009);
          URL http://www.quantum-espresso.org", 
     in publications or presentations arising from this work. More details at
     http://www.quantum-espresso.org/quote

     Parallel version (MPI), running on     4 processors
     R & G space division:  proc/nbgrp/npool/nimage =       4
     Waiting for input...
     Reading input from standard input

     Current dimensions of program PWSCF are:
     Max number of different atomic species (ntypx) = 10
     Max number of k-points (npk) =  40000
     Max angular momentum in pseudopotentials (lmaxx) =  3

     Subspace diagonalization in iterative solution of the eigenvalue problem:
     a serial algorithm will be used


     Parallelization info
     --------------------
     sticks:   dense  smooth     PW     G-vecs:    dense   smooth      PW
     Min         251     121     41                 5028     1752     322
     Max         252     123     42                 5029     1754     323
     Sum        1007     487    165                20113     7011    1289



     bravais-lattice index     =            3
     lattice parameter (alat)  =       7.4599  a.u.
     unit-cell volume          =     207.5723 (a.u.)^3
     number of atoms/cell      =            1
     number of atomic types    =            1
     number of electrons       =         9.00
     number of Kohn-Sham states=            9
     kinetic-energy cutoff     =      40.0000  Ry
     charge density cutoff     =     320.0000  Ry
     convergence threshold     =      1.0E-08
     mixing beta               =       0.7000
     number of iterations used =            8  plain     mixing
     Exchange-correlation      = SLA  PW   PBE  PBE ( 1  4  3  4 0 0)
     nstep                     =           50


     celldm(1)=   7.459903  celldm(2)=   0.000000  celldm(3)=   0.000000
     celldm(4)=   0.000000  celldm(5)=   0.000000  celldm(6)=   0.000000

     crystal axes: (cart. coord. in units of alat)
               a(1) = (   0.500000   0.500000   0.500000 )  
               a(2) = (  -0.500000   0.500000   0.500000 )  
               a(3) = (  -0.500000  -0.500000   0.500000 )  

     reciprocal axes: (cart. coord. in units 2 pi/alat)
               b(1) = (  1.000000  0.000000  1.000000 )  
               b(2) = ( -1.000000  1.000000  0.000000 )  
               b(3) = (  0.000000 -1.000000  1.000000 )  


     PseudoPot. # 1 for Na read from file:
     /home/s1333534/quantum_espresso/qe-6.1/pseudo/Na_pbe_v1.uspp.F.UPF
     MD5 check sum: 76a99c7e9422403d3e93cbc85ab7bccb
     Pseudo is Ultrasoft, Zval =  9.0
     Generated by new atomic code, or converted to UPF format
     Using radial grid of  819 points,  5 beta functions with: 
                l(1) =   0
                l(2) =   0
                l(3) =   1
                l(4) =   1
                l(5) =   2
     Q(r) pseudized with  8 coefficients,  rinner =    1.250   1.250   1.250
                                                       1.250   1.250

     atomic species   valence    mass     pseudopotential
        Na             9.00    22.99000     Na( 1.00)

     48 Sym. Ops., with inversion, found



   Cartesian axes

     site n.     atom                  positions (alat units)
         1           Na  tau(   1) = (   0.0000000   0.0000000   0.0000000  )

     number of k points=   250  Marzari-Vanderbilt smearing, width (Ry)=  0.0200

     Number of k-points >= 100: set verbosity='high' to print them.

     Dense  grid:    20113 G-vectors     FFT dimensions: (  40,  40,  40)

     Smooth grid:     7011 G-vectors     FFT dimensions: (  25,  25,  25)

     Estimated max dynamical RAM per process >      11.03MB

     Estimated total allocated dynamical RAM >      44.13MB

     Initial potential from superposition of free atoms

     starting charge    8.99371, renormalised to    9.00000
     Starting wfc are    5 randomized atomic wfcs +    4 random wfc

     total cpu time spent up to now is        0.8 secs

     per-process dynamical memory:    17.5 Mb

     Self-consistent Calculation

     iteration #  1     ecut=    40.00 Ry     beta=0.70
     Davidson diagonalization with overlap
     ethr =  1.00E-02,  avg # of iterations =  5.7

     Threshold (ethr) on eigenvalues was too large:
     Diagonalizing with lowered threshold

     Davidson diagonalization with overlap
     ethr =  1.11E-05,  avg # of iterations =  4.1

     total cpu time spent up to now is        4.0 secs

     total energy              =     -95.10390612 Ry
     Harris-Foulkes estimate   =     -95.10421558 Ry
     estimated scf accuracy    <       0.00099442 Ry

     iteration #  2     ecut=    40.00 Ry     beta=0.70
     Davidson diagonalization with overlap
     ethr =  1.10E-05,  avg # of iterations =  2.0

     total cpu time spent up to now is        5.1 secs

     total energy              =     -95.10402926 Ry
     Harris-Foulkes estimate   =     -95.10405672 Ry
     estimated scf accuracy    <       0.00011170 Ry

     iteration #  3     ecut=    40.00 Ry     beta=0.70
     Davidson diagonalization with overlap
     ethr =  1.24E-06,  avg # of iterations =  2.0

     total cpu time spent up to now is        6.2 secs

     total energy              =     -95.10404196 Ry
     Harris-Foulkes estimate   =     -95.10404317 Ry
     estimated scf accuracy    <       0.00000681 Ry

     iteration #  4     ecut=    40.00 Ry     beta=0.70
     Davidson diagonalization with overlap
     ethr =  7.56E-08,  avg # of iterations =  1.0

     total cpu time spent up to now is        7.1 secs

     End of self-consistent calculation

     Number of k-points >= 100: set verbosity='high' to print the bands.

     the Fermi energy is     2.4659 ev

!    total energy              =     -95.10404257 Ry
     Harris-Foulkes estimate   =     -95.10404252 Ry
     estimated scf accuracy    <          9.3E-09 Ry

     The total energy is the sum of the following terms:

     one-electron contribution =     -83.96502532 Ry
     hartree contribution      =      42.66993252 Ry
     xc contribution           =     -14.29386784 Ry
     ewald contribution        =     -39.51498061 Ry
     smearing contrib. (-TS)   =      -0.00010132 Ry

     convergence has been achieved in   4 iterations

     Forces acting on atoms (cartesian axes, Ry/au):

     atom    1 type  1   force =     0.00000000    0.00000000    0.00000000

     Total force =     0.000000     Total SCF correction =     0.000000


     Computing stress (Cartesian axis) and pressure

          total   stress  (Ry/bohr**3)                   (kbar)     P=   16.60
   0.00011283  -0.00000000   0.00000000         16.60     -0.00      0.00
  -0.00000000   0.00011283   0.00000000         -0.00     16.60      0.00
  -0.00000000   0.00000000   0.00011283         -0.00      0.00     16.60


     BFGS Geometry Optimization

     number of scf cycles    =   1
     number of bfgs steps    =   0

     enthalpy new            =     -95.0758216038 Ry

     new trust radius        =       0.0016656585 bohr
     new conv_thr            =       0.0000000100 Ry

     new unit-cell volume =    207.21259 a.u.^3 (    30.70574 Ang^3 )
     density =      1.24328 g/cm^3

CELL_PARAMETERS (alat=  7.45990267)
   0.499710971   0.499710971   0.499710971
  -0.499710971   0.499710971   0.499710971
  -0.499710971  -0.499710971   0.499710971

ATOMIC_POSITIONS (crystal)
Na       0.000000000   0.000000000   0.000000000



     Writing output data file na.bcc.save
     NEW-OLD atomic charge density approx. for the potential
     extrapolated charge    8.98439, renormalised to    9.00000

     total cpu time spent up to now is        8.3 secs

     per-process dynamical memory:    27.0 Mb

     Self-consistent Calculation

     iteration #  1     ecut=    40.00 Ry     beta=0.70
     Davidson diagonalization with overlap
     ethr =  1.00E-06,  avg # of iterations =  2.1

     total cpu time spent up to now is        9.6 secs

     total energy              =     -95.10384343 Ry
     Harris-Foulkes estimate   =     -95.21975546 Ry
     estimated scf accuracy    <       0.00008856 Ry

     iteration #  2     ecut=    40.00 Ry     beta=0.70
     Davidson diagonalization with overlap
     ethr =  9.84E-07,  avg # of iterations =  3.0

     total cpu time spent up to now is       11.0 secs

     total energy              =     -95.10400393 Ry
     Harris-Foulkes estimate   =     -95.10406886 Ry
     estimated scf accuracy    <       0.00014781 Ry

     iteration #  3     ecut=    40.00 Ry     beta=0.70
     Davidson diagonalization with overlap
     ethr =  9.84E-07,  avg # of iterations =  1.6

     total cpu time spent up to now is       12.0 secs

     total energy              =     -95.10400498 Ry
     Harris-Foulkes estimate   =     -95.10401367 Ry
     estimated scf accuracy    <       0.00002867 Ry

     iteration #  4     ecut=    40.00 Ry     beta=0.70
     Davidson diagonalization with overlap
     ethr =  3.19E-07,  avg # of iterations =  1.0

     total cpu time spent up to now is       12.9 secs

     total energy              =     -95.10400300 Ry
     Harris-Foulkes estimate   =     -95.10400614 Ry
     estimated scf accuracy    <       0.00001080 Ry

     iteration #  5     ecut=    40.00 Ry     beta=0.70
     Davidson diagonalization with overlap
     ethr =  1.20E-07,  avg # of iterations =  1.0

     total cpu time spent up to now is       13.8 secs

     total energy              =     -95.10400197 Ry
     Harris-Foulkes estimate   =     -95.10400329 Ry
     estimated scf accuracy    <       0.00000462 Ry

     iteration #  6     ecut=    40.00 Ry     beta=0.70
     Davidson diagonalization with overlap
     ethr =  5.14E-08,  avg # of iterations =  1.0

     total cpu time spent up to now is       14.8 secs

     total energy              =     -95.10400105 Ry
     Harris-Foulkes estimate   =     -95.10400208 Ry
     estimated scf accuracy    <       0.00000202 Ry

     iteration #  7     ecut=    40.00 Ry     beta=0.70
     Davidson diagonalization with overlap
     ethr =  2.25E-08,  avg # of iterations =  1.0

     total cpu time spent up to now is       15.7 secs

     total energy              =     -95.10400110 Ry
     Harris-Foulkes estimate   =     -95.10400124 Ry
     estimated scf accuracy    <       0.00000022 Ry

     iteration #  8     ecut=    40.00 Ry     beta=0.70
     Davidson diagonalization with overlap
     ethr =  2.42E-09,  avg # of iterations =  2.0

     total cpu time spent up to now is       16.8 secs

     End of self-consistent calculation

     Number of k-points >= 100: set verbosity='high' to print the bands.

     the Fermi energy is     2.4745 ev

!    total energy              =     -95.10400115 Ry
     Harris-Foulkes estimate   =     -95.10400115 Ry
     estimated scf accuracy    <          3.3E-09 Ry

     The total energy is the sum of the following terms:

     one-electron contribution =     -83.92509620 Ry
     hartree contribution      =      42.65314232 Ry
     xc contribution           =     -14.29411013 Ry
     ewald contribution        =     -39.53783576 Ry
     smearing contrib. (-TS)   =      -0.00010139 Ry

     convergence has been achieved in   8 iterations

     Forces acting on atoms (cartesian axes, Ry/au):

     atom    1 type  1   force =     0.00000000    0.00000000    0.00000000

     Total force =     0.000000     Total SCF correction =     0.000000


     Computing stress (Cartesian axis) and pressure

          total   stress  (Ry/bohr**3)                   (kbar)     P=   16.55
   0.00011251  -0.00000000   0.00000000         16.55     -0.00      0.00
  -0.00000000   0.00011251  -0.00000000         -0.00     16.55     -0.00
   0.00000000  -0.00000000   0.00011251          0.00     -0.00     16.55


     number of scf cycles    =   2
     number of bfgs steps    =   1

     enthalpy old            =     -95.0758216038 Ry
     enthalpy new            =     -95.0758290915 Ry

     CASE: enthalpy_new < enthalpy_old


     WARNING: bfgs curvature condition failed, Theta= 0.790
     new trust radius        =       0.0024977655 bohr
     new conv_thr            =            1.0E-10 Ry

     new unit-cell volume =    206.67373 a.u.^3 (    30.62589 Ang^3 )
     density =      1.24652 g/cm^3

CELL_PARAMETERS (alat=  7.45990267)
   0.499277428   0.499277428   0.499277428
  -0.499277428   0.499277428   0.499277428
  -0.499277428  -0.499277428   0.499277428

ATOMIC_POSITIONS (crystal)
Na       0.000000000   0.000000000   0.000000000



     Writing output data file na.bcc.save
     NEW-OLD atomic charge density approx. for the potential
     extrapolated charge    8.97655, renormalised to    9.00000

     total cpu time spent up to now is       18.0 secs

     per-process dynamical memory:    27.0 Mb

     Self-consistent Calculation

     iteration #  1     ecut=    40.00 Ry     beta=0.70
     Davidson diagonalization with overlap
     ethr =  1.00E-06,  avg # of iterations =  2.0

     total cpu time spent up to now is       19.3 secs

     total energy              =     -95.10358294 Ry
     Harris-Foulkes estimate   =     -95.27761476 Ry
     estimated scf accuracy    <       0.00019951 Ry

     iteration #  2     ecut=    40.00 Ry     beta=0.70
     Davidson diagonalization with overlap
     ethr =  2.22E-06,  avg # of iterations =  2.9

     total cpu time spent up to now is       20.8 secs

     total energy              =     -95.10394386 Ry
     Harris-Foulkes estimate   =     -95.10408997 Ry
     estimated scf accuracy    <       0.00033245 Ry

     iteration #  3     ecut=    40.00 Ry     beta=0.70
     Davidson diagonalization with overlap
     ethr =  2.22E-06,  avg # of iterations =  1.6

     total cpu time spent up to now is       21.8 secs

     total energy              =     -95.10394621 Ry
     Harris-Foulkes estimate   =     -95.10396597 Ry
     estimated scf accuracy    <       0.00006385 Ry

     iteration #  4     ecut=    40.00 Ry     beta=0.70
     Davidson diagonalization with overlap
     ethr =  7.09E-07,  avg # of iterations =  1.0

     total cpu time spent up to now is       22.7 secs

     total energy              =     -95.10394071 Ry
     Harris-Foulkes estimate   =     -95.10394867 Ry
     estimated scf accuracy    <       0.00002377 Ry

     iteration #  5     ecut=    40.00 Ry     beta=0.70
     Davidson diagonalization with overlap
     ethr =  2.64E-07,  avg # of iterations =  1.0

     total cpu time spent up to now is       23.7 secs

     total energy              =     -95.10393882 Ry
     Harris-Foulkes estimate   =     -95.10394159 Ry
     estimated scf accuracy    <       0.00000831 Ry

     iteration #  6     ecut=    40.00 Ry     beta=0.70
     Davidson diagonalization with overlap
     ethr =  9.24E-08,  avg # of iterations =  1.0

     total cpu time spent up to now is       24.6 secs

     total energy              =     -95.10393742 Ry
     Harris-Foulkes estimate   =     -95.10393912 Ry
     estimated scf accuracy    <       0.00000295 Ry

     iteration #  7     ecut=    40.00 Ry     beta=0.70
     Davidson diagonalization with overlap
     ethr =  3.28E-08,  avg # of iterations =  2.0

     total cpu time spent up to now is       25.7 secs

     total energy              =     -95.10393773 Ry
     Harris-Foulkes estimate   =     -95.10393781 Ry
     estimated scf accuracy    <       0.00000013 Ry

     iteration #  8     ecut=    40.00 Ry     beta=0.70
     Davidson diagonalization with overlap
     ethr =  1.45E-09,  avg # of iterations =  2.0

     total cpu time spent up to now is       26.8 secs

     total energy              =     -95.10393776 Ry
     Harris-Foulkes estimate   =     -95.10393776 Ry
     estimated scf accuracy    <          9.9E-10 Ry

     iteration #  9     ecut=    40.00 Ry     beta=0.70
     Davidson diagonalization with overlap
     ethr =  1.10E-11,  avg # of iterations =  1.5

     total cpu time spent up to now is       27.8 secs

     total energy              =     -95.10393776 Ry
     Harris-Foulkes estimate   =     -95.10393776 Ry
     estimated scf accuracy    <          5.9E-10 Ry

     iteration # 10     ecut=    40.00 Ry     beta=0.70
     Davidson diagonalization with overlap
     ethr =  6.53E-12,  avg # of iterations =  1.0

     total cpu time spent up to now is       28.8 secs

     total energy              =     -95.10393776 Ry
     Harris-Foulkes estimate   =     -95.10393776 Ry
     estimated scf accuracy    <          1.1E-09 Ry

     iteration # 11     ecut=    40.00 Ry     beta=0.70
     Davidson diagonalization with overlap
     ethr =  6.53E-12,  avg # of iterations =  2.0

     total cpu time spent up to now is       29.9 secs

     End of self-consistent calculation

     Number of k-points >= 100: set verbosity='high' to print the bands.

     the Fermi energy is     2.4878 ev

!    total energy              =     -95.10393776 Ry
     Harris-Foulkes estimate   =     -95.10393776 Ry
     estimated scf accuracy    <          4.9E-11 Ry

     The total energy is the sum of the following terms:

     one-electron contribution =     -83.86542077 Ry
     hartree contribution      =      42.62829537 Ry
     xc contribution           =     -14.29454277 Ry
     ewald contribution        =     -39.57216810 Ry
     smearing contrib. (-TS)   =      -0.00010149 Ry

     convergence has been achieved in  11 iterations

     Forces acting on atoms (cartesian axes, Ry/au):

     atom    1 type  1   force =     0.00000000    0.00000000    0.00000000

     Total force =     0.000000     Total SCF correction =     0.000000


     Computing stress (Cartesian axis) and pressure

          total   stress  (Ry/bohr**3)                   (kbar)     P=   17.46
   0.00011870  -0.00000000   0.00000000         17.46     -0.00      0.00
  -0.00000000   0.00011870  -0.00000000         -0.00     17.46     -0.00
   0.00000000  -0.00000000   0.00011870          0.00     -0.00     17.46


     number of scf cycles    =   3
     number of bfgs steps    =   2

     enthalpy old            =     -95.0758290915 Ry
     enthalpy new            =     -95.0758389627 Ry

     CASE: enthalpy_new < enthalpy_old

     new trust radius        =       0.0037450227 bohr
     new conv_thr            =            1.0E-10 Ry

     new unit-cell volume =    205.86719 a.u.^3 (    30.50637 Ang^3 )
     density =      1.25140 g/cm^3

CELL_PARAMETERS (alat=  7.45990267)
   0.498627113   0.498627113   0.498627113
  -0.498627113   0.498627113   0.498627113
  -0.498627113  -0.498627113   0.498627113

ATOMIC_POSITIONS (crystal)
Na       0.000000000   0.000000000   0.000000000



     Writing output data file na.bcc.save
     NEW-OLD atomic charge density approx. for the potential
     extrapolated charge    8.96477, renormalised to    9.00000

     total cpu time spent up to now is       31.1 secs

     per-process dynamical memory:    27.0 Mb

     Self-consistent Calculation

     iteration #  1     ecut=    40.00 Ry     beta=0.70
     Davidson diagonalization with overlap
     ethr =  1.00E-06,  avg # of iterations =  2.0

     total cpu time spent up to now is       32.4 secs

     total energy              =     -95.10304479 Ry
     Harris-Foulkes estimate   =     -95.36445671 Ry
     estimated scf accuracy    <       0.00044563 Ry

     iteration #  2     ecut=    40.00 Ry     beta=0.70
     Davidson diagonalization with overlap
     ethr =  4.95E-06,  avg # of iterations =  2.9

     total cpu time spent up to now is       33.9 secs

     total energy              =     -95.10385363 Ry
     Harris-Foulkes estimate   =     -95.10418119 Ry
     estimated scf accuracy    <       0.00074610 Ry

     iteration #  3     ecut=    40.00 Ry     beta=0.70
     Davidson diagonalization with overlap
     ethr =  4.95E-06,  avg # of iterations =  1.7

     total cpu time spent up to now is       34.9 secs

     total energy              =     -95.10385877 Ry
     Harris-Foulkes estimate   =     -95.10390326 Ry
     estimated scf accuracy    <       0.00014336 Ry

     iteration #  4     ecut=    40.00 Ry     beta=0.70
     Davidson diagonalization with overlap
     ethr =  1.59E-06,  avg # of iterations =  1.0

     total cpu time spent up to now is       35.8 secs

     total energy              =     -95.10384634 Ry
     Harris-Foulkes estimate   =     -95.10386431 Ry
     estimated scf accuracy    <       0.00005319 Ry

     iteration #  5     ecut=    40.00 Ry     beta=0.70
     Davidson diagonalization with overlap
     ethr =  5.91E-07,  avg # of iterations =  1.0

     total cpu time spent up to now is       36.8 secs

     total energy              =     -95.10384240 Ry
     Harris-Foulkes estimate   =     -95.10384837 Ry
     estimated scf accuracy    <       0.00001834 Ry

     iteration #  6     ecut=    40.00 Ry     beta=0.70
     Davidson diagonalization with overlap
     ethr =  2.04E-07,  avg # of iterations =  1.0

     total cpu time spent up to now is       37.7 secs

     total energy              =     -95.10383933 Ry
     Harris-Foulkes estimate   =     -95.10384304 Ry
     estimated scf accuracy    <       0.00000675 Ry

     iteration #  7     ecut=    40.00 Ry     beta=0.70
     Davidson diagonalization with overlap
     ethr =  7.50E-08,  avg # of iterations =  1.7

     total cpu time spent up to now is       38.7 secs

     total energy              =     -95.10383984 Ry
     Harris-Foulkes estimate   =     -95.10384010 Ry
     estimated scf accuracy    <       0.00000047 Ry

     iteration #  8     ecut=    40.00 Ry     beta=0.70
     Davidson diagonalization with overlap
     ethr =  5.22E-09,  avg # of iterations =  2.0

     total cpu time spent up to now is       39.8 secs

     total energy              =     -95.10383991 Ry
     Harris-Foulkes estimate   =     -95.10383992 Ry
     estimated scf accuracy    <       0.00000002 Ry

     iteration #  9     ecut=    40.00 Ry     beta=0.70
     Davidson diagonalization with overlap
     ethr =  2.60E-10,  avg # of iterations =  1.0

     total cpu time spent up to now is       40.8 secs

     total energy              =     -95.10383991 Ry
     Harris-Foulkes estimate   =     -95.10383991 Ry
     estimated scf accuracy    <          2.9E-09 Ry

     iteration # 10     ecut=    40.00 Ry     beta=0.70
     Davidson diagonalization with overlap
     ethr =  3.19E-11,  avg # of iterations =  2.0

     total cpu time spent up to now is       41.8 secs

     total energy              =     -95.10383991 Ry
     Harris-Foulkes estimate   =     -95.10383991 Ry
     estimated scf accuracy    <          7.2E-10 Ry

     iteration # 11     ecut=    40.00 Ry     beta=0.70
     Davidson diagonalization with overlap
     ethr =  7.96E-12,  avg # of iterations =  2.0

     total cpu time spent up to now is       42.9 secs

     End of self-consistent calculation

     Number of k-points >= 100: set verbosity='high' to print the bands.

     the Fermi energy is     2.5079 ev

!    total energy              =     -95.10383991 Ry
     Harris-Foulkes estimate   =     -95.10383991 Ry
     estimated scf accuracy    <          6.4E-12 Ry

     The total energy is the sum of the following terms:

     one-electron contribution =     -83.77541815 Ry
     hartree contribution      =      42.59058371 Ry
     xc contribution           =     -14.29512528 Ry
     ewald contribution        =     -39.62377856 Ry
     smearing contrib. (-TS)   =      -0.00010163 Ry

     convergence has been achieved in  11 iterations

     Forces acting on atoms (cartesian axes, Ry/au):

     atom    1 type  1   force =     0.00000000    0.00000000    0.00000000

     Total force =     0.000000     Total SCF correction =     0.000000


     Computing stress (Cartesian axis) and pressure

          total   stress  (Ry/bohr**3)                   (kbar)     P=   18.18
   0.00012360  -0.00000000   0.00000000         18.18     -0.00      0.00
  -0.00000000   0.00012360  -0.00000000         -0.00     18.18     -0.00
   0.00000000  -0.00000000   0.00012360          0.00     -0.00     18.18


     number of scf cycles    =   4
     number of bfgs steps    =   3

     enthalpy old            =     -95.0758389627 Ry
     enthalpy new            =     -95.0758507721 Ry

     CASE: enthalpy_new < enthalpy_old

     new trust radius        =       0.0056138743 bohr
     new conv_thr            =            1.0E-10 Ry

     new unit-cell volume =    204.66133 a.u.^3 (    30.32768 Ang^3 )
     density =      1.25878 g/cm^3

CELL_PARAMETERS (alat=  7.45990267)
   0.497651640   0.497651640   0.497651640
  -0.497651640   0.497651640   0.497651640
  -0.497651640  -0.497651640   0.497651640

ATOMIC_POSITIONS (crystal)
Na       0.000000000   0.000000000   0.000000000



     Writing output data file na.bcc.save
     NEW-OLD atomic charge density approx. for the potential
     extrapolated charge    8.94701, renormalised to    9.00000

     total cpu time spent up to now is       44.2 secs

     per-process dynamical memory:    27.0 Mb

     Self-consistent Calculation

     iteration #  1     ecut=    40.00 Ry     beta=0.70
     Davidson diagonalization with overlap
     ethr =  1.00E-06,  avg # of iterations =  2.5

     total cpu time spent up to now is       45.5 secs

     total energy              =     -95.10190147 Ry
     Harris-Foulkes estimate   =     -95.49483726 Ry
     estimated scf accuracy    <       0.00100088 Ry

     iteration #  2     ecut=    40.00 Ry     beta=0.70
     Davidson diagonalization with overlap
     ethr =  1.11E-05,  avg # of iterations =  2.9

     total cpu time spent up to now is       47.0 secs

     total energy              =     -95.10371657 Ry
     Harris-Foulkes estimate   =     -95.10445229 Ry
     estimated scf accuracy    <       0.00167580 Ry

     iteration #  3     ecut=    40.00 Ry     beta=0.70
     Davidson diagonalization with overlap
     ethr =  1.11E-05,  avg # of iterations =  1.7

     total cpu time spent up to now is       48.0 secs

     total energy              =     -95.10372916 Ry
     Harris-Foulkes estimate   =     -95.10382848 Ry
     estimated scf accuracy    <       0.00032071 Ry

     iteration #  4     ecut=    40.00 Ry     beta=0.70
     Davidson diagonalization with overlap
     ethr =  3.56E-06,  avg # of iterations =  1.0

     total cpu time spent up to now is       48.9 secs

     total energy              =     -95.10370114 Ry
     Harris-Foulkes estimate   =     -95.10374154 Ry
     estimated scf accuracy    <       0.00011922 Ry

     iteration #  5     ecut=    40.00 Ry     beta=0.70
     Davidson diagonalization with overlap
     ethr =  1.32E-06,  avg # of iterations =  1.0

     total cpu time spent up to now is       49.9 secs

     total energy              =     -95.10369277 Ry
     Harris-Foulkes estimate   =     -95.10370572 Ry
     estimated scf accuracy    <       0.00004089 Ry

     iteration #  6     ecut=    40.00 Ry     beta=0.70
     Davidson diagonalization with overlap
     ethr =  4.54E-07,  avg # of iterations =  1.0

     total cpu time spent up to now is       50.8 secs

     total energy              =     -95.10368553 Ry
     Harris-Foulkes estimate   =     -95.10369411 Ry
     estimated scf accuracy    <       0.00001561 Ry

     iteration #  7     ecut=    40.00 Ry     beta=0.70
     Davidson diagonalization with overlap
     ethr =  1.73E-07,  avg # of iterations =  1.7

     total cpu time spent up to now is       51.8 secs

     total energy              =     -95.10368671 Ry
     Harris-Foulkes estimate   =     -95.10368730 Ry
     estimated scf accuracy    <       0.00000106 Ry

     iteration #  8     ecut=    40.00 Ry     beta=0.70
     Davidson diagonalization with overlap
     ethr =  1.18E-08,  avg # of iterations =  2.0

     total cpu time spent up to now is       52.9 secs

     total energy              =     -95.10368687 Ry
     Harris-Foulkes estimate   =     -95.10368690 Ry
     estimated scf accuracy    <       0.00000005 Ry

     iteration #  9     ecut=    40.00 Ry     beta=0.70
     Davidson diagonalization with overlap
     ethr =  5.99E-10,  avg # of iterations =  1.0

     total cpu time spent up to now is       53.8 secs

     total energy              =     -95.10368688 Ry
     Harris-Foulkes estimate   =     -95.10368688 Ry
     estimated scf accuracy    <          6.6E-09 Ry

     iteration # 10     ecut=    40.00 Ry     beta=0.70
     Davidson diagonalization with overlap
     ethr =  7.31E-11,  avg # of iterations =  2.0

     total cpu time spent up to now is       54.9 secs

     total energy              =     -95.10368688 Ry
     Harris-Foulkes estimate   =     -95.10368688 Ry
     estimated scf accuracy    <          1.6E-09 Ry

     iteration # 11     ecut=    40.00 Ry     beta=0.70
     Davidson diagonalization with overlap
     ethr =  1.82E-11,  avg # of iterations =  2.0

     total cpu time spent up to now is       56.0 secs

     End of self-consistent calculation

     Number of k-points >= 100: set verbosity='high' to print the bands.

     the Fermi energy is     2.5382 ev

!    total energy              =     -95.10368688 Ry
     Harris-Foulkes estimate   =     -95.10368688 Ry
     estimated scf accuracy    <          4.1E-11 Ry

     The total energy is the sum of the following terms:

     one-electron contribution =     -83.63992637 Ry
     hartree contribution      =      42.53377608 Ry
     xc contribution           =     -14.29598759 Ry
     ewald contribution        =     -39.70144716 Ry
     smearing contrib. (-TS)   =      -0.00010184 Ry

     convergence has been achieved in  11 iterations

     Forces acting on atoms (cartesian axes, Ry/au):

     atom    1 type  1   force =     0.00000000    0.00000000    0.00000000

     Total force =     0.000000     Total SCF correction =     0.000000


     Computing stress (Cartesian axis) and pressure

          total   stress  (Ry/bohr**3)                   (kbar)     P=   19.13
   0.00013003  -0.00000000   0.00000000         19.13     -0.00      0.00
  -0.00000000   0.00013003  -0.00000000         -0.00     19.13     -0.00
   0.00000000  -0.00000000   0.00013003          0.00     -0.00     19.13


     number of scf cycles    =   5
     number of bfgs steps    =   4

     enthalpy old            =     -95.0758507721 Ry
     enthalpy new            =     -95.0758616830 Ry

     CASE: enthalpy_new < enthalpy_old

     new trust radius        =       0.0051324058 bohr
     new conv_thr            =            1.0E-10 Ry

     new unit-cell volume =    203.56194 a.u.^3 (    30.16477 Ang^3 )
     density =      1.26558 g/cm^3

CELL_PARAMETERS (alat=  7.45990267)
   0.496758955   0.496758955   0.496758955
  -0.496758955   0.496758955   0.496758955
  -0.496758955  -0.496758955   0.496758955

ATOMIC_POSITIONS (crystal)
Na       0.000000000   0.000000000   0.000000000



     Writing output data file na.bcc.save
     NEW-OLD atomic charge density approx. for the potential
     extrapolated charge    8.95143, renormalised to    9.00000

     total cpu time spent up to now is       57.2 secs

     per-process dynamical memory:    27.0 Mb

     Self-consistent Calculation

     iteration #  1     ecut=    40.00 Ry     beta=0.70
     Davidson diagonalization with overlap
     ethr =  1.00E-06,  avg # of iterations =  2.3

     total cpu time spent up to now is       58.6 secs

     total energy              =     -95.10203828 Ry
     Harris-Foulkes estimate   =     -95.46154012 Ry
     estimated scf accuracy    <       0.00084205 Ry

     iteration #  2     ecut=    40.00 Ry     beta=0.70
     Davidson diagonalization with overlap
     ethr =  9.36E-06,  avg # of iterations =  2.9

     total cpu time spent up to now is       60.0 secs

     total energy              =     -95.10356534 Ry
     Harris-Foulkes estimate   =     -95.10418423 Ry
     estimated scf accuracy    <       0.00140964 Ry

     iteration #  3     ecut=    40.00 Ry     beta=0.70
     Davidson diagonalization with overlap
     ethr =  9.36E-06,  avg # of iterations =  1.7

     total cpu time spent up to now is       61.0 secs

     total energy              =     -95.10357622 Ry
     Harris-Foulkes estimate   =     -95.10365939 Ry
     estimated scf accuracy    <       0.00027004 Ry

     iteration #  4     ecut=    40.00 Ry     beta=0.70
     Davidson diagonalization with overlap
     ethr =  3.00E-06,  avg # of iterations =  1.0

     total cpu time spent up to now is       62.0 secs

     total energy              =     -95.10355256 Ry
     Harris-Foulkes estimate   =     -95.10358655 Ry
     estimated scf accuracy    <       0.00010113 Ry

     iteration #  5     ecut=    40.00 Ry     beta=0.70
     Davidson diagonalization with overlap
     ethr =  1.12E-06,  avg # of iterations =  1.0

     total cpu time spent up to now is       62.9 secs

     total energy              =     -95.10354508 Ry
     Harris-Foulkes estimate   =     -95.10355636 Ry
     estimated scf accuracy    <       0.00003515 Ry

     iteration #  6     ecut=    40.00 Ry     beta=0.70
     Davidson diagonalization with overlap
     ethr =  3.91E-07,  avg # of iterations =  1.0

     total cpu time spent up to now is       63.8 secs

     total energy              =     -95.10353864 Ry
     Harris-Foulkes estimate   =     -95.10354626 Ry
     estimated scf accuracy    <       0.00001318 Ry

     iteration #  7     ecut=    40.00 Ry     beta=0.70
     Davidson diagonalization with overlap
     ethr =  1.46E-07,  avg # of iterations =  2.0

     total cpu time spent up to now is       64.9 secs

     total energy              =     -95.10354004 Ry
     Harris-Foulkes estimate   =     -95.10354040 Ry
     estimated scf accuracy    <       0.00000056 Ry

     iteration #  8     ecut=    40.00 Ry     beta=0.70
     Davidson diagonalization with overlap
     ethr =  6.21E-09,  avg # of iterations =  2.0

     total cpu time spent up to now is       66.0 secs

     total energy              =     -95.10354016 Ry
     Harris-Foulkes estimate   =     -95.10354016 Ry
     estimated scf accuracy    <          1.7E-09 Ry

     iteration #  9     ecut=    40.00 Ry     beta=0.70
     Davidson diagonalization with overlap
     ethr =  1.94E-11,  avg # of iterations =  1.7

     total cpu time spent up to now is       67.0 secs

     total energy              =     -95.10354016 Ry
     Harris-Foulkes estimate   =     -95.10354016 Ry
     estimated scf accuracy    <          2.7E-09 Ry

     iteration # 10     ecut=    40.00 Ry     beta=0.70
     Davidson diagonalization with overlap
     ethr =  1.94E-11,  avg # of iterations =  1.0

     total cpu time spent up to now is       68.0 secs

     total energy              =     -95.10354016 Ry
     Harris-Foulkes estimate   =     -95.10354016 Ry
     estimated scf accuracy    <          4.7E-09 Ry

     iteration # 11     ecut=    40.00 Ry     beta=0.70
     Davidson diagonalization with overlap
     ethr =  1.94E-11,  avg # of iterations =  2.0

     total cpu time spent up to now is       69.1 secs

     total energy              =     -95.10354016 Ry
     Harris-Foulkes estimate   =     -95.10354016 Ry
     estimated scf accuracy    <          2.0E-10 Ry

     iteration # 12     ecut=    40.00 Ry     beta=0.70
     Davidson diagonalization with overlap
     ethr =  2.20E-12,  avg # of iterations =  2.0

     total cpu time spent up to now is       70.2 secs

     End of self-consistent calculation

     Number of k-points >= 100: set verbosity='high' to print the bands.

     the Fermi energy is     2.5661 ev

!    total energy              =     -95.10354016 Ry
     Harris-Foulkes estimate   =     -95.10354016 Ry
     estimated scf accuracy    <          7.5E-12 Ry

     The total energy is the sum of the following terms:

     one-electron contribution =     -83.51552271 Ry
     hartree contribution      =      42.48166455 Ry
     xc contribution           =     -14.29678852 Ry
     ewald contribution        =     -39.77279144 Ry
     smearing contrib. (-TS)   =      -0.00010204 Ry

     convergence has been achieved in  12 iterations

     Forces acting on atoms (cartesian axes, Ry/au):

     atom    1 type  1   force =     0.00000000    0.00000000    0.00000000

     Total force =     0.000000     Total SCF correction =     0.000000


     Computing stress (Cartesian axis) and pressure

          total   stress  (Ry/bohr**3)                   (kbar)     P=   20.07
   0.00013646  -0.00000000   0.00000000         20.07     -0.00      0.00
  -0.00000000   0.00013646  -0.00000000         -0.00     20.07     -0.00
   0.00000000  -0.00000000   0.00013646          0.00     -0.00     20.07


     bfgs converged in   6 scf cycles and   5 bfgs steps
     (criteria: energy <  1.0E-04 Ry, force <  1.0E-03Ry/Bohr, cell <  5.0E-01kbar)

     End of BFGS Geometry Optimization

     Final enthalpy =     -95.0758644342 Ry
Begin final coordinates
     new unit-cell volume =    203.56194 a.u.^3 (    30.16477 Ang^3 )
     density =      1.26558 g/cm^3

CELL_PARAMETERS (alat=  7.45990267)
   0.496758955   0.496758955   0.496758955
  -0.496758955   0.496758955   0.496758955
  -0.496758955  -0.496758955   0.496758955

ATOMIC_POSITIONS (crystal)
Na       0.000000000   0.000000000   0.000000000
End final coordinates



     A final scf calculation at the relaxed structure.
     The G-vectors are recalculated for the final unit cell
     Results may differ from those at the preceding step.

     Parallelization info
     --------------------
     sticks:   dense  smooth     PW     G-vecs:    dense   smooth      PW
     Min         245     121     39                 4869     1740     312
     Max         246     122     40                 4870     1742     314
     Sum         981     487    159                19477     6963    1253



     bravais-lattice index     =            3
     lattice parameter (alat)  =       7.4599  a.u.
     unit-cell volume          =     203.5619 (a.u.)^3
     number of atoms/cell      =            1
     number of atomic types    =            1
     number of electrons       =         9.00
     number of Kohn-Sham states=            9
     kinetic-energy cutoff     =      40.0000  Ry
     charge density cutoff     =     320.0000  Ry
     convergence threshold     =      1.0E-10
     mixing beta               =       0.7000
     number of iterations used =            8  plain     mixing
     Exchange-correlation      = SLA  PW   PBE  PBE ( 1  4  3  4 0 0)

     celldm(1)=   7.459903  celldm(2)=   0.000000  celldm(3)=   0.000000
     celldm(4)=   0.000000  celldm(5)=   0.000000  celldm(6)=   0.000000

     crystal axes: (cart. coord. in units of alat)
               a(1) = (   0.496759   0.496759   0.496759 )  
               a(2) = (  -0.496759   0.496759   0.496759 )  
               a(3) = (  -0.496759  -0.496759   0.496759 )  

     reciprocal axes: (cart. coord. in units 2 pi/alat)
               b(1) = (  1.006524 -0.000000  1.006524 )  
               b(2) = ( -1.006524  1.006524 -0.000000 )  
               b(3) = ( -0.000000 -1.006524  1.006524 )  


     PseudoPot. # 1 for Na read from file:
     /home/s1333534/quantum_espresso/qe-6.1/pseudo/Na_pbe_v1.uspp.F.UPF
     MD5 check sum: 76a99c7e9422403d3e93cbc85ab7bccb
     Pseudo is Ultrasoft, Zval =  9.0
     Generated by new atomic code, or converted to UPF format
     Using radial grid of  819 points,  5 beta functions with: 
                l(1) =   0
                l(2) =   0
                l(3) =   1
                l(4) =   1
                l(5) =   2
     Q(r) pseudized with  8 coefficients,  rinner =    1.250   1.250   1.250
                                                       1.250   1.250

     atomic species   valence    mass     pseudopotential
        Na             9.00    22.99000     Na( 1.00)

     48 Sym. Ops., with inversion, found



   Cartesian axes

     site n.     atom                  positions (alat units)
         1           Na  tau(   1) = (   0.0000000   0.0000000   0.0000000  )

     number of k points=   250  Marzari-Vanderbilt smearing, width (Ry)=  0.0200

     Number of k-points >= 100: set verbosity='high' to print them.

     Dense  grid:    19477 G-vectors     FFT dimensions: (  40,  40,  40)

     Smooth grid:     6963 G-vectors     FFT dimensions: (  25,  25,  25)

     Estimated max dynamical RAM per process >      10.83MB

     Estimated total allocated dynamical RAM >      43.31MB

     Initial potential from superposition of free atoms

     starting charge    8.99371, renormalised to    9.00000
     Starting wfc are    5 randomized atomic wfcs +    4 random wfc

     Writing output data file na.bcc.save

     total cpu time spent up to now is       71.8 secs

     per-process dynamical memory:    22.5 Mb

     Self-consistent Calculation

     iteration #  1     ecut=    40.00 Ry     beta=0.70
     Davidson diagonalization with overlap
     c_bands:  1 eigenvalues not converged
     c_bands:  1 eigenvalues not converged
     c_bands:  1 eigenvalues not converged
     ethr =  1.00E-06,  avg # of iterations = 11.4

     total cpu time spent up to now is       75.0 secs

     total energy              =     -95.10330977 Ry
     Harris-Foulkes estimate   =     -95.10364845 Ry
     estimated scf accuracy    <       0.00101810 Ry

     iteration #  2     ecut=    40.00 Ry     beta=0.70
     Davidson diagonalization with overlap
     ethr =  1.13E-05,  avg # of iterations =  2.0

     total cpu time spent up to now is       76.1 secs

     total energy              =     -95.10343954 Ry
     Harris-Foulkes estimate   =     -95.10347004 Ry
     estimated scf accuracy    <       0.00011699 Ry

     iteration #  3     ecut=    40.00 Ry     beta=0.70
     Davidson diagonalization with overlap
     ethr =  1.30E-06,  avg # of iterations =  2.0

     total cpu time spent up to now is       77.2 secs

     total energy              =     -95.10345257 Ry
     Harris-Foulkes estimate   =     -95.10345395 Ry
     estimated scf accuracy    <       0.00000722 Ry

     iteration #  4     ecut=    40.00 Ry     beta=0.70
     Davidson diagonalization with overlap
     ethr =  8.02E-08,  avg # of iterations =  1.0

     total cpu time spent up to now is       78.1 secs

     total energy              =     -95.10345320 Ry
     Harris-Foulkes estimate   =     -95.10345315 Ry
     estimated scf accuracy    <          9.1E-09 Ry

     iteration #  5     ecut=    40.00 Ry     beta=0.70
     Davidson diagonalization with overlap
     ethr =  1.01E-10,  avg # of iterations =  3.0

     total cpu time spent up to now is       79.4 secs

     total energy              =     -95.10345322 Ry
     Harris-Foulkes estimate   =     -95.10345322 Ry
     estimated scf accuracy    <          1.2E-09 Ry

     iteration #  6     ecut=    40.00 Ry     beta=0.70
     Davidson diagonalization with overlap
     ethr =  1.30E-11,  avg # of iterations =  1.6

     total cpu time spent up to now is       80.4 secs

     End of self-consistent calculation

     Number of k-points >= 100: set verbosity='high' to print the bands.

     the Fermi energy is     2.5659 ev

!    total energy              =     -95.10345322 Ry
     Harris-Foulkes estimate   =     -95.10345322 Ry
     estimated scf accuracy    <          5.0E-11 Ry

     The total energy is the sum of the following terms:

     one-electron contribution =     -83.51542336 Ry
     hartree contribution      =      42.48162850 Ry
     xc contribution           =     -14.29676489 Ry
     ewald contribution        =     -39.77279144 Ry
     smearing contrib. (-TS)   =      -0.00010204 Ry

     convergence has been achieved in   6 iterations

     Forces acting on atoms (cartesian axes, Ry/au):

     atom    1 type  1   force =     0.00000000    0.00000000    0.00000000

     Total force =     0.000000     Total SCF correction =     0.000000


     Computing stress (Cartesian axis) and pressure

          total   stress  (Ry/bohr**3)                   (kbar)     P=   19.74
   0.00013417   0.00000000   0.00000000         19.74      0.00      0.00
  -0.00000000   0.00013417  -0.00000000         -0.00     19.74     -0.00
   0.00000000  -0.00000000   0.00013417          0.00     -0.00     19.74


     Writing output data file na.bcc.save

     init_run     :      1.31s CPU      1.37s WALL (       2 calls)
     electrons    :     67.02s CPU     71.87s WALL (       7 calls)
     update_pot   :      0.95s CPU      0.96s WALL (       5 calls)
     forces       :      0.86s CPU      0.87s WALL (       7 calls)
     stress       :      4.23s CPU      4.26s WALL (       7 calls)

     Called by init_run:
     wfcinit      :      0.67s CPU      0.72s WALL (       2 calls)
     potinit      :      0.09s CPU      0.09s WALL (       2 calls)

     Called by electrons:
     c_bands      :     53.58s CPU     57.68s WALL (      64 calls)
     sum_band     :     11.77s CPU     12.49s WALL (      64 calls)
     v_of_rho     :      0.81s CPU      0.82s WALL (      70 calls)
     newd         :      0.90s CPU      0.91s WALL (      70 calls)
     mix_rho      :      0.06s CPU      0.06s WALL (      64 calls)

     Called by c_bands:
     init_us_2    :      3.88s CPU      3.65s WALL (   36000 calls)
     cegterg      :     50.06s CPU     54.17s WALL (   16000 calls)

     Called by sum_band:
     sum_band:bec :      0.02s CPU      0.05s WALL (   16000 calls)
     addusdens    :      0.97s CPU      0.98s WALL (      64 calls)

     Called by *egterg:
     h_psi        :     39.74s CPU     42.86s WALL (   47563 calls)
     s_psi        :      0.57s CPU      0.64s WALL (   47563 calls)
     g_psi        :      0.35s CPU      0.37s WALL (   31063 calls)
     cdiaghg      :      5.72s CPU      6.06s WALL (   45563 calls)

     Called by h_psi:
     h_psi:pot    :     39.55s CPU     42.58s WALL (   47563 calls)
     h_psi:calbec :      0.87s CPU      1.02s WALL (   47563 calls)
     vloc_psi     :     37.89s CPU     40.74s WALL (   47563 calls)
     add_vuspsi   :      0.71s CPU      0.71s WALL (   47563 calls)

     General routines
     calbec       :      1.39s CPU      1.63s WALL (   72313 calls)
     fft          :      0.38s CPU      0.39s WALL (    1157 calls)
     ffts         :      0.01s CPU      0.01s WALL (     134 calls)
     fftw         :     39.83s CPU     41.43s WALL (  843630 calls)
     interpolate  :      0.06s CPU      0.07s WALL (     134 calls)
     davcio       :      0.00s CPU      0.01s WALL (     500 calls)

     Parallel routines
     fft_scatter  :      9.01s CPU     11.66s WALL (  844921 calls)

     PWSCF        :  1m16.13s CPU     1m21.19s WALL


   This run was terminated on:  16:56:59  20Dec2017            

=------------------------------------------------------------------------------=
   JOB DONE.
=------------------------------------------------------------------------------=
