
     Program MATDYN v.5.4.0 starts on  3Jun2016 at 17:25: 8 

     This program is part of the open-source Quantum ESPRESSO suite
     for quantum simulation of materials; please cite
         "P. Giannozzi et al., J. Phys.:Condens. Matter 21 395502 (2009);
          URL http://www.quantum-espresso.org", 
     in publications or presentations arising from this work. More details at
     http://www.quantum-espresso.org/quote

     Parallel version (MPI), running on     2 processors
     R & G space division:  proc/nbgrp/npool/nimage =       2
 mass for atomic type   1 not given; uses mass from file bcc-li.10x.fc                                                                                                                                                                                                                                                   
Norm of the difference between old and new effective charges:    0.00000000000000000000
Norm of the difference between old and new force-constants:   0.00000238642718450298
     Message from routine matdyn:
     Z* not found in file bcc-li.10x.fc, TO-LO splitting at q=0 will be absent!
     A direction for q was not specified:TO-LO splitting will be absent
     Message from routine matdyn:
     Z* not found in file bcc-li.10x.fc, TO-LO splitting at q=0 will be absent!
     A direction for q was not specified:TO-LO splitting will be absent

     MATDYN       :     0.29s CPU         0.22s WALL


   This run was terminated on:  17:25: 8   3Jun2016            

=------------------------------------------------------------------------------=
   JOB DONE.
=------------------------------------------------------------------------------=
