
     Program PHONON v.6.1 (svn rev. 13369) starts on 13Feb2018 at 10:28: 0 

     This program is part of the open-source Quantum ESPRESSO suite
     for quantum simulation of materials; please cite
         "P. Giannozzi et al., J. Phys.:Condens. Matter 21 395502 (2009);
          URL http://www.quantum-espresso.org", 
     in publications or presentations arising from this work. More details at
     http://www.quantum-espresso.org/quote

     Parallel version (MPI), running on    64 processors
     K-points division:     npool     =       4
     R & G space division:  proc/nbgrp/npool/nimage =      16

     Reading data from directory:
     ./na.fcc.save

   Info: using nr1, nr2, nr3 values from input

   Info: using nr1, nr2, nr3 values from input

     IMPORTANT: XC functional enforced from input :
     Exchange-correlation      = SLA  PW   PBE  PBE ( 1  4  3  4 0 0)
     Any further DFT definition will be discarded
     Please, verify this is what you really want


     Parallelization info
     --------------------
     sticks:   dense  smooth     PW     G-vecs:    dense   smooth      PW
     Min          75      37     12                 1744      614     117
     Max          76      38     13                 1747      618     120
     Sum        1213     595    199                27941     9841    1893



     Dynamical matrices for ( 6, 6, 6)  uniform grid of q-points
     (  16q-points):
       N         xq(1)         xq(2)         xq(3) 
       1   0.000000000   0.000000000   0.000000000
       2  -0.166666667   0.166666667  -0.166666667
       3  -0.333333333   0.333333333  -0.333333333
       4   0.500000000  -0.500000000   0.500000000
       5   0.000000000   0.333333333   0.000000000
       6  -0.166666667   0.500000000  -0.166666667
       7   0.666666667  -0.333333333   0.666666667
       8   0.500000000  -0.166666667   0.500000000
       9   0.333333333   0.000000000   0.333333333
      10   0.000000000   0.666666667   0.000000000
      11   0.833333333  -0.166666667   0.833333333
      12   0.666666667  -0.000000000   0.666666667
      13   0.000000000  -1.000000000   0.000000000
      14   0.666666667  -0.333333333   1.000000000
      15   0.500000000  -0.166666667   0.833333333
      16  -0.333333333  -1.000000000   0.000000000

     Calculation of q =    0.0000000   0.0000000   0.0000000

                                                                                

     bravais-lattice index     =            2
     lattice parameter (alat)  =      10.5000  a.u.
     unit-cell volume          =     289.4062 (a.u.)^3
     number of atoms/cell      =            1
     number of atomic types    =            1
     kinetic-energy cut-off    =      40.0000  Ry
     charge density cut-off    =     320.0000  Ry
     convergence threshold     =      1.0E-16
     beta                      =       0.7000
     number of iterations used =            4
     Exchange-correlation      = SLA  PW   PBE  PBE ( 1  4  3  4 0 0)


     celldm(1)=   10.50000  celldm(2)=    0.00000  celldm(3)=    0.00000
     celldm(4)=    0.00000  celldm(5)=    0.00000  celldm(6)=    0.00000

     crystal axes: (cart. coord. in units of alat)
               a(1) = ( -0.5000  0.0000  0.5000 )  
               a(2) = (  0.0000  0.5000  0.5000 )  
               a(3) = ( -0.5000  0.5000  0.0000 )  

     reciprocal axes: (cart. coord. in units 2 pi/alat)
               b(1) = ( -1.0000 -1.0000  1.0000 )  
               b(2) = (  1.0000  1.0000  1.0000 )  
               b(3) = ( -1.0000  1.0000 -1.0000 )  


     Atoms inside the unit cell: 

     Cartesian axes

     site n.  atom      mass           positions (alat units)
        1     Na  22.9900   tau(    1) = (    0.00000    0.00000    0.00000  )

     Computing dynamical matrix for 
                    q = (   0.0000000   0.0000000   0.0000000 )

     49 Sym.Ops. (with q -> -q+G )


     G cutoff =  893.6528  (   1747 G-vectors)     FFT grid: ( 45, 45, 45)
     G cutoff =  446.8264  (    618 G-vectors)  smooth grid: ( 30, 30, 30)

     number of k points=   770  Marzari-Vanderbilt smearing, width (Ry)=  0.0200

     PseudoPot. # 1 for Na read from file:
     /home/s1333534/quantum_espresso/qe-6.1/pseudo/Na_pbe_v1.uspp.F.UPF
     MD5 check sum: 76a99c7e9422403d3e93cbc85ab7bccb
     Pseudo is Ultrasoft, Zval =  9.0
     Generated by new atomic code, or converted to UPF format
     Using radial grid of  819 points,  5 beta functions with: 
                l(1) =   0
                l(2) =   0
                l(3) =   1
                l(4) =   1
                l(5) =   2
     Q(r) pseudized with  8 coefficients,  rinner =    1.250   1.250   1.250
                                                       1.250   1.250

     Mode symmetry, O_h (m-3m)  point group:


     Atomic displacements:
     There are   1 irreducible representations

     Representation     1      3 modes -T_1u G_15  G_4-  To be done



     Alpha used in Ewald sum =   2.8000
     PHONON       :     7.66s CPU         8.18s WALL



     Representation #  1 modes #   1  2  3

     Self-consistent Calculation

     Pert. #  1: Fermi energy shift (Ry) =    -5.1699E-26     3.7616E-37
     Pert. #  2: Fermi energy shift (Ry) =     0.0000E+00     4.7020E-38
     Pert. #  3: Fermi energy shift (Ry) =     9.0473E-26     0.0000E+00

      iter #   1 total cpu time :    19.7 secs   av.it.:   5.3
      thresh= 1.000E-02 alpha_mix =  0.700 |ddv_scf|^2 =  7.883E-07

     Pert. #  1: Fermi energy shift (Ry) =    -6.8932E-26     0.0000E+00
     Pert. #  2: Fermi energy shift (Ry) =    -1.2925E-26     3.6734E-40
     Pert. #  3: Fermi energy shift (Ry) =    -3.4466E-26     3.9795E-40

      iter #   2 total cpu time :    32.8 secs   av.it.:   8.5
      thresh= 8.879E-05 alpha_mix =  0.700 |ddv_scf|^2 =  1.467E-08

     Pert. #  1: Fermi energy shift (Ry) =    -2.5849E-26     6.1224E-41
     Pert. #  2: Fermi energy shift (Ry) =     6.4623E-27    -2.2959E-41
     Pert. #  3: Fermi energy shift (Ry) =     2.6926E-27    -9.9488E-41

      iter #   3 total cpu time :    46.2 secs   av.it.:   8.6
      thresh= 1.211E-05 alpha_mix =  0.700 |ddv_scf|^2 =  3.722E-10

     Pert. #  1: Fermi energy shift (Ry) =    -8.0779E-27     9.5662E-43
     Pert. #  2: Fermi energy shift (Ry) =    -5.9238E-27     8.1313E-42
     Pert. #  3: Fermi energy shift (Ry) =     1.3463E-27    -1.4349E-41

      iter #   4 total cpu time :    59.1 secs   av.it.:   8.1
      thresh= 1.929E-06 alpha_mix =  0.700 |ddv_scf|^2 =  1.371E-12

     Pert. #  1: Fermi energy shift (Ry) =     1.9387E-26     9.5662E-42
     Pert. #  2: Fermi energy shift (Ry) =    -5.3853E-28     4.7831E-42
     Pert. #  3: Fermi energy shift (Ry) =    -1.1848E-26     6.2180E-42

      iter #   5 total cpu time :    72.3 secs   av.it.:   8.5
      thresh= 1.171E-07 alpha_mix =  0.700 |ddv_scf|^2 =  2.310E-15

     Pert. #  1: Fermi energy shift (Ry) =    -9.6935E-27     3.8265E-42
     Pert. #  2: Fermi energy shift (Ry) =     4.8468E-27    -3.8265E-42
     Pert. #  3: Fermi energy shift (Ry) =     2.4234E-27    -4.3048E-42

      iter #   6 total cpu time :    85.0 secs   av.it.:   7.7
      thresh= 4.807E-09 alpha_mix =  0.700 |ddv_scf|^2 =  7.366E-17

     End of self-consistent calculation

     Convergence has been achieved 

     Number of q in the star =    1
     List of q in the star:
          1   0.000000000   0.000000000   0.000000000

     Diagonalizing the dynamical matrix

     q = (    0.000000000   0.000000000   0.000000000 ) 

 **************************************************************************
     freq (    1) =      -0.487245 [THz] =     -16.252760 [cm-1]
     freq (    2) =      -0.487245 [THz] =     -16.252760 [cm-1]
     freq (    3) =      -0.487245 [THz] =     -16.252760 [cm-1]
 **************************************************************************

     Mode symmetry, O_h (m-3m)  point group:

     freq (  1 -  3) =        -16.3  [cm-1]   --> T_1u G_15  G_4- I  

     Calculation of q =   -0.1666667   0.1666667  -0.1666667

   Info: using nr1, nr2, nr3 values from input

   Info: using nr1, nr2, nr3 values from input

     Parallelization info
     --------------------
     sticks:   dense  smooth     PW     G-vecs:    dense   smooth      PW
     Min          75      37     13                 1744      614     123
     Max          76      38     14                 1747      618     126
     Sum        1213     595    211                27941     9841    1989



     bravais-lattice index     =            2
     lattice parameter (alat)  =      10.5000  a.u.
     unit-cell volume          =     289.4062 (a.u.)^3
     number of atoms/cell      =            1
     number of atomic types    =            1
     number of electrons       =         9.00
     number of Kohn-Sham states=            9
     kinetic-energy cutoff     =      40.0000  Ry
     charge density cutoff     =     320.0000  Ry
     Exchange-correlation      = SLA  PW   PBE  PBE ( 1  4  3  4 0 0)

     celldm(1)=  10.500000  celldm(2)=   0.000000  celldm(3)=   0.000000
     celldm(4)=   0.000000  celldm(5)=   0.000000  celldm(6)=   0.000000

     crystal axes: (cart. coord. in units of alat)
               a(1) = (  -0.500000   0.000000   0.500000 )  
               a(2) = (   0.000000   0.500000   0.500000 )  
               a(3) = (  -0.500000   0.500000   0.000000 )  

     reciprocal axes: (cart. coord. in units 2 pi/alat)
               b(1) = ( -1.000000 -1.000000  1.000000 )  
               b(2) = (  1.000000  1.000000  1.000000 )  
               b(3) = ( -1.000000  1.000000 -1.000000 )  


     PseudoPot. # 1 for Na read from file:
     /home/s1333534/quantum_espresso/qe-6.1/pseudo/Na_pbe_v1.uspp.F.UPF
     MD5 check sum: 76a99c7e9422403d3e93cbc85ab7bccb
     Pseudo is Ultrasoft, Zval =  9.0
     Generated by new atomic code, or converted to UPF format
     Using radial grid of  819 points,  5 beta functions with: 
                l(1) =   0
                l(2) =   0
                l(3) =   1
                l(4) =   1
                l(5) =   2
     Q(r) pseudized with  8 coefficients,  rinner =    1.250   1.250   1.250
                                                       1.250   1.250

     atomic species   valence    mass     pseudopotential
        Na             9.00    22.99000     Na( 1.00)

     48 Sym. Ops., with inversion, found



   Cartesian axes

     site n.     atom                  positions (alat units)
         1           Na  tau(   1) = (   0.0000000   0.0000000   0.0000000  )

     number of k points= 11480  Marzari-Vanderbilt smearing, width (Ry)=  0.0200

     Number of k-points >= 100: set verbosity='high' to print them.

     Dense  grid:    27941 G-vectors     FFT dimensions: (  45,  45,  45)

     Smooth grid:     9841 G-vectors     FFT dimensions: (  30,  30,  30)

     Estimated max dynamical RAM per process >       0.96MB

     Estimated total allocated dynamical RAM >      61.39MB

     The potential is recalculated from file :
     ./_ph0/na.fcc.save/charge-density.dat

     Starting wfc are    5 atomic +    4 random wfc

     Band Structure Calculation
     Davidson diagonalization with overlap

     ethr =  1.11E-10,  avg # of iterations = 21.5

     total cpu time spent up to now is      213.0 secs

     End of band structure calculation

     Number of k-points >= 100: set verbosity='high' to print the bands.

     the Fermi energy is     1.0432 ev

     Writing output data file na.fcc.save

                                                                                

     bravais-lattice index     =            2
     lattice parameter (alat)  =      10.5000  a.u.
     unit-cell volume          =     289.4062 (a.u.)^3
     number of atoms/cell      =            1
     number of atomic types    =            1
     kinetic-energy cut-off    =      40.0000  Ry
     charge density cut-off    =     320.0000  Ry
     convergence threshold     =      1.0E-16
     beta                      =       0.7000
     number of iterations used =            4
     Exchange-correlation      = SLA  PW   PBE  PBE ( 1  4  3  4 0 0)


     celldm(1)=   10.50000  celldm(2)=    0.00000  celldm(3)=    0.00000
     celldm(4)=    0.00000  celldm(5)=    0.00000  celldm(6)=    0.00000

     crystal axes: (cart. coord. in units of alat)
               a(1) = ( -0.5000  0.0000  0.5000 )  
               a(2) = (  0.0000  0.5000  0.5000 )  
               a(3) = ( -0.5000  0.5000  0.0000 )  

     reciprocal axes: (cart. coord. in units 2 pi/alat)
               b(1) = ( -1.0000 -1.0000  1.0000 )  
               b(2) = (  1.0000  1.0000  1.0000 )  
               b(3) = ( -1.0000  1.0000 -1.0000 )  


     Atoms inside the unit cell: 

     Cartesian axes

     site n.  atom      mass           positions (alat units)
        1     Na  22.9900   tau(    1) = (    0.00000    0.00000    0.00000  )

     Computing dynamical matrix for 
                    q = (  -0.1666667   0.1666667  -0.1666667 )

      6 Sym.Ops. (no q -> -q+G )


     G cutoff =  893.6528  (   1747 G-vectors)     FFT grid: ( 45, 45, 45)
     G cutoff =  446.8264  (    618 G-vectors)  smooth grid: ( 30, 30, 30)

     number of k points= 11480  Marzari-Vanderbilt smearing, width (Ry)=  0.0200

     PseudoPot. # 1 for Na read from file:
     /home/s1333534/quantum_espresso/qe-6.1/pseudo/Na_pbe_v1.uspp.F.UPF
     MD5 check sum: 76a99c7e9422403d3e93cbc85ab7bccb
     Pseudo is Ultrasoft, Zval =  9.0
     Generated by new atomic code, or converted to UPF format
     Using radial grid of  819 points,  5 beta functions with: 
                l(1) =   0
                l(2) =   0
                l(3) =   1
                l(4) =   1
                l(5) =   2
     Q(r) pseudized with  8 coefficients,  rinner =    1.250   1.250   1.250
                                                       1.250   1.250

     Mode symmetry, C_3v (3m)   point group:


     Atomic displacements:
     There are   2 irreducible representations

     Representation     1      1 modes -A_1  L_1  To be done

     Representation     2      2 modes -E    L_3  To be done



     Alpha used in Ewald sum =   2.8000
     PHONON       :  5m23.71s CPU     5m40.61s WALL



     Representation #  1 mode #   1

     Self-consistent Calculation

      iter #   1 total cpu time :   365.4 secs   av.it.:   5.7
      thresh= 1.000E-02 alpha_mix =  0.700 |ddv_scf|^2 =  2.090E-02

      iter #   2 total cpu time :   389.4 secs   av.it.:   6.3
      thresh= 1.000E-02 alpha_mix =  0.700 |ddv_scf|^2 =  3.750E+00

      iter #   3 total cpu time :   413.2 secs   av.it.:   6.3
      thresh= 1.000E-02 alpha_mix =  0.700 |ddv_scf|^2 =  2.548E-07

      iter #   4 total cpu time :   442.4 secs   av.it.:   8.3
      thresh= 5.047E-05 alpha_mix =  0.700 |ddv_scf|^2 =  2.679E-08

      iter #   5 total cpu time :   469.9 secs   av.it.:   7.7
      thresh= 1.637E-05 alpha_mix =  0.700 |ddv_scf|^2 =  2.726E-09

      iter #   6 total cpu time :   497.1 secs   av.it.:   7.6
      thresh= 5.221E-06 alpha_mix =  0.700 |ddv_scf|^2 =  1.671E-08

      iter #   7 total cpu time :   514.6 secs   av.it.:   4.2
      thresh= 1.293E-05 alpha_mix =  0.700 |ddv_scf|^2 =  2.671E-10

      iter #   8 total cpu time :   541.2 secs   av.it.:   7.6
      thresh= 1.634E-06 alpha_mix =  0.700 |ddv_scf|^2 =  1.117E-11

      iter #   9 total cpu time :   567.8 secs   av.it.:   7.5
      thresh= 3.342E-07 alpha_mix =  0.700 |ddv_scf|^2 =  1.174E-12

      iter #  10 total cpu time :   594.6 secs   av.it.:   7.4
      thresh= 1.083E-07 alpha_mix =  0.700 |ddv_scf|^2 =  1.682E-13

      iter #  11 total cpu time :   620.8 secs   av.it.:   7.3
      thresh= 4.101E-08 alpha_mix =  0.700 |ddv_scf|^2 =  4.260E-16

      iter #  12 total cpu time :   648.5 secs   av.it.:   8.0
      thresh= 2.064E-09 alpha_mix =  0.700 |ddv_scf|^2 =  3.355E-16

      iter #  13 total cpu time :   673.4 secs   av.it.:   6.7
      thresh= 1.832E-09 alpha_mix =  0.700 |ddv_scf|^2 =  5.405E-15

      iter #  14 total cpu time :   696.8 secs   av.it.:   5.9
      thresh= 7.352E-09 alpha_mix =  0.700 |ddv_scf|^2 =  1.753E-18

     End of self-consistent calculation

     Convergence has been achieved 


     Representation #  2 modes #   2  3

     Self-consistent Calculation

      iter #   1 total cpu time :   747.5 secs   av.it.:   5.5
      thresh= 1.000E-02 alpha_mix =  0.700 |ddv_scf|^2 =  1.802E-06

      iter #   2 total cpu time :   806.9 secs   av.it.:   8.5
      thresh= 1.342E-04 alpha_mix =  0.700 |ddv_scf|^2 =  3.280E-08

      iter #   3 total cpu time :   866.6 secs   av.it.:   8.6
      thresh= 1.811E-05 alpha_mix =  0.700 |ddv_scf|^2 =  9.315E-10

      iter #   4 total cpu time :   924.6 secs   av.it.:   8.5
      thresh= 3.052E-06 alpha_mix =  0.700 |ddv_scf|^2 =  3.449E-12

      iter #   5 total cpu time :   984.7 secs   av.it.:   8.7
      thresh= 1.857E-07 alpha_mix =  0.700 |ddv_scf|^2 =  5.210E-15

      iter #   6 total cpu time :  1039.6 secs   av.it.:   7.6
      thresh= 7.218E-09 alpha_mix =  0.700 |ddv_scf|^2 =  2.033E-16

      iter #   7 total cpu time :  1099.5 secs   av.it.:   8.7
      thresh= 1.426E-09 alpha_mix =  0.700 |ddv_scf|^2 =  1.514E-19

     End of self-consistent calculation

     Convergence has been achieved 

     Number of q in the star =    8
     List of q in the star:
          1  -0.166666667   0.166666667  -0.166666667
          2   0.166666667   0.166666667   0.166666667
          3  -0.166666667  -0.166666667  -0.166666667
          4   0.166666667  -0.166666667   0.166666667
          5   0.166666667  -0.166666667  -0.166666667
          6   0.166666667   0.166666667  -0.166666667
          7  -0.166666667  -0.166666667   0.166666667
          8  -0.166666667   0.166666667   0.166666667

     Diagonalizing the dynamical matrix

     q = (   -0.166666667   0.166666667  -0.166666667 ) 

 **************************************************************************
     freq (    1) =       0.723963 [THz] =      24.148803 [cm-1]
     freq (    2) =       0.723963 [THz] =      24.148803 [cm-1]
     freq (    3) =       1.619792 [THz] =      54.030443 [cm-1]
 **************************************************************************

     Mode symmetry, C_3v (3m)   point group:

     freq (  1 -  2) =         24.1  [cm-1]   --> E    L_3           
     freq (  3 -  3) =         54.0  [cm-1]   --> A_1  L_1           

     Calculation of q =   -0.3333333   0.3333333  -0.3333333

   Info: using nr1, nr2, nr3 values from input

   Info: using nr1, nr2, nr3 values from input

     Parallelization info
     --------------------
     sticks:   dense  smooth     PW     G-vecs:    dense   smooth      PW
     Min          75      37     13                 1744      614     130
     Max          76      38     14                 1747      618     133
     Sum        1213     595    211                27941     9841    2109



     bravais-lattice index     =            2
     lattice parameter (alat)  =      10.5000  a.u.
     unit-cell volume          =     289.4062 (a.u.)^3
     number of atoms/cell      =            1
     number of atomic types    =            1
     number of electrons       =         9.00
     number of Kohn-Sham states=            9
     kinetic-energy cutoff     =      40.0000  Ry
     charge density cutoff     =     320.0000  Ry
     Exchange-correlation      = SLA  PW   PBE  PBE ( 1  4  3  4 0 0)

     celldm(1)=  10.500000  celldm(2)=   0.000000  celldm(3)=   0.000000
     celldm(4)=   0.000000  celldm(5)=   0.000000  celldm(6)=   0.000000

     crystal axes: (cart. coord. in units of alat)
               a(1) = (  -0.500000   0.000000   0.500000 )  
               a(2) = (   0.000000   0.500000   0.500000 )  
               a(3) = (  -0.500000   0.500000   0.000000 )  

     reciprocal axes: (cart. coord. in units 2 pi/alat)
               b(1) = ( -1.000000 -1.000000  1.000000 )  
               b(2) = (  1.000000  1.000000  1.000000 )  
               b(3) = ( -1.000000  1.000000 -1.000000 )  


     PseudoPot. # 1 for Na read from file:
     /home/s1333534/quantum_espresso/qe-6.1/pseudo/Na_pbe_v1.uspp.F.UPF
     MD5 check sum: 76a99c7e9422403d3e93cbc85ab7bccb
     Pseudo is Ultrasoft, Zval =  9.0
     Generated by new atomic code, or converted to UPF format
     Using radial grid of  819 points,  5 beta functions with: 
                l(1) =   0
                l(2) =   0
                l(3) =   1
                l(4) =   1
                l(5) =   2
     Q(r) pseudized with  8 coefficients,  rinner =    1.250   1.250   1.250
                                                       1.250   1.250

     atomic species   valence    mass     pseudopotential
        Na             9.00    22.99000     Na( 1.00)

     48 Sym. Ops., with inversion, found



   Cartesian axes

     site n.     atom                  positions (alat units)
         1           Na  tau(   1) = (   0.0000000   0.0000000   0.0000000  )

     number of k points= 11480  Marzari-Vanderbilt smearing, width (Ry)=  0.0200

     Number of k-points >= 100: set verbosity='high' to print them.

     Dense  grid:    27941 G-vectors     FFT dimensions: (  45,  45,  45)

     Smooth grid:     9841 G-vectors     FFT dimensions: (  30,  30,  30)

     Estimated max dynamical RAM per process >       0.96MB

     Estimated total allocated dynamical RAM >      61.39MB

     The potential is recalculated from file :
     ./_ph0/na.fcc.save/charge-density.dat

     Starting wfc are    5 atomic +    4 random wfc

     Band Structure Calculation
     Davidson diagonalization with overlap

     ethr =  1.11E-10,  avg # of iterations = 21.5

     total cpu time spent up to now is      455.4 secs

     End of band structure calculation

     Number of k-points >= 100: set verbosity='high' to print the bands.

     the Fermi energy is     1.0432 ev

     Writing output data file na.fcc.save

                                                                                

     bravais-lattice index     =            2
     lattice parameter (alat)  =      10.5000  a.u.
     unit-cell volume          =     289.4062 (a.u.)^3
     number of atoms/cell      =            1
     number of atomic types    =            1
     kinetic-energy cut-off    =      40.0000  Ry
     charge density cut-off    =     320.0000  Ry
     convergence threshold     =      1.0E-16
     beta                      =       0.7000
     number of iterations used =            4
     Exchange-correlation      = SLA  PW   PBE  PBE ( 1  4  3  4 0 0)


     celldm(1)=   10.50000  celldm(2)=    0.00000  celldm(3)=    0.00000
     celldm(4)=    0.00000  celldm(5)=    0.00000  celldm(6)=    0.00000

     crystal axes: (cart. coord. in units of alat)
               a(1) = ( -0.5000  0.0000  0.5000 )  
               a(2) = (  0.0000  0.5000  0.5000 )  
               a(3) = ( -0.5000  0.5000  0.0000 )  

     reciprocal axes: (cart. coord. in units 2 pi/alat)
               b(1) = ( -1.0000 -1.0000  1.0000 )  
               b(2) = (  1.0000  1.0000  1.0000 )  
               b(3) = ( -1.0000  1.0000 -1.0000 )  


     Atoms inside the unit cell: 

     Cartesian axes

     site n.  atom      mass           positions (alat units)
        1     Na  22.9900   tau(    1) = (    0.00000    0.00000    0.00000  )

     Computing dynamical matrix for 
                    q = (  -0.3333333   0.3333333  -0.3333333 )

      6 Sym.Ops. (no q -> -q+G )


     G cutoff =  893.6528  (   1747 G-vectors)     FFT grid: ( 45, 45, 45)
     G cutoff =  446.8264  (    618 G-vectors)  smooth grid: ( 30, 30, 30)

     number of k points= 11480  Marzari-Vanderbilt smearing, width (Ry)=  0.0200

     PseudoPot. # 1 for Na read from file:
     /home/s1333534/quantum_espresso/qe-6.1/pseudo/Na_pbe_v1.uspp.F.UPF
     MD5 check sum: 76a99c7e9422403d3e93cbc85ab7bccb
     Pseudo is Ultrasoft, Zval =  9.0
     Generated by new atomic code, or converted to UPF format
     Using radial grid of  819 points,  5 beta functions with: 
                l(1) =   0
                l(2) =   0
                l(3) =   1
                l(4) =   1
                l(5) =   2
     Q(r) pseudized with  8 coefficients,  rinner =    1.250   1.250   1.250
                                                       1.250   1.250

     Mode symmetry, C_3v (3m)   point group:


     Atomic displacements:
     There are   2 irreducible representations

     Representation     1      1 modes -A_1  L_1  To be done

     Representation     2      2 modes -E    L_3  To be done



     Alpha used in Ewald sum =   2.8000
     PHONON       : 21m 5.65s CPU    22m34.11s WALL



     Representation #  1 mode #   1

     Self-consistent Calculation

      iter #   1 total cpu time :  1379.0 secs   av.it.:   5.7
      thresh= 1.000E-02 alpha_mix =  0.700 |ddv_scf|^2 =  3.483E-04

      iter #   2 total cpu time :  1404.9 secs   av.it.:   6.8
      thresh= 1.866E-03 alpha_mix =  0.700 |ddv_scf|^2 =  2.494E-03

      iter #   3 total cpu time :  1427.0 secs   av.it.:   5.7
      thresh= 4.994E-03 alpha_mix =  0.700 |ddv_scf|^2 =  3.687E-07

      iter #   4 total cpu time :  1455.4 secs   av.it.:   7.9
      thresh= 6.072E-05 alpha_mix =  0.700 |ddv_scf|^2 =  7.006E-09

      iter #   5 total cpu time :  1484.7 secs   av.it.:   8.5
      thresh= 8.370E-06 alpha_mix =  0.700 |ddv_scf|^2 =  2.266E-10

      iter #   6 total cpu time :  1514.0 secs   av.it.:   8.4
      thresh= 1.505E-06 alpha_mix =  0.700 |ddv_scf|^2 =  1.596E-11

      iter #   7 total cpu time :  1542.6 secs   av.it.:   8.1
      thresh= 3.995E-07 alpha_mix =  0.700 |ddv_scf|^2 =  5.718E-13

      iter #   8 total cpu time :  1571.3 secs   av.it.:   8.2
      thresh= 7.562E-08 alpha_mix =  0.700 |ddv_scf|^2 =  4.975E-15

      iter #   9 total cpu time :  1599.2 secs   av.it.:   7.9
      thresh= 7.053E-09 alpha_mix =  0.700 |ddv_scf|^2 =  2.113E-14

      iter #  10 total cpu time :  1622.6 secs   av.it.:   6.3
      thresh= 1.454E-08 alpha_mix =  0.700 |ddv_scf|^2 =  6.906E-16

      iter #  11 total cpu time :  1650.1 secs   av.it.:   7.7
      thresh= 2.628E-09 alpha_mix =  0.700 |ddv_scf|^2 =  1.124E-16

      iter #  12 total cpu time :  1677.3 secs   av.it.:   7.7
      thresh= 1.060E-09 alpha_mix =  0.700 |ddv_scf|^2 =  6.750E-20

     End of self-consistent calculation

     Convergence has been achieved 


     Representation #  2 modes #   2  3

     Self-consistent Calculation

      iter #   1 total cpu time :  1727.2 secs   av.it.:   5.6
      thresh= 1.000E-02 alpha_mix =  0.700 |ddv_scf|^2 =  1.855E-06

      iter #   2 total cpu time :  1787.2 secs   av.it.:   8.5
      thresh= 1.362E-04 alpha_mix =  0.700 |ddv_scf|^2 =  3.251E-08

      iter #   3 total cpu time :  1848.5 secs   av.it.:   8.7
      thresh= 1.803E-05 alpha_mix =  0.700 |ddv_scf|^2 =  1.106E-09

      iter #   4 total cpu time :  1907.3 secs   av.it.:   8.5
      thresh= 3.325E-06 alpha_mix =  0.700 |ddv_scf|^2 =  4.139E-12

      iter #   5 total cpu time :  1968.3 secs   av.it.:   8.7
      thresh= 2.034E-07 alpha_mix =  0.700 |ddv_scf|^2 =  5.559E-15

      iter #   6 total cpu time :  2023.8 secs   av.it.:   7.8
      thresh= 7.456E-09 alpha_mix =  0.700 |ddv_scf|^2 =  2.671E-16

      iter #   7 total cpu time :  2083.5 secs   av.it.:   8.7
      thresh= 1.634E-09 alpha_mix =  0.700 |ddv_scf|^2 =  2.312E-19

     End of self-consistent calculation

     Convergence has been achieved 

     Number of q in the star =    8
     List of q in the star:
          1  -0.333333333   0.333333333  -0.333333333
          2   0.333333333   0.333333333   0.333333333
          3  -0.333333333  -0.333333333  -0.333333333
          4   0.333333333  -0.333333333   0.333333333
          5   0.333333333  -0.333333333  -0.333333333
          6   0.333333333   0.333333333  -0.333333333
          7  -0.333333333  -0.333333333   0.333333333
          8  -0.333333333   0.333333333   0.333333333

     Diagonalizing the dynamical matrix

     q = (   -0.333333333   0.333333333  -0.333333333 ) 

 **************************************************************************
     freq (    1) =       1.285187 [THz] =      42.869238 [cm-1]
     freq (    2) =       1.285187 [THz] =      42.869238 [cm-1]
     freq (    3) =       2.684310 [THz] =      89.538954 [cm-1]
 **************************************************************************

     Mode symmetry, C_3v (3m)   point group:

     freq (  1 -  2) =         42.9  [cm-1]   --> E    L_3           
     freq (  3 -  3) =         89.5  [cm-1]   --> A_1  L_1           

     Calculation of q =    0.5000000  -0.5000000   0.5000000

   Info: using nr1, nr2, nr3 values from input

   Info: using nr1, nr2, nr3 values from input

     Parallelization info
     --------------------
     sticks:   dense  smooth     PW     G-vecs:    dense   smooth      PW
     Min          75      37     13                 1744      614     137
     Max          76      38     14                 1747      618     142
     Sum        1213     595    223                27941     9841    2229



     bravais-lattice index     =            2
     lattice parameter (alat)  =      10.5000  a.u.
     unit-cell volume          =     289.4062 (a.u.)^3
     number of atoms/cell      =            1
     number of atomic types    =            1
     number of electrons       =         9.00
     number of Kohn-Sham states=            9
     kinetic-energy cutoff     =      40.0000  Ry
     charge density cutoff     =     320.0000  Ry
     Exchange-correlation      = SLA  PW   PBE  PBE ( 1  4  3  4 0 0)

     celldm(1)=  10.500000  celldm(2)=   0.000000  celldm(3)=   0.000000
     celldm(4)=   0.000000  celldm(5)=   0.000000  celldm(6)=   0.000000

     crystal axes: (cart. coord. in units of alat)
               a(1) = (  -0.500000   0.000000   0.500000 )  
               a(2) = (   0.000000   0.500000   0.500000 )  
               a(3) = (  -0.500000   0.500000   0.000000 )  

     reciprocal axes: (cart. coord. in units 2 pi/alat)
               b(1) = ( -1.000000 -1.000000  1.000000 )  
               b(2) = (  1.000000  1.000000  1.000000 )  
               b(3) = ( -1.000000  1.000000 -1.000000 )  


     PseudoPot. # 1 for Na read from file:
     /home/s1333534/quantum_espresso/qe-6.1/pseudo/Na_pbe_v1.uspp.F.UPF
     MD5 check sum: 76a99c7e9422403d3e93cbc85ab7bccb
     Pseudo is Ultrasoft, Zval =  9.0
     Generated by new atomic code, or converted to UPF format
     Using radial grid of  819 points,  5 beta functions with: 
                l(1) =   0
                l(2) =   0
                l(3) =   1
                l(4) =   1
                l(5) =   2
     Q(r) pseudized with  8 coefficients,  rinner =    1.250   1.250   1.250
                                                       1.250   1.250

     atomic species   valence    mass     pseudopotential
        Na             9.00    22.99000     Na( 1.00)

     48 Sym. Ops., with inversion, found



   Cartesian axes

     site n.     atom                  positions (alat units)
         1           Na  tau(   1) = (   0.0000000   0.0000000   0.0000000  )

     number of k points=  5740  Marzari-Vanderbilt smearing, width (Ry)=  0.0200

     Number of k-points >= 100: set verbosity='high' to print them.

     Dense  grid:    27941 G-vectors     FFT dimensions: (  45,  45,  45)

     Smooth grid:     9841 G-vectors     FFT dimensions: (  30,  30,  30)

     Estimated max dynamical RAM per process >       0.96MB

     Estimated total allocated dynamical RAM >      61.39MB

     The potential is recalculated from file :
     ./_ph0/na.fcc.save/charge-density.dat

     Starting wfc are    5 atomic +    4 random wfc

     Band Structure Calculation
     Davidson diagonalization with overlap

     ethr =  1.11E-10,  avg # of iterations = 21.5

     total cpu time spent up to now is      594.8 secs

     End of band structure calculation

     Number of k-points >= 100: set verbosity='high' to print the bands.

     the Fermi energy is     1.0432 ev

     Writing output data file na.fcc.save

                                                                                

     bravais-lattice index     =            2
     lattice parameter (alat)  =      10.5000  a.u.
     unit-cell volume          =     289.4062 (a.u.)^3
     number of atoms/cell      =            1
     number of atomic types    =            1
     kinetic-energy cut-off    =      40.0000  Ry
     charge density cut-off    =     320.0000  Ry
     convergence threshold     =      1.0E-16
     beta                      =       0.7000
     number of iterations used =            4
     Exchange-correlation      = SLA  PW   PBE  PBE ( 1  4  3  4 0 0)


     celldm(1)=   10.50000  celldm(2)=    0.00000  celldm(3)=    0.00000
     celldm(4)=    0.00000  celldm(5)=    0.00000  celldm(6)=    0.00000

     crystal axes: (cart. coord. in units of alat)
               a(1) = ( -0.5000  0.0000  0.5000 )  
               a(2) = (  0.0000  0.5000  0.5000 )  
               a(3) = ( -0.5000  0.5000  0.0000 )  

     reciprocal axes: (cart. coord. in units 2 pi/alat)
               b(1) = ( -1.0000 -1.0000  1.0000 )  
               b(2) = (  1.0000  1.0000  1.0000 )  
               b(3) = ( -1.0000  1.0000 -1.0000 )  


     Atoms inside the unit cell: 

     Cartesian axes

     site n.  atom      mass           positions (alat units)
        1     Na  22.9900   tau(    1) = (    0.00000    0.00000    0.00000  )

     Computing dynamical matrix for 
                    q = (   0.5000000  -0.5000000   0.5000000 )

     13 Sym.Ops. (with q -> -q+G )


     G cutoff =  893.6528  (   1747 G-vectors)     FFT grid: ( 45, 45, 45)
     G cutoff =  446.8264  (    618 G-vectors)  smooth grid: ( 30, 30, 30)

     number of k points=  5740  Marzari-Vanderbilt smearing, width (Ry)=  0.0200

     PseudoPot. # 1 for Na read from file:
     /home/s1333534/quantum_espresso/qe-6.1/pseudo/Na_pbe_v1.uspp.F.UPF
     MD5 check sum: 76a99c7e9422403d3e93cbc85ab7bccb
     Pseudo is Ultrasoft, Zval =  9.0
     Generated by new atomic code, or converted to UPF format
     Using radial grid of  819 points,  5 beta functions with: 
                l(1) =   0
                l(2) =   0
                l(3) =   1
                l(4) =   1
                l(5) =   2
     Q(r) pseudized with  8 coefficients,  rinner =    1.250   1.250   1.250
                                                       1.250   1.250

     Mode symmetry, D_3d (-3m)  point group:


     Atomic displacements:
     There are   2 irreducible representations

     Representation     1      1 modes -A_2u L_2'  To be done

     Representation     2      2 modes -E_u  L_3'  To be done



     Alpha used in Ewald sum =   2.8000
     PHONON       : 34m23.08s CPU    36m54.21s WALL



     Representation #  1 mode #   1

     Self-consistent Calculation

      iter #   1 total cpu time :  2227.2 secs   av.it.:   5.7
      thresh= 1.000E-02 alpha_mix =  0.700 |ddv_scf|^2 =  6.878E-05

      iter #   2 total cpu time :  2240.6 secs   av.it.:   7.0
      thresh= 8.293E-04 alpha_mix =  0.700 |ddv_scf|^2 =  4.421E-05

      iter #   3 total cpu time :  2254.7 secs   av.it.:   6.6
      thresh= 6.649E-04 alpha_mix =  0.700 |ddv_scf|^2 =  5.546E-08

      iter #   4 total cpu time :  2269.1 secs   av.it.:   7.9
      thresh= 2.355E-05 alpha_mix =  0.700 |ddv_scf|^2 =  2.506E-10

      iter #   5 total cpu time :  2282.3 secs   av.it.:   7.1
      thresh= 1.583E-06 alpha_mix =  0.700 |ddv_scf|^2 =  4.122E-12

      iter #   6 total cpu time :  2295.4 secs   av.it.:   6.9
      thresh= 2.030E-07 alpha_mix =  0.700 |ddv_scf|^2 =  1.722E-14

      iter #   7 total cpu time :  2309.5 secs   av.it.:   7.6
      thresh= 1.312E-08 alpha_mix =  0.700 |ddv_scf|^2 =  3.484E-17

     End of self-consistent calculation

     Convergence has been achieved 


     Representation #  2 modes #   2  3

     Self-consistent Calculation

      iter #   1 total cpu time :  2333.9 secs   av.it.:   5.4
      thresh= 1.000E-02 alpha_mix =  0.700 |ddv_scf|^2 =  1.880E-06

      iter #   2 total cpu time :  2363.7 secs   av.it.:   8.4
      thresh= 1.371E-04 alpha_mix =  0.700 |ddv_scf|^2 =  3.237E-08

      iter #   3 total cpu time :  2394.1 secs   av.it.:   8.5
      thresh= 1.799E-05 alpha_mix =  0.700 |ddv_scf|^2 =  1.176E-09

      iter #   4 total cpu time :  2422.9 secs   av.it.:   8.0
      thresh= 3.429E-06 alpha_mix =  0.700 |ddv_scf|^2 =  4.416E-12

      iter #   5 total cpu time :  2452.3 secs   av.it.:   8.3
      thresh= 2.102E-07 alpha_mix =  0.700 |ddv_scf|^2 =  5.781E-15

      iter #   6 total cpu time :  2479.4 secs   av.it.:   7.4
      thresh= 7.603E-09 alpha_mix =  0.700 |ddv_scf|^2 =  2.886E-16

      iter #   7 total cpu time :  2509.2 secs   av.it.:   8.3
      thresh= 1.699E-09 alpha_mix =  0.700 |ddv_scf|^2 =  2.146E-19

     End of self-consistent calculation

     Convergence has been achieved 

     Number of q in the star =    4
     List of q in the star:
          1   0.500000000  -0.500000000   0.500000000
          2   0.500000000   0.500000000   0.500000000
          3  -0.500000000   0.500000000   0.500000000
          4   0.500000000   0.500000000  -0.500000000

     Diagonalizing the dynamical matrix

     q = (    0.500000000  -0.500000000   0.500000000 ) 

 **************************************************************************
     freq (    1) =       1.522171 [THz] =      50.774163 [cm-1]
     freq (    2) =       1.522171 [THz] =      50.774163 [cm-1]
     freq (    3) =       3.068478 [THz] =     102.353410 [cm-1]
 **************************************************************************

     Mode symmetry, D_3d (-3m)  point group:

     freq (  1 -  2) =         50.8  [cm-1]   --> E_u  L_3'          
     freq (  3 -  3) =        102.4  [cm-1]   --> A_2u L_2'          

     Calculation of q =    0.0000000   0.3333333   0.0000000

   Info: using nr1, nr2, nr3 values from input

   Info: using nr1, nr2, nr3 values from input

     Parallelization info
     --------------------
     sticks:   dense  smooth     PW     G-vecs:    dense   smooth      PW
     Min          75      37     13                 1744      614     129
     Max          76      38     14                 1747      618     132
     Sum        1213     595    211                27941     9841    2085



     bravais-lattice index     =            2
     lattice parameter (alat)  =      10.5000  a.u.
     unit-cell volume          =     289.4062 (a.u.)^3
     number of atoms/cell      =            1
     number of atomic types    =            1
     number of electrons       =         9.00
     number of Kohn-Sham states=            9
     kinetic-energy cutoff     =      40.0000  Ry
     charge density cutoff     =     320.0000  Ry
     Exchange-correlation      = SLA  PW   PBE  PBE ( 1  4  3  4 0 0)

     celldm(1)=  10.500000  celldm(2)=   0.000000  celldm(3)=   0.000000
     celldm(4)=   0.000000  celldm(5)=   0.000000  celldm(6)=   0.000000

     crystal axes: (cart. coord. in units of alat)
               a(1) = (  -0.500000   0.000000   0.500000 )  
               a(2) = (   0.000000   0.500000   0.500000 )  
               a(3) = (  -0.500000   0.500000   0.000000 )  

     reciprocal axes: (cart. coord. in units 2 pi/alat)
               b(1) = ( -1.000000 -1.000000  1.000000 )  
               b(2) = (  1.000000  1.000000  1.000000 )  
               b(3) = ( -1.000000  1.000000 -1.000000 )  


     PseudoPot. # 1 for Na read from file:
     /home/s1333534/quantum_espresso/qe-6.1/pseudo/Na_pbe_v1.uspp.F.UPF
     MD5 check sum: 76a99c7e9422403d3e93cbc85ab7bccb
     Pseudo is Ultrasoft, Zval =  9.0
     Generated by new atomic code, or converted to UPF format
     Using radial grid of  819 points,  5 beta functions with: 
                l(1) =   0
                l(2) =   0
                l(3) =   1
                l(4) =   1
                l(5) =   2
     Q(r) pseudized with  8 coefficients,  rinner =    1.250   1.250   1.250
                                                       1.250   1.250

     atomic species   valence    mass     pseudopotential
        Na             9.00    22.99000     Na( 1.00)

     48 Sym. Ops., with inversion, found



   Cartesian axes

     site n.     atom                  positions (alat units)
         1           Na  tau(   1) = (   0.0000000   0.0000000   0.0000000  )

     number of k points=  8400  Marzari-Vanderbilt smearing, width (Ry)=  0.0200

     Number of k-points >= 100: set verbosity='high' to print them.

     Dense  grid:    27941 G-vectors     FFT dimensions: (  45,  45,  45)

     Smooth grid:     9841 G-vectors     FFT dimensions: (  30,  30,  30)

     Estimated max dynamical RAM per process >       0.96MB

     Estimated total allocated dynamical RAM >      61.39MB

     The potential is recalculated from file :
     ./_ph0/na.fcc.save/charge-density.dat

     Starting wfc are    5 atomic +    4 random wfc

     Band Structure Calculation
     Davidson diagonalization with overlap
     c_bands:  1 eigenvalues not converged

     ethr =  1.11E-10,  avg # of iterations = 21.5

     total cpu time spent up to now is      766.9 secs

     End of band structure calculation

     Number of k-points >= 100: set verbosity='high' to print the bands.

     the Fermi energy is     1.0432 ev

     Writing output data file na.fcc.save

                                                                                

     bravais-lattice index     =            2
     lattice parameter (alat)  =      10.5000  a.u.
     unit-cell volume          =     289.4062 (a.u.)^3
     number of atoms/cell      =            1
     number of atomic types    =            1
     kinetic-energy cut-off    =      40.0000  Ry
     charge density cut-off    =     320.0000  Ry
     convergence threshold     =      1.0E-16
     beta                      =       0.7000
     number of iterations used =            4
     Exchange-correlation      = SLA  PW   PBE  PBE ( 1  4  3  4 0 0)


     celldm(1)=   10.50000  celldm(2)=    0.00000  celldm(3)=    0.00000
     celldm(4)=    0.00000  celldm(5)=    0.00000  celldm(6)=    0.00000

     crystal axes: (cart. coord. in units of alat)
               a(1) = ( -0.5000  0.0000  0.5000 )  
               a(2) = (  0.0000  0.5000  0.5000 )  
               a(3) = ( -0.5000  0.5000  0.0000 )  

     reciprocal axes: (cart. coord. in units 2 pi/alat)
               b(1) = ( -1.0000 -1.0000  1.0000 )  
               b(2) = (  1.0000  1.0000  1.0000 )  
               b(3) = ( -1.0000  1.0000 -1.0000 )  


     Atoms inside the unit cell: 

     Cartesian axes

     site n.  atom      mass           positions (alat units)
        1     Na  22.9900   tau(    1) = (    0.00000    0.00000    0.00000  )

     Computing dynamical matrix for 
                    q = (   0.0000000   0.3333333   0.0000000 )

      8 Sym.Ops. (no q -> -q+G )


     G cutoff =  893.6528  (   1747 G-vectors)     FFT grid: ( 45, 45, 45)
     G cutoff =  446.8264  (    618 G-vectors)  smooth grid: ( 30, 30, 30)

     number of k points=  8400  Marzari-Vanderbilt smearing, width (Ry)=  0.0200

     PseudoPot. # 1 for Na read from file:
     /home/s1333534/quantum_espresso/qe-6.1/pseudo/Na_pbe_v1.uspp.F.UPF
     MD5 check sum: 76a99c7e9422403d3e93cbc85ab7bccb
     Pseudo is Ultrasoft, Zval =  9.0
     Generated by new atomic code, or converted to UPF format
     Using radial grid of  819 points,  5 beta functions with: 
                l(1) =   0
                l(2) =   0
                l(3) =   1
                l(4) =   1
                l(5) =   2
     Q(r) pseudized with  8 coefficients,  rinner =    1.250   1.250   1.250
                                                       1.250   1.250

     Mode symmetry, C_4v (4mm)  point group:


     Atomic displacements:
     There are   2 irreducible representations

     Representation     1      1 modes -A_1  G_1 D_1  To be done

     Representation     2      2 modes -E    G_5 D_5  To be done



     Alpha used in Ewald sum =   2.8000
     PHONON       : 41m54.30s CPU    44m57.47s WALL



     Representation #  1 mode #   1

     Self-consistent Calculation

      iter #   1 total cpu time :  2715.8 secs   av.it.:   5.6
      thresh= 1.000E-02 alpha_mix =  0.700 |ddv_scf|^2 =  8.886E-03

      iter #   2 total cpu time :  2733.7 secs   av.it.:   6.1
      thresh= 9.426E-03 alpha_mix =  0.700 |ddv_scf|^2 =  8.603E-01

      iter #   3 total cpu time :  2750.9 secs   av.it.:   6.1
      thresh= 1.000E-02 alpha_mix =  0.700 |ddv_scf|^2 =  8.398E-07

      iter #   4 total cpu time :  2771.2 secs   av.it.:   7.7
      thresh= 9.164E-05 alpha_mix =  0.700 |ddv_scf|^2 =  3.019E-08

      iter #   5 total cpu time :  2791.5 secs   av.it.:   7.7
      thresh= 1.738E-05 alpha_mix =  0.700 |ddv_scf|^2 =  1.355E-09

      iter #   6 total cpu time :  2811.6 secs   av.it.:   7.8
      thresh= 3.681E-06 alpha_mix =  0.700 |ddv_scf|^2 =  8.009E-10

      iter #   7 total cpu time :  2829.2 secs   av.it.:   6.3
      thresh= 2.830E-06 alpha_mix =  0.700 |ddv_scf|^2 =  1.990E-09

      iter #   8 total cpu time :  2847.6 secs   av.it.:   6.7
      thresh= 4.461E-06 alpha_mix =  0.700 |ddv_scf|^2 =  2.804E-11

      iter #   9 total cpu time :  2866.3 secs   av.it.:   7.0
      thresh= 5.295E-07 alpha_mix =  0.700 |ddv_scf|^2 =  1.649E-12

      iter #  10 total cpu time :  2885.0 secs   av.it.:   7.0
      thresh= 1.284E-07 alpha_mix =  0.700 |ddv_scf|^2 =  4.510E-14

      iter #  11 total cpu time :  2905.0 secs   av.it.:   7.6
      thresh= 2.124E-08 alpha_mix =  0.700 |ddv_scf|^2 =  2.695E-16

      iter #  12 total cpu time :  2924.9 secs   av.it.:   7.8
      thresh= 1.642E-09 alpha_mix =  0.700 |ddv_scf|^2 =  5.404E-17

     End of self-consistent calculation

     Convergence has been achieved 


     Representation #  2 modes #   2  3

     Self-consistent Calculation

      iter #   1 total cpu time :  2961.3 secs   av.it.:   5.5
      thresh= 1.000E-02 alpha_mix =  0.700 |ddv_scf|^2 =  1.895E-06

      iter #   2 total cpu time :  3004.9 secs   av.it.:   8.5
      thresh= 1.377E-04 alpha_mix =  0.700 |ddv_scf|^2 =  3.184E-08

      iter #   3 total cpu time :  3049.3 secs   av.it.:   8.6
      thresh= 1.784E-05 alpha_mix =  0.700 |ddv_scf|^2 =  1.309E-09

      iter #   4 total cpu time :  3092.5 secs   av.it.:   8.4
      thresh= 3.618E-06 alpha_mix =  0.700 |ddv_scf|^2 =  4.731E-12

      iter #   5 total cpu time :  3137.0 secs   av.it.:   8.7
      thresh= 2.175E-07 alpha_mix =  0.700 |ddv_scf|^2 =  4.934E-15

      iter #   6 total cpu time :  3177.2 secs   av.it.:   7.5
      thresh= 7.024E-09 alpha_mix =  0.700 |ddv_scf|^2 =  2.487E-16

      iter #   7 total cpu time :  3221.0 secs   av.it.:   8.7
      thresh= 1.577E-09 alpha_mix =  0.700 |ddv_scf|^2 =  5.519E-20

     End of self-consistent calculation

     Convergence has been achieved 

     Number of q in the star =    6
     List of q in the star:
          1   0.000000000   0.333333333   0.000000000
          2   0.333333333   0.000000000   0.000000000
          3   0.000000000   0.000000000   0.333333333
          4   0.000000000  -0.333333333   0.000000000
          5  -0.333333333   0.000000000   0.000000000
          6   0.000000000   0.000000000  -0.333333333

     Diagonalizing the dynamical matrix

     q = (    0.000000000   0.333333333   0.000000000 ) 

 **************************************************************************
     freq (    1) =       1.241529 [THz] =      41.412947 [cm-1]
     freq (    2) =       1.241529 [THz] =      41.412947 [cm-1]
     freq (    3) =       1.463831 [THz] =      48.828134 [cm-1]
 **************************************************************************

     Mode symmetry, C_4v (4mm)  point group:

     freq (  1 -  2) =         41.4  [cm-1]   --> E    G_5 D_5       
     freq (  3 -  3) =         48.8  [cm-1]   --> A_1  G_1 D_1       

     Calculation of q =   -0.1666667   0.5000000  -0.1666667

   Info: using nr1, nr2, nr3 values from input

   Info: using nr1, nr2, nr3 values from input

     Parallelization info
     --------------------
     sticks:   dense  smooth     PW     G-vecs:    dense   smooth      PW
     Min          75      37     13                 1744      614     130
     Max          76      38     14                 1747      618     133
     Sum        1213     595    211                27941     9841    2109



     bravais-lattice index     =            2
     lattice parameter (alat)  =      10.5000  a.u.
     unit-cell volume          =     289.4062 (a.u.)^3
     number of atoms/cell      =            1
     number of atomic types    =            1
     number of electrons       =         9.00
     number of Kohn-Sham states=            9
     kinetic-energy cutoff     =      40.0000  Ry
     charge density cutoff     =     320.0000  Ry
     Exchange-correlation      = SLA  PW   PBE  PBE ( 1  4  3  4 0 0)

     celldm(1)=  10.500000  celldm(2)=   0.000000  celldm(3)=   0.000000
     celldm(4)=   0.000000  celldm(5)=   0.000000  celldm(6)=   0.000000

     crystal axes: (cart. coord. in units of alat)
               a(1) = (  -0.500000   0.000000   0.500000 )  
               a(2) = (   0.000000   0.500000   0.500000 )  
               a(3) = (  -0.500000   0.500000   0.000000 )  

     reciprocal axes: (cart. coord. in units 2 pi/alat)
               b(1) = ( -1.000000 -1.000000  1.000000 )  
               b(2) = (  1.000000  1.000000  1.000000 )  
               b(3) = ( -1.000000  1.000000 -1.000000 )  


     PseudoPot. # 1 for Na read from file:
     /home/s1333534/quantum_espresso/qe-6.1/pseudo/Na_pbe_v1.uspp.F.UPF
     MD5 check sum: 76a99c7e9422403d3e93cbc85ab7bccb
     Pseudo is Ultrasoft, Zval =  9.0
     Generated by new atomic code, or converted to UPF format
     Using radial grid of  819 points,  5 beta functions with: 
                l(1) =   0
                l(2) =   0
                l(3) =   1
                l(4) =   1
                l(5) =   2
     Q(r) pseudized with  8 coefficients,  rinner =    1.250   1.250   1.250
                                                       1.250   1.250

     atomic species   valence    mass     pseudopotential
        Na             9.00    22.99000     Na( 1.00)

     48 Sym. Ops., with inversion, found



   Cartesian axes

     site n.     atom                  positions (alat units)
         1           Na  tau(   1) = (   0.0000000   0.0000000   0.0000000  )

     number of k points= 32800  Marzari-Vanderbilt smearing, width (Ry)=  0.0200

     Number of k-points >= 100: set verbosity='high' to print them.

     Dense  grid:    27941 G-vectors     FFT dimensions: (  45,  45,  45)

     Smooth grid:     9841 G-vectors     FFT dimensions: (  30,  30,  30)

     Estimated max dynamical RAM per process >       0.96MB

     Estimated total allocated dynamical RAM >      61.39MB

     The potential is recalculated from file :
     ./_ph0/na.fcc.save/charge-density.dat

     Starting wfc are    5 atomic +    4 random wfc

     Band Structure Calculation
     Davidson diagonalization with overlap

     ethr =  1.11E-10,  avg # of iterations = 21.4

     total cpu time spent up to now is     1387.7 secs

     End of band structure calculation

     Number of k-points >= 100: set verbosity='high' to print the bands.

     the Fermi energy is     1.0432 ev

     Writing output data file na.fcc.save

                                                                                

     bravais-lattice index     =            2
     lattice parameter (alat)  =      10.5000  a.u.
     unit-cell volume          =     289.4062 (a.u.)^3
     number of atoms/cell      =            1
     number of atomic types    =            1
     kinetic-energy cut-off    =      40.0000  Ry
     charge density cut-off    =     320.0000  Ry
     convergence threshold     =      1.0E-16
     beta                      =       0.7000
     number of iterations used =            4
     Exchange-correlation      = SLA  PW   PBE  PBE ( 1  4  3  4 0 0)


     celldm(1)=   10.50000  celldm(2)=    0.00000  celldm(3)=    0.00000
     celldm(4)=    0.00000  celldm(5)=    0.00000  celldm(6)=    0.00000

     crystal axes: (cart. coord. in units of alat)
               a(1) = ( -0.5000  0.0000  0.5000 )  
               a(2) = (  0.0000  0.5000  0.5000 )  
               a(3) = ( -0.5000  0.5000  0.0000 )  

     reciprocal axes: (cart. coord. in units 2 pi/alat)
               b(1) = ( -1.0000 -1.0000  1.0000 )  
               b(2) = (  1.0000  1.0000  1.0000 )  
               b(3) = ( -1.0000  1.0000 -1.0000 )  


     Atoms inside the unit cell: 

     Cartesian axes

     site n.  atom      mass           positions (alat units)
        1     Na  22.9900   tau(    1) = (    0.00000    0.00000    0.00000  )

     Computing dynamical matrix for 
                    q = (  -0.1666667   0.5000000  -0.1666667 )

      2 Sym.Ops. (no q -> -q+G )


     G cutoff =  893.6528  (   1747 G-vectors)     FFT grid: ( 45, 45, 45)
     G cutoff =  446.8264  (    618 G-vectors)  smooth grid: ( 30, 30, 30)

     number of k points= 32800  Marzari-Vanderbilt smearing, width (Ry)=  0.0200

     PseudoPot. # 1 for Na read from file:
     /home/s1333534/quantum_espresso/qe-6.1/pseudo/Na_pbe_v1.uspp.F.UPF
     MD5 check sum: 76a99c7e9422403d3e93cbc85ab7bccb
     Pseudo is Ultrasoft, Zval =  9.0
     Generated by new atomic code, or converted to UPF format
     Using radial grid of  819 points,  5 beta functions with: 
                l(1) =   0
                l(2) =   0
                l(3) =   1
                l(4) =   1
                l(5) =   2
     Q(r) pseudized with  8 coefficients,  rinner =    1.250   1.250   1.250
                                                       1.250   1.250

     Mode symmetry, C_s (m)     point group:


     Atomic displacements:
     There are   3 irreducible representations

     Representation     1      1 modes -A'  To be done

     Representation     2      1 modes -A'  To be done

     Representation     3      1 modes -A''  To be done



     Alpha used in Ewald sum =   2.8000
     PHONON       :     1h 1m CPU        1h 5m WALL



     Representation #  1 mode #   1

     Self-consistent Calculation

      iter #   1 total cpu time :  4017.1 secs   av.it.:   5.8
      thresh= 1.000E-02 alpha_mix =  0.700 |ddv_scf|^2 =  3.892E-04

      iter #   2 total cpu time :  4091.8 secs   av.it.:   7.0
      thresh= 1.973E-03 alpha_mix =  0.700 |ddv_scf|^2 =  3.531E-03

      iter #   3 total cpu time :  4155.8 secs   av.it.:   5.6
      thresh= 5.942E-03 alpha_mix =  0.700 |ddv_scf|^2 =  3.934E-07

      iter #   4 total cpu time :  4239.5 secs   av.it.:   8.1
      thresh= 6.272E-05 alpha_mix =  0.700 |ddv_scf|^2 =  4.588E-09

      iter #   5 total cpu time :  4326.0 secs   av.it.:   8.4
      thresh= 6.773E-06 alpha_mix =  0.700 |ddv_scf|^2 =  3.519E-10

      iter #   6 total cpu time :  4411.9 secs   av.it.:   8.4
      thresh= 1.876E-06 alpha_mix =  0.700 |ddv_scf|^2 =  1.896E-11

      iter #   7 total cpu time :  4497.4 secs   av.it.:   8.3
      thresh= 4.354E-07 alpha_mix =  0.700 |ddv_scf|^2 =  2.341E-11

      iter #   8 total cpu time :  4571.5 secs   av.it.:   6.9
      thresh= 4.838E-07 alpha_mix =  0.700 |ddv_scf|^2 =  6.048E-12

      iter #   9 total cpu time :  4648.5 secs   av.it.:   7.2
      thresh= 2.459E-07 alpha_mix =  0.700 |ddv_scf|^2 =  1.574E-12

      iter #  10 total cpu time :  4722.4 secs   av.it.:   6.8
      thresh= 1.255E-07 alpha_mix =  0.700 |ddv_scf|^2 =  6.695E-15

      iter #  11 total cpu time :  4808.2 secs   av.it.:   8.5
      thresh= 8.182E-09 alpha_mix =  0.700 |ddv_scf|^2 =  3.413E-16

      iter #  12 total cpu time :  4889.5 secs   av.it.:   7.9
      thresh= 1.848E-09 alpha_mix =  0.700 |ddv_scf|^2 =  1.796E-17

     End of self-consistent calculation

     Convergence has been achieved 


     Representation #  2 mode #   2

     Self-consistent Calculation

      iter #   1 total cpu time :  4967.0 secs   av.it.:   5.7
      thresh= 1.000E-02 alpha_mix =  0.700 |ddv_scf|^2 =  6.601E-05

      iter #   2 total cpu time :  5047.2 secs   av.it.:   7.5
      thresh= 8.125E-04 alpha_mix =  0.700 |ddv_scf|^2 =  5.308E-04

      iter #   3 total cpu time :  5111.7 secs   av.it.:   5.6
      thresh= 2.304E-03 alpha_mix =  0.700 |ddv_scf|^2 =  1.875E-07

      iter #   4 total cpu time :  5197.2 secs   av.it.:   8.3
      thresh= 4.330E-05 alpha_mix =  0.700 |ddv_scf|^2 =  5.246E-09

      iter #   5 total cpu time :  5282.5 secs   av.it.:   8.3
      thresh= 7.243E-06 alpha_mix =  0.700 |ddv_scf|^2 =  1.558E-10

      iter #   6 total cpu time :  5368.1 secs   av.it.:   8.4
      thresh= 1.248E-06 alpha_mix =  0.700 |ddv_scf|^2 =  1.171E-11

      iter #   7 total cpu time :  5453.8 secs   av.it.:   8.4
      thresh= 3.422E-07 alpha_mix =  0.700 |ddv_scf|^2 =  3.588E-12

      iter #   8 total cpu time :  5531.5 secs   av.it.:   7.2
      thresh= 1.894E-07 alpha_mix =  0.700 |ddv_scf|^2 =  7.583E-12

      iter #   9 total cpu time :  5606.0 secs   av.it.:   6.9
      thresh= 2.754E-07 alpha_mix =  0.700 |ddv_scf|^2 =  1.198E-14

      iter #  10 total cpu time :  5686.3 secs   av.it.:   7.6
      thresh= 1.094E-08 alpha_mix =  0.700 |ddv_scf|^2 =  1.287E-14

      iter #  11 total cpu time :  5754.0 secs   av.it.:   6.1
      thresh= 1.134E-08 alpha_mix =  0.700 |ddv_scf|^2 =  6.673E-16

      iter #  12 total cpu time :  5835.1 secs   av.it.:   7.7
      thresh= 2.583E-09 alpha_mix =  0.700 |ddv_scf|^2 =  4.579E-18

     End of self-consistent calculation

     Convergence has been achieved 


     Representation #  3 mode #   3

     Self-consistent Calculation

      iter #   1 total cpu time :  5909.3 secs   av.it.:   5.5
      thresh= 1.000E-02 alpha_mix =  0.700 |ddv_scf|^2 =  7.989E-06

      iter #   2 total cpu time :  5991.5 secs   av.it.:   7.8
      thresh= 2.827E-04 alpha_mix =  0.700 |ddv_scf|^2 =  1.248E-07

      iter #   3 total cpu time :  6076.0 secs   av.it.:   8.1
      thresh= 3.533E-05 alpha_mix =  0.700 |ddv_scf|^2 =  6.870E-09

      iter #   4 total cpu time :  6156.7 secs   av.it.:   7.7
      thresh= 8.288E-06 alpha_mix =  0.700 |ddv_scf|^2 =  2.513E-11

      iter #   5 total cpu time :  6239.8 secs   av.it.:   8.0
      thresh= 5.013E-07 alpha_mix =  0.700 |ddv_scf|^2 =  2.161E-14

      iter #   6 total cpu time :  6316.1 secs   av.it.:   7.2
      thresh= 1.470E-08 alpha_mix =  0.700 |ddv_scf|^2 =  1.352E-15

      iter #   7 total cpu time :  6400.1 secs   av.it.:   7.9
      thresh= 3.677E-09 alpha_mix =  0.700 |ddv_scf|^2 =  1.310E-18

     End of self-consistent calculation

     Convergence has been achieved 

     Number of q in the star =   24
     List of q in the star:
          1  -0.166666667   0.500000000  -0.166666667
          2   0.166666667   0.500000000   0.166666667
          3  -0.166666667   0.500000000   0.166666667
          4   0.166666667   0.500000000  -0.166666667
          5   0.500000000  -0.166666667   0.166666667
          6   0.166666667  -0.166666667   0.500000000
          7  -0.166666667  -0.500000000  -0.166666667
          8   0.166666667  -0.500000000  -0.166666667
          9  -0.166666667  -0.500000000   0.166666667
         10   0.500000000  -0.166666667  -0.166666667
         11  -0.500000000  -0.166666667   0.166666667
         12   0.500000000   0.166666667   0.166666667
         13  -0.166666667   0.166666667  -0.500000000
         14  -0.166666667  -0.166666667   0.500000000
         15   0.166666667   0.166666667   0.500000000
         16   0.166666667  -0.166666667  -0.500000000
         17  -0.500000000   0.166666667  -0.166666667
         18  -0.500000000  -0.166666667  -0.166666667
         19   0.166666667  -0.500000000   0.166666667
         20   0.500000000   0.166666667  -0.166666667
         21   0.166666667   0.166666667  -0.500000000
         22  -0.166666667  -0.166666667  -0.500000000
         23  -0.500000000   0.166666667   0.166666667
         24  -0.166666667   0.166666667   0.500000000

     Diagonalizing the dynamical matrix

     q = (   -0.166666667   0.500000000  -0.166666667 ) 

 **************************************************************************
     freq (    1) =       1.562568 [THz] =      52.121661 [cm-1]
     freq (    2) =       1.685983 [THz] =      56.238336 [cm-1]
     freq (    3) =       2.473063 [THz] =      82.492512 [cm-1]
 **************************************************************************

     Mode symmetry, C_s (m)     point group:

     freq (  1 -  1) =         52.1  [cm-1]   --> A'                 
     freq (  2 -  2) =         56.2  [cm-1]   --> A''                
     freq (  3 -  3) =         82.5  [cm-1]   --> A'                 

     Calculation of q =    0.6666667  -0.3333333   0.6666667

   Info: using nr1, nr2, nr3 values from input

   Info: using nr1, nr2, nr3 values from input

     Parallelization info
     --------------------
     sticks:   dense  smooth     PW     G-vecs:    dense   smooth      PW
     Min          75      37     15                 1744      614     149
     Max          76      38     16                 1747      618     151
     Sum        1213     595    241                27941     9841    2397



     bravais-lattice index     =            2
     lattice parameter (alat)  =      10.5000  a.u.
     unit-cell volume          =     289.4062 (a.u.)^3
     number of atoms/cell      =            1
     number of atomic types    =            1
     number of electrons       =         9.00
     number of Kohn-Sham states=            9
     kinetic-energy cutoff     =      40.0000  Ry
     charge density cutoff     =     320.0000  Ry
     Exchange-correlation      = SLA  PW   PBE  PBE ( 1  4  3  4 0 0)

     celldm(1)=  10.500000  celldm(2)=   0.000000  celldm(3)=   0.000000
     celldm(4)=   0.000000  celldm(5)=   0.000000  celldm(6)=   0.000000

     crystal axes: (cart. coord. in units of alat)
               a(1) = (  -0.500000   0.000000   0.500000 )  
               a(2) = (   0.000000   0.500000   0.500000 )  
               a(3) = (  -0.500000   0.500000   0.000000 )  

     reciprocal axes: (cart. coord. in units 2 pi/alat)
               b(1) = ( -1.000000 -1.000000  1.000000 )  
               b(2) = (  1.000000  1.000000  1.000000 )  
               b(3) = ( -1.000000  1.000000 -1.000000 )  


     PseudoPot. # 1 for Na read from file:
     /home/s1333534/quantum_espresso/qe-6.1/pseudo/Na_pbe_v1.uspp.F.UPF
     MD5 check sum: 76a99c7e9422403d3e93cbc85ab7bccb
     Pseudo is Ultrasoft, Zval =  9.0
     Generated by new atomic code, or converted to UPF format
     Using radial grid of  819 points,  5 beta functions with: 
                l(1) =   0
                l(2) =   0
                l(3) =   1
                l(4) =   1
                l(5) =   2
     Q(r) pseudized with  8 coefficients,  rinner =    1.250   1.250   1.250
                                                       1.250   1.250

     atomic species   valence    mass     pseudopotential
        Na             9.00    22.99000     Na( 1.00)

     48 Sym. Ops., with inversion, found



   Cartesian axes

     site n.     atom                  positions (alat units)
         1           Na  tau(   1) = (   0.0000000   0.0000000   0.0000000  )

     number of k points= 32800  Marzari-Vanderbilt smearing, width (Ry)=  0.0200

     Number of k-points >= 100: set verbosity='high' to print them.

     Dense  grid:    27941 G-vectors     FFT dimensions: (  45,  45,  45)

     Smooth grid:     9841 G-vectors     FFT dimensions: (  30,  30,  30)

     Estimated max dynamical RAM per process >       0.96MB

     Estimated total allocated dynamical RAM >      61.39MB

     The potential is recalculated from file :
     ./_ph0/na.fcc.save/charge-density.dat

     Starting wfc are    5 atomic +    4 random wfc

     Band Structure Calculation
     Davidson diagonalization with overlap

     ethr =  1.11E-10,  avg # of iterations = 21.4

     total cpu time spent up to now is     2109.2 secs

     End of band structure calculation

     Number of k-points >= 100: set verbosity='high' to print the bands.

     the Fermi energy is     1.0432 ev

     Writing output data file na.fcc.save

                                                                                

     bravais-lattice index     =            2
     lattice parameter (alat)  =      10.5000  a.u.
     unit-cell volume          =     289.4062 (a.u.)^3
     number of atoms/cell      =            1
     number of atomic types    =            1
     kinetic-energy cut-off    =      40.0000  Ry
     charge density cut-off    =     320.0000  Ry
     convergence threshold     =      1.0E-16
     beta                      =       0.7000
     number of iterations used =            4
     Exchange-correlation      = SLA  PW   PBE  PBE ( 1  4  3  4 0 0)


     celldm(1)=   10.50000  celldm(2)=    0.00000  celldm(3)=    0.00000
     celldm(4)=    0.00000  celldm(5)=    0.00000  celldm(6)=    0.00000

     crystal axes: (cart. coord. in units of alat)
               a(1) = ( -0.5000  0.0000  0.5000 )  
               a(2) = (  0.0000  0.5000  0.5000 )  
               a(3) = ( -0.5000  0.5000  0.0000 )  

     reciprocal axes: (cart. coord. in units 2 pi/alat)
               b(1) = ( -1.0000 -1.0000  1.0000 )  
               b(2) = (  1.0000  1.0000  1.0000 )  
               b(3) = ( -1.0000  1.0000 -1.0000 )  


     Atoms inside the unit cell: 

     Cartesian axes

     site n.  atom      mass           positions (alat units)
        1     Na  22.9900   tau(    1) = (    0.00000    0.00000    0.00000  )

     Computing dynamical matrix for 
                    q = (   0.6666667  -0.3333333   0.6666667 )

      2 Sym.Ops. (no q -> -q+G )


     G cutoff =  893.6528  (   1747 G-vectors)     FFT grid: ( 45, 45, 45)
     G cutoff =  446.8264  (    618 G-vectors)  smooth grid: ( 30, 30, 30)

     number of k points= 32800  Marzari-Vanderbilt smearing, width (Ry)=  0.0200

     PseudoPot. # 1 for Na read from file:
     /home/s1333534/quantum_espresso/qe-6.1/pseudo/Na_pbe_v1.uspp.F.UPF
     MD5 check sum: 76a99c7e9422403d3e93cbc85ab7bccb
     Pseudo is Ultrasoft, Zval =  9.0
     Generated by new atomic code, or converted to UPF format
     Using radial grid of  819 points,  5 beta functions with: 
                l(1) =   0
                l(2) =   0
                l(3) =   1
                l(4) =   1
                l(5) =   2
     Q(r) pseudized with  8 coefficients,  rinner =    1.250   1.250   1.250
                                                       1.250   1.250

     Mode symmetry, C_s (m)     point group:


     Atomic displacements:
     There are   3 irreducible representations

     Representation     1      1 modes -A'  To be done

     Representation     2      1 modes -A'  To be done

     Representation     3      1 modes -A''  To be done



     Alpha used in Ewald sum =   2.8000
     PHONON       :     1h51m CPU        1h59m WALL



     Representation #  1 mode #   1

     Self-consistent Calculation

      iter #   1 total cpu time :  7233.6 secs   av.it.:   5.8
      thresh= 1.000E-02 alpha_mix =  0.700 |ddv_scf|^2 =  4.737E-05

      iter #   2 total cpu time :  7316.9 secs   av.it.:   7.7
      thresh= 6.882E-04 alpha_mix =  0.700 |ddv_scf|^2 =  3.702E-05

      iter #   3 total cpu time :  7394.0 secs   av.it.:   7.0
      thresh= 6.084E-04 alpha_mix =  0.700 |ddv_scf|^2 =  1.131E-07

      iter #   4 total cpu time :  7481.0 secs   av.it.:   8.3
      thresh= 3.363E-05 alpha_mix =  0.700 |ddv_scf|^2 =  8.910E-09

      iter #   5 total cpu time :  7567.7 secs   av.it.:   8.2
      thresh= 9.439E-06 alpha_mix =  0.700 |ddv_scf|^2 =  4.452E-10

      iter #   6 total cpu time :  7653.5 secs   av.it.:   8.0
      thresh= 2.110E-06 alpha_mix =  0.700 |ddv_scf|^2 =  5.253E-12

      iter #   7 total cpu time :  7741.8 secs   av.it.:   8.4
      thresh= 2.292E-07 alpha_mix =  0.700 |ddv_scf|^2 =  2.510E-13

      iter #   8 total cpu time :  7830.8 secs   av.it.:   8.6
      thresh= 5.010E-08 alpha_mix =  0.700 |ddv_scf|^2 =  2.150E-14

      iter #   9 total cpu time :  7919.3 secs   av.it.:   8.4
      thresh= 1.466E-08 alpha_mix =  0.700 |ddv_scf|^2 =  1.024E-15

      iter #  10 total cpu time :  8000.9 secs   av.it.:   7.5
      thresh= 3.200E-09 alpha_mix =  0.700 |ddv_scf|^2 =  1.114E-16

      iter #  11 total cpu time :  8083.9 secs   av.it.:   7.8
      thresh= 1.055E-09 alpha_mix =  0.700 |ddv_scf|^2 =  1.755E-18

     End of self-consistent calculation

     Convergence has been achieved 


     Representation #  2 mode #   2

     Self-consistent Calculation

      iter #   1 total cpu time :  8160.9 secs   av.it.:   5.7
      thresh= 1.000E-02 alpha_mix =  0.700 |ddv_scf|^2 =  2.479E-05

      iter #   2 total cpu time :  8245.7 secs   av.it.:   7.9
      thresh= 4.979E-04 alpha_mix =  0.700 |ddv_scf|^2 =  1.112E-05

      iter #   3 total cpu time :  8325.5 secs   av.it.:   7.3
      thresh= 3.335E-04 alpha_mix =  0.700 |ddv_scf|^2 =  3.863E-07

      iter #   4 total cpu time :  8408.1 secs   av.it.:   7.6
      thresh= 6.215E-05 alpha_mix =  0.700 |ddv_scf|^2 =  1.466E-08

      iter #   5 total cpu time :  8494.8 secs   av.it.:   8.2
      thresh= 1.211E-05 alpha_mix =  0.700 |ddv_scf|^2 =  3.842E-10

      iter #   6 total cpu time :  8581.3 secs   av.it.:   8.2
      thresh= 1.960E-06 alpha_mix =  0.700 |ddv_scf|^2 =  1.048E-11

      iter #   7 total cpu time :  8670.8 secs   av.it.:   8.6
      thresh= 3.237E-07 alpha_mix =  0.700 |ddv_scf|^2 =  7.513E-13

      iter #   8 total cpu time :  8761.2 secs   av.it.:   8.7
      thresh= 8.668E-08 alpha_mix =  0.700 |ddv_scf|^2 =  2.658E-14

      iter #   9 total cpu time :  8849.7 secs   av.it.:   8.4
      thresh= 1.630E-08 alpha_mix =  0.700 |ddv_scf|^2 =  4.608E-15

      iter #  10 total cpu time :  8932.9 secs   av.it.:   7.8
      thresh= 6.788E-09 alpha_mix =  0.700 |ddv_scf|^2 =  1.479E-16

      iter #  11 total cpu time :  9019.8 secs   av.it.:   8.1
      thresh= 1.216E-09 alpha_mix =  0.700 |ddv_scf|^2 =  6.924E-18

     End of self-consistent calculation

     Convergence has been achieved 


     Representation #  3 mode #   3

     Self-consistent Calculation

      iter #   1 total cpu time :  9096.2 secs   av.it.:   5.5
      thresh= 1.000E-02 alpha_mix =  0.700 |ddv_scf|^2 =  7.978E-06

      iter #   2 total cpu time :  9180.8 secs   av.it.:   7.8
      thresh= 2.825E-04 alpha_mix =  0.700 |ddv_scf|^2 =  1.254E-07

      iter #   3 total cpu time :  9266.3 secs   av.it.:   8.0
      thresh= 3.542E-05 alpha_mix =  0.700 |ddv_scf|^2 =  6.767E-09

      iter #   4 total cpu time :  9348.2 secs   av.it.:   7.7
      thresh= 8.226E-06 alpha_mix =  0.700 |ddv_scf|^2 =  2.541E-11

      iter #   5 total cpu time :  9432.9 secs   av.it.:   8.0
      thresh= 5.041E-07 alpha_mix =  0.700 |ddv_scf|^2 =  2.344E-14

      iter #   6 total cpu time :  9511.3 secs   av.it.:   7.3
      thresh= 1.531E-08 alpha_mix =  0.700 |ddv_scf|^2 =  1.478E-15

      iter #   7 total cpu time :  9595.1 secs   av.it.:   7.9
      thresh= 3.845E-09 alpha_mix =  0.700 |ddv_scf|^2 =  1.810E-18

     End of self-consistent calculation

     Convergence has been achieved 

     Number of q in the star =   24
     List of q in the star:
          1   0.666666667  -0.333333333   0.666666667
          2  -0.666666667  -0.333333333  -0.666666667
          3   0.666666667  -0.333333333  -0.666666667
          4  -0.666666667  -0.333333333   0.666666667
          5  -0.333333333   0.666666667  -0.666666667
          6  -0.666666667   0.666666667  -0.333333333
          7   0.666666667   0.333333333   0.666666667
          8  -0.666666667   0.333333333   0.666666667
          9   0.666666667   0.333333333  -0.666666667
         10  -0.333333333   0.666666667   0.666666667
         11   0.333333333   0.666666667  -0.666666667
         12  -0.333333333  -0.666666667  -0.666666667
         13   0.666666667  -0.666666667   0.333333333
         14   0.666666667   0.666666667  -0.333333333
         15  -0.666666667  -0.666666667  -0.333333333
         16  -0.666666667   0.666666667   0.333333333
         17   0.333333333  -0.666666667   0.666666667
         18   0.333333333   0.666666667   0.666666667
         19  -0.666666667   0.333333333  -0.666666667
         20  -0.333333333  -0.666666667   0.666666667
         21  -0.666666667  -0.666666667   0.333333333
         22   0.666666667   0.666666667   0.333333333
         23   0.333333333  -0.666666667  -0.666666667
         24   0.666666667  -0.666666667  -0.333333333

     Diagonalizing the dynamical matrix

     q = (    0.666666667  -0.333333333   0.666666667 ) 

 **************************************************************************
     freq (    1) =       1.809299 [THz] =      60.351703 [cm-1]
     freq (    2) =       1.975385 [THz] =      65.891764 [cm-1]
     freq (    3) =       2.988086 [THz] =      99.671809 [cm-1]
 **************************************************************************

     Mode symmetry, C_s (m)     point group:

     freq (  1 -  1) =         60.4  [cm-1]   --> A''                
     freq (  2 -  2) =         65.9  [cm-1]   --> A'                 
     freq (  3 -  3) =         99.7  [cm-1]   --> A'                 

     Calculation of q =    0.5000000  -0.1666667   0.5000000

   Info: using nr1, nr2, nr3 values from input

   Info: using nr1, nr2, nr3 values from input

     Parallelization info
     --------------------
     sticks:   dense  smooth     PW     G-vecs:    dense   smooth      PW
     Min          75      37     13                 1744      614     137
     Max          76      38     14                 1747      618     142
     Sum        1213     595    223                27941     9841    2229



     bravais-lattice index     =            2
     lattice parameter (alat)  =      10.5000  a.u.
     unit-cell volume          =     289.4062 (a.u.)^3
     number of atoms/cell      =            1
     number of atomic types    =            1
     number of electrons       =         9.00
     number of Kohn-Sham states=            9
     kinetic-energy cutoff     =      40.0000  Ry
     charge density cutoff     =     320.0000  Ry
     Exchange-correlation      = SLA  PW   PBE  PBE ( 1  4  3  4 0 0)

     celldm(1)=  10.500000  celldm(2)=   0.000000  celldm(3)=   0.000000
     celldm(4)=   0.000000  celldm(5)=   0.000000  celldm(6)=   0.000000

     crystal axes: (cart. coord. in units of alat)
               a(1) = (  -0.500000   0.000000   0.500000 )  
               a(2) = (   0.000000   0.500000   0.500000 )  
               a(3) = (  -0.500000   0.500000   0.000000 )  

     reciprocal axes: (cart. coord. in units 2 pi/alat)
               b(1) = ( -1.000000 -1.000000  1.000000 )  
               b(2) = (  1.000000  1.000000  1.000000 )  
               b(3) = ( -1.000000  1.000000 -1.000000 )  


     PseudoPot. # 1 for Na read from file:
     /home/s1333534/quantum_espresso/qe-6.1/pseudo/Na_pbe_v1.uspp.F.UPF
     MD5 check sum: 76a99c7e9422403d3e93cbc85ab7bccb
     Pseudo is Ultrasoft, Zval =  9.0
     Generated by new atomic code, or converted to UPF format
     Using radial grid of  819 points,  5 beta functions with: 
                l(1) =   0
                l(2) =   0
                l(3) =   1
                l(4) =   1
                l(5) =   2
     Q(r) pseudized with  8 coefficients,  rinner =    1.250   1.250   1.250
                                                       1.250   1.250

     atomic species   valence    mass     pseudopotential
        Na             9.00    22.99000     Na( 1.00)

     48 Sym. Ops., with inversion, found



   Cartesian axes

     site n.     atom                  positions (alat units)
         1           Na  tau(   1) = (   0.0000000   0.0000000   0.0000000  )

     number of k points= 32800  Marzari-Vanderbilt smearing, width (Ry)=  0.0200

     Number of k-points >= 100: set verbosity='high' to print them.

     Dense  grid:    27941 G-vectors     FFT dimensions: (  45,  45,  45)

     Smooth grid:     9841 G-vectors     FFT dimensions: (  30,  30,  30)

     Estimated max dynamical RAM per process >       0.96MB

     Estimated total allocated dynamical RAM >      61.39MB

     The potential is recalculated from file :
     ./_ph0/na.fcc.save/charge-density.dat

     Starting wfc are    5 atomic +    4 random wfc

     Band Structure Calculation
     Davidson diagonalization with overlap

     ethr =  1.11E-10,  avg # of iterations = 21.4

     total cpu time spent up to now is     2815.2 secs

     End of band structure calculation

     Number of k-points >= 100: set verbosity='high' to print the bands.

     the Fermi energy is     1.0432 ev

     Writing output data file na.fcc.save

                                                                                

     bravais-lattice index     =            2
     lattice parameter (alat)  =      10.5000  a.u.
     unit-cell volume          =     289.4062 (a.u.)^3
     number of atoms/cell      =            1
     number of atomic types    =            1
     kinetic-energy cut-off    =      40.0000  Ry
     charge density cut-off    =     320.0000  Ry
     convergence threshold     =      1.0E-16
     beta                      =       0.7000
     number of iterations used =            4
     Exchange-correlation      = SLA  PW   PBE  PBE ( 1  4  3  4 0 0)


     celldm(1)=   10.50000  celldm(2)=    0.00000  celldm(3)=    0.00000
     celldm(4)=    0.00000  celldm(5)=    0.00000  celldm(6)=    0.00000

     crystal axes: (cart. coord. in units of alat)
               a(1) = ( -0.5000  0.0000  0.5000 )  
               a(2) = (  0.0000  0.5000  0.5000 )  
               a(3) = ( -0.5000  0.5000  0.0000 )  

     reciprocal axes: (cart. coord. in units 2 pi/alat)
               b(1) = ( -1.0000 -1.0000  1.0000 )  
               b(2) = (  1.0000  1.0000  1.0000 )  
               b(3) = ( -1.0000  1.0000 -1.0000 )  


     Atoms inside the unit cell: 

     Cartesian axes

     site n.  atom      mass           positions (alat units)
        1     Na  22.9900   tau(    1) = (    0.00000    0.00000    0.00000  )

     Computing dynamical matrix for 
                    q = (   0.5000000  -0.1666667   0.5000000 )

      2 Sym.Ops. (no q -> -q+G )


     G cutoff =  893.6528  (   1747 G-vectors)     FFT grid: ( 45, 45, 45)
     G cutoff =  446.8264  (    618 G-vectors)  smooth grid: ( 30, 30, 30)

     number of k points= 32800  Marzari-Vanderbilt smearing, width (Ry)=  0.0200

     PseudoPot. # 1 for Na read from file:
     /home/s1333534/quantum_espresso/qe-6.1/pseudo/Na_pbe_v1.uspp.F.UPF
     MD5 check sum: 76a99c7e9422403d3e93cbc85ab7bccb
     Pseudo is Ultrasoft, Zval =  9.0
     Generated by new atomic code, or converted to UPF format
     Using radial grid of  819 points,  5 beta functions with: 
                l(1) =   0
                l(2) =   0
                l(3) =   1
                l(4) =   1
                l(5) =   2
     Q(r) pseudized with  8 coefficients,  rinner =    1.250   1.250   1.250
                                                       1.250   1.250

     Mode symmetry, C_s (m)     point group:


     Atomic displacements:
     There are   3 irreducible representations

     Representation     1      1 modes -A'  To be done

     Representation     2      1 modes -A'  To be done

     Representation     3      1 modes -A''  To be done



     Alpha used in Ewald sum =   2.8000
     PHONON       :     2h40m CPU        2h52m WALL



     Representation #  1 mode #   1

     Self-consistent Calculation

      iter #   1 total cpu time : 10401.2 secs   av.it.:   5.8
[...]

      iter #   4 total cpu time : 24984.9 secs   av.it.:   8.3
      thresh= 1.594E-05 alpha_mix =  0.700 |ddv_scf|^2 =  9.755E-10

      iter #   5 total cpu time : 25067.1 secs   av.it.:   7.8
      thresh= 3.123E-06 alpha_mix =  0.700 |ddv_scf|^2 =  2.590E-11

      iter #   6 total cpu time : 25147.8 secs   av.it.:   7.6
      thresh= 5.089E-07 alpha_mix =  0.700 |ddv_scf|^2 =  5.368E-14

      iter #   7 total cpu time : 25230.8 secs   av.it.:   8.0
      thresh= 2.317E-08 alpha_mix =  0.700 |ddv_scf|^2 =  4.074E-15

      iter #   8 total cpu time : 25314.0 secs   av.it.:   8.0
      thresh= 6.383E-09 alpha_mix =  0.700 |ddv_scf|^2 =  1.162E-17

     End of self-consistent calculation

     Convergence has been achieved 

     Number of q in the star =   24
     List of q in the star:
          1   0.500000000  -0.166666667   0.833333333
          2   0.833333333   0.166666667   0.500000000
          3   0.500000000   0.166666667   0.833333333
          4  -0.833333333  -0.166666667   0.500000000
          5  -0.833333333  -0.166666667  -0.500000000
          6  -0.500000000  -0.166666667  -0.833333333
          7   0.833333333  -0.166666667   0.500000000
          8  -0.500000000  -0.166666667   0.833333333
          9  -0.833333333   0.166666667   0.500000000
         10   0.833333333   0.166666667  -0.500000000
         11   0.833333333  -0.166666667  -0.500000000
         12   0.500000000   0.166666667  -0.833333333
         13  -0.500000000   0.166666667   0.833333333
         14  -0.500000000   0.166666667  -0.833333333
         15  -0.833333333   0.166666667  -0.500000000
         16   0.833333333  -0.500000000   0.166666667
         17   0.833333333   0.500000000  -0.166666667
         18  -0.833333333  -0.500000000  -0.166666667
         19  -0.833333333   0.500000000   0.166666667
         20   0.166666667  -0.500000000   0.833333333
         21  -0.166666667   0.500000000   0.833333333
         22   0.166666667   0.500000000  -0.833333333
         23  -0.166666667  -0.500000000  -0.833333333
         24  -0.500000000   0.833333333   0.166666667

     Diagonalizing the dynamical matrix

     q = (    0.500000000  -0.166666667   0.833333333 ) 

 **************************************************************************
     freq (    1) =       2.002078 [THz] =      66.782134 [cm-1]
     freq (    2) =       2.553604 [THz] =      85.179064 [cm-1]
     freq (    3) =       2.911307 [THz] =      97.110740 [cm-1]
 **************************************************************************

     Mode symmetry, C_2  (2)    point group:

     freq (  1 -  1) =         66.8  [cm-1]   --> B                  
     freq (  2 -  2) =         85.2  [cm-1]   --> A                  
     freq (  3 -  3) =         97.1  [cm-1]   --> B                  

     Calculation of q =   -0.3333333  -1.0000000   0.0000000

   Info: using nr1, nr2, nr3 values from input

   Info: using nr1, nr2, nr3 values from input

     Parallelization info
     --------------------
     sticks:   dense  smooth     PW     G-vecs:    dense   smooth      PW
     Min          75      37     15                 1744      614     151
     Max          76      38     16                 1747      618     153
     Sum        1213     595    241                27941     9841    2421



     bravais-lattice index     =            2
     lattice parameter (alat)  =      10.5000  a.u.
     unit-cell volume          =     289.4062 (a.u.)^3
     number of atoms/cell      =            1
     number of atomic types    =            1
     number of electrons       =         9.00
     number of Kohn-Sham states=            9
     kinetic-energy cutoff     =      40.0000  Ry
     charge density cutoff     =     320.0000  Ry
     Exchange-correlation      = SLA  PW   PBE  PBE ( 1  4  3  4 0 0)

     celldm(1)=  10.500000  celldm(2)=   0.000000  celldm(3)=   0.000000
     celldm(4)=   0.000000  celldm(5)=   0.000000  celldm(6)=   0.000000

     crystal axes: (cart. coord. in units of alat)
               a(1) = (  -0.500000   0.000000   0.500000 )  
               a(2) = (   0.000000   0.500000   0.500000 )  
               a(3) = (  -0.500000   0.500000   0.000000 )  

     reciprocal axes: (cart. coord. in units 2 pi/alat)
               b(1) = ( -1.000000 -1.000000  1.000000 )  
               b(2) = (  1.000000  1.000000  1.000000 )  
               b(3) = ( -1.000000  1.000000 -1.000000 )  


     PseudoPot. # 1 for Na read from file:
     /home/s1333534/quantum_espresso/qe-6.1/pseudo/Na_pbe_v1.uspp.F.UPF
     MD5 check sum: 76a99c7e9422403d3e93cbc85ab7bccb
     Pseudo is Ultrasoft, Zval =  9.0
     Generated by new atomic code, or converted to UPF format
     Using radial grid of  819 points,  5 beta functions with: 
                l(1) =   0
                l(2) =   0
                l(3) =   1
                l(4) =   1
                l(5) =   2
     Q(r) pseudized with  8 coefficients,  rinner =    1.250   1.250   1.250
                                                       1.250   1.250

     atomic species   valence    mass     pseudopotential
        Na             9.00    22.99000     Na( 1.00)

     48 Sym. Ops., with inversion, found



   Cartesian axes

     site n.     atom                  positions (alat units)
         1           Na  tau(   1) = (   0.0000000   0.0000000   0.0000000  )

     number of k points= 16000  Marzari-Vanderbilt smearing, width (Ry)=  0.0200

     Number of k-points >= 100: set verbosity='high' to print them.

     Dense  grid:    27941 G-vectors     FFT dimensions: (  45,  45,  45)

     Smooth grid:     9841 G-vectors     FFT dimensions: (  30,  30,  30)

     Estimated max dynamical RAM per process >       0.96MB

     Estimated total allocated dynamical RAM >      61.39MB

     The potential is recalculated from file :
     ./_ph0/na.fcc.save/charge-density.dat

     Starting wfc are    5 atomic +    4 random wfc

     Band Structure Calculation
     Davidson diagonalization with overlap

     ethr =  1.11E-10,  avg # of iterations = 21.4

     total cpu time spent up to now is     6334.5 secs

     End of band structure calculation

     Number of k-points >= 100: set verbosity='high' to print the bands.

     the Fermi energy is     1.0432 ev

     Writing output data file na.fcc.save

                                                                                

     bravais-lattice index     =            2
     lattice parameter (alat)  =      10.5000  a.u.
     unit-cell volume          =     289.4062 (a.u.)^3
     number of atoms/cell      =            1
     number of atomic types    =            1
     kinetic-energy cut-off    =      40.0000  Ry
     charge density cut-off    =     320.0000  Ry
     convergence threshold     =      1.0E-16
     beta                      =       0.7000
     number of iterations used =            4
     Exchange-correlation      = SLA  PW   PBE  PBE ( 1  4  3  4 0 0)


     celldm(1)=   10.50000  celldm(2)=    0.00000  celldm(3)=    0.00000
     celldm(4)=    0.00000  celldm(5)=    0.00000  celldm(6)=    0.00000

     crystal axes: (cart. coord. in units of alat)
               a(1) = ( -0.5000  0.0000  0.5000 )  
               a(2) = (  0.0000  0.5000  0.5000 )  
               a(3) = ( -0.5000  0.5000  0.0000 )  

     reciprocal axes: (cart. coord. in units 2 pi/alat)
               b(1) = ( -1.0000 -1.0000  1.0000 )  
               b(2) = (  1.0000  1.0000  1.0000 )  
               b(3) = ( -1.0000  1.0000 -1.0000 )  


     Atoms inside the unit cell: 

     Cartesian axes

     site n.  atom      mass           positions (alat units)
        1     Na  22.9900   tau(    1) = (    0.00000    0.00000    0.00000  )

     Computing dynamical matrix for 
                    q = (  -0.3333333  -1.0000000   0.0000000 )

      4 Sym.Ops. (no q -> -q+G )


     G cutoff =  893.6528  (   1747 G-vectors)     FFT grid: ( 45, 45, 45)
     G cutoff =  446.8264  (    618 G-vectors)  smooth grid: ( 30, 30, 30)

     number of k points= 16000  Marzari-Vanderbilt smearing, width (Ry)=  0.0200

     PseudoPot. # 1 for Na read from file:
     /home/s1333534/quantum_espresso/qe-6.1/pseudo/Na_pbe_v1.uspp.F.UPF
     MD5 check sum: 76a99c7e9422403d3e93cbc85ab7bccb
     Pseudo is Ultrasoft, Zval =  9.0
     Generated by new atomic code, or converted to UPF format
     Using radial grid of  819 points,  5 beta functions with: 
                l(1) =   0
                l(2) =   0
                l(3) =   1
                l(4) =   1
                l(5) =   2
     Q(r) pseudized with  8 coefficients,  rinner =    1.250   1.250   1.250
                                                       1.250   1.250

     Mode symmetry, C_2v (mm2)  point group:


     Atomic displacements:
     There are   3 irreducible representations

     Representation     1      1 modes -A_1  D_1  S_1  To be done

     Representation     2      1 modes -B_1  D_3  S_3  To be done

     Representation     3      1 modes -B_2  D_4  S_4  To be done



     Alpha used in Ewald sum =   2.8000
     PHONON       :     6h38m CPU        7h 8m WALL



     Representation #  1 mode #   1

     Self-consistent Calculation

      iter #   1 total cpu time : 25724.9 secs   av.it.:   5.6
      thresh= 1.000E-02 alpha_mix =  0.700 |ddv_scf|^2 =  1.150E-05

      iter #   2 total cpu time : 25767.4 secs   av.it.:   8.0
      thresh= 3.391E-04 alpha_mix =  0.700 |ddv_scf|^2 =  3.562E-07

      iter #   3 total cpu time : 25809.5 secs   av.it.:   7.9
      thresh= 5.969E-05 alpha_mix =  0.700 |ddv_scf|^2 =  1.407E-08

      iter #   4 total cpu time : 25851.7 secs   av.it.:   8.3
      thresh= 1.186E-05 alpha_mix =  0.700 |ddv_scf|^2 =  7.388E-10

      iter #   5 total cpu time : 25893.9 secs   av.it.:   8.2
      thresh= 2.718E-06 alpha_mix =  0.700 |ddv_scf|^2 =  3.768E-11

      iter #   6 total cpu time : 25937.5 secs   av.it.:   8.2
      thresh= 6.139E-07 alpha_mix =  0.700 |ddv_scf|^2 =  2.318E-12

      iter #   7 total cpu time : 25980.0 secs   av.it.:   8.3
      thresh= 1.522E-07 alpha_mix =  0.700 |ddv_scf|^2 =  1.702E-14

      iter #   8 total cpu time : 26021.3 secs   av.it.:   7.9
      thresh= 1.305E-08 alpha_mix =  0.700 |ddv_scf|^2 =  8.444E-16

      iter #   9 total cpu time : 26063.4 secs   av.it.:   8.1
      thresh= 2.906E-09 alpha_mix =  0.700 |ddv_scf|^2 =  9.619E-18

     End of self-consistent calculation

     Convergence has been achieved 


     Representation #  2 mode #   2

     Self-consistent Calculation

      iter #   1 total cpu time : 26100.6 secs   av.it.:   5.6
      thresh= 1.000E-02 alpha_mix =  0.700 |ddv_scf|^2 =  1.286E-05

      iter #   2 total cpu time : 26142.4 secs   av.it.:   7.9
      thresh= 3.587E-04 alpha_mix =  0.700 |ddv_scf|^2 =  2.871E-07

      iter #   3 total cpu time : 26185.7 secs   av.it.:   7.9
      thresh= 5.358E-05 alpha_mix =  0.700 |ddv_scf|^2 =  1.422E-08

      iter #   4 total cpu time : 26227.5 secs   av.it.:   8.0
      thresh= 1.192E-05 alpha_mix =  0.700 |ddv_scf|^2 =  1.670E-10

      iter #   5 total cpu time : 26265.6 secs   av.it.:   7.2
      thresh= 1.292E-06 alpha_mix =  0.700 |ddv_scf|^2 =  1.523E-13

      iter #   6 total cpu time : 26306.1 secs   av.it.:   7.8
      thresh= 3.903E-08 alpha_mix =  0.700 |ddv_scf|^2 =  4.091E-15

      iter #   7 total cpu time : 26346.6 secs   av.it.:   7.7
      thresh= 6.396E-09 alpha_mix =  0.700 |ddv_scf|^2 =  3.673E-17

     End of self-consistent calculation

     Convergence has been achieved 


     Representation #  3 mode #   3

     Self-consistent Calculation

      iter #   1 total cpu time : 26384.4 secs   av.it.:   5.6
      thresh= 1.000E-02 alpha_mix =  0.700 |ddv_scf|^2 =  2.444E-05

      iter #   2 total cpu time : 26425.0 secs   av.it.:   7.7
      thresh= 4.943E-04 alpha_mix =  0.700 |ddv_scf|^2 =  2.736E-06

      iter #   3 total cpu time : 26463.8 secs   av.it.:   7.3
      thresh= 1.654E-04 alpha_mix =  0.700 |ddv_scf|^2 =  2.619E-08

      iter #   4 total cpu time : 26505.5 secs   av.it.:   8.1
      thresh= 1.618E-05 alpha_mix =  0.700 |ddv_scf|^2 =  1.432E-10

      iter #   5 total cpu time : 26542.7 secs   av.it.:   6.9
      thresh= 1.197E-06 alpha_mix =  0.700 |ddv_scf|^2 =  1.554E-13

      iter #   6 total cpu time : 26583.0 secs   av.it.:   7.7
      thresh= 3.942E-08 alpha_mix =  0.700 |ddv_scf|^2 =  9.511E-15

      iter #   7 total cpu time : 26621.9 secs   av.it.:   7.5
      thresh= 9.753E-09 alpha_mix =  0.700 |ddv_scf|^2 =  2.305E-17

     End of self-consistent calculation

     Convergence has been achieved 

     Number of q in the star =   12
     List of q in the star:
          1  -0.333333333  -1.000000000   0.000000000
          2   0.000000000  -1.000000000  -0.333333333
          3   0.000000000  -1.000000000   0.333333333
          4   0.333333333  -1.000000000   0.000000000
          5  -1.000000000   0.000000000  -0.333333333
          6   1.000000000   0.000000000   0.333333333
          7   0.000000000   0.333333333   1.000000000
          8   0.000000000  -0.333333333  -1.000000000
          9  -1.000000000  -0.333333333   0.000000000
         10   1.000000000   0.333333333   0.000000000
         11  -0.333333333   0.000000000   1.000000000
         12   0.333333333   0.000000000   1.000000000

     Diagonalizing the dynamical matrix

     q = (   -0.333333333  -1.000000000   0.000000000 ) 

 **************************************************************************
     freq (    1) =       2.244363 [THz] =      74.863887 [cm-1]
     freq (    2) =       2.598462 [THz] =      86.675347 [cm-1]
     freq (    3) =       3.007733 [THz] =     100.327173 [cm-1]
 **************************************************************************

     Mode symmetry, C_2v (mm2)  point group:

     freq (  1 -  1) =         74.9  [cm-1]   --> A_1  D_1  S_1      
     freq (  2 -  2) =         86.7  [cm-1]   --> B_1  D_3  S_3      
     freq (  3 -  3) =        100.3  [cm-1]   --> B_2  D_4  S_4      

     init_run     :      3.86s CPU      4.01s WALL (      15 calls)
     electrons    :   5231.17s CPU   5495.67s WALL (      15 calls)

     Called by init_run:
     wfcinit      :      0.00s CPU      0.01s WALL (      15 calls)
     potinit      :      0.51s CPU      0.52s WALL (      15 calls)

     Called by electrons:
     c_bands      :   5229.58s CPU   5494.06s WALL (      15 calls)
     v_of_rho     :      0.22s CPU      0.22s WALL (      16 calls)
     newd         :      0.20s CPU      0.21s WALL (      16 calls)

     Called by c_bands:
     init_us_2    :    115.31s CPU    124.30s WALL ( 1269829 calls)
     cegterg      :   4064.17s CPU   4306.82s WALL (  107070 calls)

     Called by sum_band:

     Called by *egterg:
     h_psi        :  14795.50s CPU  15843.40s WALL (11905693 calls)
     s_psi        :    416.29s CPU    454.86s WALL (22980237 calls)
     g_psi        :     13.64s CPU     14.82s WALL ( 1641120 calls)
     cdiaghg      :   1017.45s CPU   1077.69s WALL ( 1714546 calls)

     Called by h_psi:
     h_psi:pot    :  14699.61s CPU  15737.22s WALL (11905693 calls)
     h_psi:calbec :    813.92s CPU    867.13s WALL (11905693 calls)
     vloc_psi     :  13527.16s CPU  14486.17s WALL (11905693 calls)
     add_vuspsi   :    225.99s CPU    245.35s WALL (11905693 calls)

     General routines
     calbec       :   1504.41s CPU   1610.53s WALL (25040399 calls)
     fft          :      6.53s CPU      6.81s WALL (    6496 calls)
     ffts         :     21.69s CPU     23.89s WALL (  112714 calls)
     fftw         :  14832.86s CPU  15954.01s WALL (******** calls)
     interpolate  :      1.19s CPU      1.50s WALL (     890 calls)
     davcio       :    139.99s CPU    247.01s WALL ( 5158815 calls)

     Parallel routines
     fft_scatter  :   6732.30s CPU   7233.54s WALL (******** calls)

     PHONON       :     6h53m CPU        7h23m WALL

     INITIALIZATION: 
     phq_setup    :      1.00s CPU      1.11s WALL (      16 calls)
     phq_init     :    254.88s CPU    268.56s WALL (      16 calls)

     phq_init     :    254.88s CPU    268.56s WALL (      16 calls)
     init_vloc    :      0.17s CPU      0.17s WALL (      16 calls)
     init_us_1    :      1.50s CPU      1.62s WALL (      16 calls)
     newd         :      0.20s CPU      0.21s WALL (      16 calls)
     dvanqq       :      0.79s CPU      0.80s WALL (      16 calls)
     drho         :    199.80s CPU    210.41s WALL (      16 calls)

     DYNAMICAL MATRIX:
     dynmat0      :     36.14s CPU     37.64s WALL (      16 calls)
     phqscf       :  18418.24s CPU  19960.31s WALL (      16 calls)
     dynmatrix    :      0.13s CPU      0.14s WALL (      16 calls)

     phqscf       :  18418.24s CPU  19960.31s WALL (      16 calls)
     solve_linter :  18359.34s CPU  19897.56s WALL (      40 calls)
     drhodv       :     58.64s CPU     62.28s WALL (      40 calls)

     dynmat0      :     36.14s CPU     37.64s WALL (      16 calls)
     dynmat_us    :     36.08s CPU     37.58s WALL (      16 calls)
     d2ionq       :      0.02s CPU      0.02s WALL (      16 calls)

     dynmat_us    :     36.08s CPU     37.58s WALL (      16 calls)
     addusdynmat  :      0.00s CPU      0.00s WALL (      16 calls)

     phqscf       :  18418.24s CPU  19960.31s WALL (      16 calls)
     solve_linter :  18359.34s CPU  19897.56s WALL (      40 calls)

     solve_linter :  18359.34s CPU  19897.56s WALL (      40 calls)
     dvqpsi_us    :    355.56s CPU    377.79s WALL (  110718 calls)
     ortho        :    229.09s CPU    243.98s WALL (  990467 calls)
     cgsolve      :  14562.45s CPU  15670.16s WALL (  990467 calls)
     incdrhoscf   :   1412.08s CPU   1591.22s WALL (  990467 calls)
     addusddens   :      6.10s CPU      6.19s WALL (     391 calls)
     vpsifft      :   1159.06s CPU   1248.22s WALL (  879749 calls)
     dv_of_drho   :      4.80s CPU      4.89s WALL (     405 calls)
     mix_pot      :      0.84s CPU      2.89s WALL (     351 calls)
     ef_shift     :      0.04s CPU      0.14s WALL (       7 calls)
     localdos     :      0.27s CPU      0.28s WALL (       1 calls)
     psymdvscf    :     36.98s CPU     37.99s WALL (     351 calls)
     newdq        :      5.96s CPU      6.07s WALL (     351 calls)
     adddvscf     :     60.08s CPU     64.00s WALL (  879749 calls)
     drhodvus     :      0.03s CPU      0.03s WALL (      40 calls)

     dvqpsi_us    :    355.56s CPU    377.79s WALL (  110718 calls)
     dvqpsi_us_on :     56.22s CPU     58.78s WALL (  110718 calls)

     cgsolve      :  14562.45s CPU  15670.16s WALL (  990467 calls)
     ch_psi       :  13842.71s CPU  14884.85s WALL (10084077 calls)

     ch_psi       :  13842.71s CPU  14884.85s WALL (10084077 calls)
     h_psi        :  14795.50s CPU  15843.40s WALL (11905693 calls)
     last         :   1363.05s CPU   1474.05s WALL (10084077 calls)

     h_psi        :  14795.50s CPU  15843.40s WALL (11905693 calls)
     add_vuspsi   :    225.99s CPU    245.35s WALL (11905693 calls)

     incdrhoscf   :   1412.08s CPU   1591.22s WALL (  990467 calls)
     addusdbec    :    112.49s CPU    119.02s WALL ( 1101185 calls)

     drhodvus     :      0.03s CPU      0.03s WALL (      40 calls)

      General routines
     calbec       :   1504.41s CPU   1610.53s WALL (25040399 calls)
     fft          :      6.53s CPU      6.81s WALL (    6496 calls)
     ffts         :     21.69s CPU     23.89s WALL (  112714 calls)
     fftw         :  14832.86s CPU  15954.01s WALL (******** calls)
     davcio       :    139.99s CPU    247.01s WALL ( 5158815 calls)
     write_rec    :      1.31s CPU      3.10s WALL (     391 calls)


     PHONON       :     6h53m CPU        7h23m WALL


   This run was terminated on:  17:51:44  13Feb2018            

=------------------------------------------------------------------------------=
   JOB DONE.
=------------------------------------------------------------------------------=
