
     Program PHONON v.6.1 (svn rev. 13369) starts on 21Dec2017 at 11:50:53 

     This program is part of the open-source Quantum ESPRESSO suite
     for quantum simulation of materials; please cite
         "P. Giannozzi et al., J. Phys.:Condens. Matter 21 395502 (2009);
          URL http://www.quantum-espresso.org", 
     in publications or presentations arising from this work. More details at
     http://www.quantum-espresso.org/quote

     Parallel version (MPI), running on     4 processors
     R & G space division:  proc/nbgrp/npool/nimage =       4

     Reading data from directory:
     ./na.bcc.save

   Info: using nr1, nr2, nr3 values from input

   Info: using nr1, nr2, nr3 values from input

     IMPORTANT: XC functional enforced from input :
     Exchange-correlation      = SLA  PW   PBE  PBE ( 1  4  3  4 0 0)
     Any further DFT definition will be discarded
     Please, verify this is what you really want


     Parallelization info
     --------------------
     sticks:   dense  smooth     PW     G-vecs:    dense   smooth      PW
     Min         226     112     34                 4237     1494     265
     Max         227     113     35                 4238     1496     266
     Sum         905     451    139                16949     5979    1061



     Dynamical matrices for ( 8, 8, 8)  uniform grid of q-points
     (  29q-points):
       N         xq(1)         xq(2)         xq(3) 
       1   0.000000000   0.000000000   0.000000000
       2   0.000000000  -0.125000000   0.125000000
       3   0.000000000  -0.250000000   0.250000000
       4   0.000000000  -0.375000000   0.375000000
       5   0.000000000   0.500000000  -0.500000000
       6  -0.125000000  -0.125000000   0.250000000
       7  -0.125000000  -0.250000000   0.375000000
       8  -0.125000000   0.625000000  -0.500000000
       9  -0.250000000   0.750000000  -0.500000000
      10  -0.250000000   0.625000000  -0.375000000
      11   0.000000000   0.000000000   0.250000000
      12   0.000000000  -0.125000000   0.375000000
      13   0.000000000  -0.250000000   0.500000000
      14   0.000000000   0.625000000  -0.375000000
      15  -0.125000000  -0.125000000   0.500000000
      16  -0.125000000   0.750000000  -0.375000000
      17  -0.250000000   0.250000000   0.250000000
      18  -0.250000000   0.750000000  -0.250000000
      19   0.625000000  -0.625000000   0.250000000
      20   0.500000000  -0.500000000   0.250000000
      21   0.500000000  -0.625000000   0.375000000
      22   0.000000000   0.000000000   0.500000000
      23   0.000000000  -0.125000000   0.625000000
      24   0.000000000   0.750000000  -0.250000000
      25  -0.125000000   0.875000000  -0.250000000
      26   0.500000000  -0.500000000   0.500000000
      27   0.000000000   0.000000000   0.750000000
      28   0.000000000   0.875000000  -0.125000000
      29   0.000000000   0.000000000  -1.000000000

     Calculation of q =    0.0000000   0.0000000   0.0000000

                                                                                

     bravais-lattice index     =            3
     lattice parameter (alat)  =       7.0456  a.u.
     unit-cell volume          =     174.8733 (a.u.)^3
     number of atoms/cell      =            1
     number of atomic types    =            1
     kinetic-energy cut-off    =      40.0000  Ry
     charge density cut-off    =     320.0000  Ry
     convergence threshold     =      1.0E-12
     beta                      =       0.7000
     number of iterations used =            4
     Exchange-correlation      = SLA  PW   PBE  PBE ( 1  4  3  4 0 0)


     celldm(1)=    7.04560  celldm(2)=    0.00000  celldm(3)=    0.00000
     celldm(4)=    0.00000  celldm(5)=    0.00000  celldm(6)=    0.00000

     crystal axes: (cart. coord. in units of alat)
               a(1) = (  0.5000  0.5000  0.5000 )  
               a(2) = ( -0.5000  0.5000  0.5000 )  
               a(3) = ( -0.5000 -0.5000  0.5000 )  

     reciprocal axes: (cart. coord. in units 2 pi/alat)
               b(1) = (  1.0000  0.0000  1.0000 )  
               b(2) = ( -1.0000  1.0000  0.0000 )  
               b(3) = (  0.0000 -1.0000  1.0000 )  


     Atoms inside the unit cell: 

     Cartesian axes

     site n.  atom      mass           positions (alat units)
        1     Na  22.9900   tau(    1) = (    0.00000    0.00000    0.00000  )

     Computing dynamical matrix for 
                    q = (   0.0000000   0.0000000   0.0000000 )

     49 Sym.Ops. (with q -> -q+G )


     G cutoff =  402.3703  (   4238 G-vectors)     FFT grid: ( 36, 36, 36)
     G cutoff =  201.1851  (   1495 G-vectors)  smooth grid: ( 25, 25, 25)

     number of k points=   100  Marzari-Vanderbilt smearing, width (Ry)=  0.0200

     PseudoPot. # 1 for Na read from file:
     /home/s1333534/quantum_espresso/qe-6.1/pseudo/Na_pbe_v1.uspp.F.UPF
     MD5 check sum: 76a99c7e9422403d3e93cbc85ab7bccb
     Pseudo is Ultrasoft, Zval =  9.0
     Generated by new atomic code, or converted to UPF format
     Using radial grid of  819 points,  5 beta functions with: 
                l(1) =   0
                l(2) =   0
                l(3) =   1
                l(4) =   1
                l(5) =   2
     Q(r) pseudized with  8 coefficients,  rinner =    1.250   1.250   1.250
                                                       1.250   1.250

     Mode symmetry, O_h (m-3m)  point group:


     Atomic displacements:
     There are   1 irreducible representations

     Representation     1      3 modes -T_1u G_15  G_4-  To be done



     Alpha used in Ewald sum =   2.8000
     PHONON       :     0.92s CPU         0.96s WALL



     Representation #  1 modes #   1  2  3

     Self-consistent Calculation

     Pert. #  1: Fermi energy shift (Ry) =     2.7573E-25     6.2693E-38
     Pert. #  2: Fermi energy shift (Ry) =    -6.8932E-25    -1.4106E-37
     Pert. #  3: Fermi energy shift (Ry) =     1.6544E-24    -6.2693E-38

      iter #   1 total cpu time :     2.9 secs   av.it.:   5.4
      thresh= 1.000E-02 alpha_mix =  0.700 |ddv_scf|^2 =  2.493E-06

     Pert. #  1: Fermi energy shift (Ry) =    -1.9301E-24    -9.7958E-40
     Pert. #  2: Fermi energy shift (Ry) =    -1.8612E-24     2.9387E-39
     Pert. #  3: Fermi energy shift (Ry) =    -4.8252E-25     1.2245E-39

      iter #   2 total cpu time :     5.0 secs   av.it.:   8.3
      thresh= 1.579E-04 alpha_mix =  0.700 |ddv_scf|^2 =  4.888E-08

     Pert. #  1: Fermi energy shift (Ry) =    -5.5145E-25     1.1020E-39
     Pert. #  2: Fermi energy shift (Ry) =     1.3442E-24     6.1224E-40
     Pert. #  3: Fermi energy shift (Ry) =    -1.0340E-24    -1.2245E-40

      iter #   3 total cpu time :     7.2 secs   av.it.:   8.5
      thresh= 2.211E-05 alpha_mix =  0.700 |ddv_scf|^2 =  5.456E-10

     Pert. #  1: Fermi energy shift (Ry) =    -6.2039E-25     9.1835E-41
     Pert. #  2: Fermi energy shift (Ry) =    -2.0680E-25     5.2040E-40
     Pert. #  3: Fermi energy shift (Ry) =    -3.1019E-25     4.5918E-41

      iter #   4 total cpu time :     9.3 secs   av.it.:   8.0
      thresh= 2.336E-06 alpha_mix =  0.700 |ddv_scf|^2 =  2.041E-12

     Pert. #  1: Fermi energy shift (Ry) =     2.7573E-25    -1.9898E-40
     Pert. #  2: Fermi energy shift (Ry) =    -3.1019E-25    -9.1835E-41
     Pert. #  3: Fermi energy shift (Ry) =     7.2378E-25     1.2245E-40

      iter #   5 total cpu time :    11.4 secs   av.it.:   8.2
      thresh= 1.429E-07 alpha_mix =  0.700 |ddv_scf|^2 =  7.775E-15

     End of self-consistent calculation

     Convergence has been achieved 

     Number of q in the star =    1
     List of q in the star:
          1   0.000000000   0.000000000   0.000000000

     Diagonalizing the dynamical matrix

     q = (    0.000000000   0.000000000   0.000000000 ) 

 **************************************************************************
     freq (    1) =      -0.221545 [THz] =      -7.389937 [cm-1]
     freq (    2) =      -0.221545 [THz] =      -7.389937 [cm-1]
     freq (    3) =      -0.221545 [THz] =      -7.389937 [cm-1]
 **************************************************************************

     Mode symmetry, O_h (m-3m)  point group:

     freq (  1 -  3) =         -7.4  [cm-1]   --> T_1u G_15  G_4- I  

     Calculation of q =    0.0000000  -0.1250000   0.1250000

   Info: using nr1, nr2, nr3 values from input

   Info: using nr1, nr2, nr3 values from input

     Parallelization info
     --------------------
     sticks:   dense  smooth     PW     G-vecs:    dense   smooth      PW
     Min         226     112     37                 4237     1494     289
     Max         227     113     38                 4238     1496     290
     Sum         905     451    151                16949     5979    1157



     bravais-lattice index     =            3
     lattice parameter (alat)  =       7.0456  a.u.
     unit-cell volume          =     174.8733 (a.u.)^3
     number of atoms/cell      =            1
     number of atomic types    =            1
     number of electrons       =         9.00
     number of Kohn-Sham states=            9
     kinetic-energy cutoff     =      40.0000  Ry
     charge density cutoff     =     320.0000  Ry
     Exchange-correlation      = SLA  PW   PBE  PBE ( 1  4  3  4 0 0)

     celldm(1)=   7.045597  celldm(2)=   0.000000  celldm(3)=   0.000000
     celldm(4)=   0.000000  celldm(5)=   0.000000  celldm(6)=   0.000000

     crystal axes: (cart. coord. in units of alat)
               a(1) = (   0.500000   0.500000   0.500000 )  
               a(2) = (  -0.500000   0.500000   0.500000 )  
               a(3) = (  -0.500000  -0.500000   0.500000 )  

     reciprocal axes: (cart. coord. in units 2 pi/alat)
               b(1) = (  1.000000  0.000000  1.000000 )  
               b(2) = ( -1.000000  1.000000  0.000000 )  
               b(3) = (  0.000000 -1.000000  1.000000 )  


     PseudoPot. # 1 for Na read from file:
     /home/s1333534/quantum_espresso/qe-6.1/pseudo/Na_pbe_v1.uspp.F.UPF
     MD5 check sum: 76a99c7e9422403d3e93cbc85ab7bccb
     Pseudo is Ultrasoft, Zval =  9.0
     Generated by new atomic code, or converted to UPF format
     Using radial grid of  819 points,  5 beta functions with: 
                l(1) =   0
                l(2) =   0
                l(3) =   1
                l(4) =   1
                l(5) =   2
     Q(r) pseudized with  8 coefficients,  rinner =    1.250   1.250   1.250
                                                       1.250   1.250

     atomic species   valence    mass     pseudopotential
        Na             9.00    22.99000     Na( 1.00)

     48 Sym. Ops., with inversion, found



   Cartesian axes

     site n.     atom                  positions (alat units)
         1           Na  tau(   1) = (   0.0000000   0.0000000   0.0000000  )

     number of k points=  1568  Marzari-Vanderbilt smearing, width (Ry)=  0.0200

     Number of k-points >= 100: set verbosity='high' to print them.

     Dense  grid:    16949 G-vectors     FFT dimensions: (  36,  36,  36)

     Smooth grid:     5979 G-vectors     FFT dimensions: (  25,  25,  25)

     Estimated max dynamical RAM per process >       1.60MB

     Estimated total allocated dynamical RAM >       6.39MB

     The potential is recalculated from file :
     ./_ph0/na.bcc.save/charge-density.dat

     Starting wfc are    5 atomic +    4 random wfc

     Band Structure Calculation
     Davidson diagonalization with overlap

     ethr =  1.11E-10,  avg # of iterations = 18.6

     total cpu time spent up to now is       29.8 secs

     End of band structure calculation

     Number of k-points >= 100: set verbosity='high' to print the bands.

     the Fermi energy is     3.4399 ev

     Writing output data file na.bcc.save

                                                                                

     bravais-lattice index     =            3
     lattice parameter (alat)  =       7.0456  a.u.
     unit-cell volume          =     174.8733 (a.u.)^3
     number of atoms/cell      =            1
     number of atomic types    =            1
     kinetic-energy cut-off    =      40.0000  Ry
     charge density cut-off    =     320.0000  Ry
     convergence threshold     =      1.0E-12
     beta                      =       0.7000
     number of iterations used =            4
     Exchange-correlation      = SLA  PW   PBE  PBE ( 1  4  3  4 0 0)


     celldm(1)=    7.04560  celldm(2)=    0.00000  celldm(3)=    0.00000
     celldm(4)=    0.00000  celldm(5)=    0.00000  celldm(6)=    0.00000

     crystal axes: (cart. coord. in units of alat)
               a(1) = (  0.5000  0.5000  0.5000 )  
               a(2) = ( -0.5000  0.5000  0.5000 )  
               a(3) = ( -0.5000 -0.5000  0.5000 )  

     reciprocal axes: (cart. coord. in units 2 pi/alat)
               b(1) = (  1.0000  0.0000  1.0000 )  
               b(2) = ( -1.0000  1.0000  0.0000 )  
               b(3) = (  0.0000 -1.0000  1.0000 )  


     Atoms inside the unit cell: 

     Cartesian axes

     site n.  atom      mass           positions (alat units)
        1     Na  22.9900   tau(    1) = (    0.00000    0.00000    0.00000  )

     Computing dynamical matrix for 
                    q = (   0.0000000  -0.1250000   0.1250000 )

      4 Sym.Ops. (no q -> -q+G )


     G cutoff =  402.3703  (   4238 G-vectors)     FFT grid: ( 36, 36, 36)
     G cutoff =  201.1851  (   1495 G-vectors)  smooth grid: ( 25, 25, 25)

     number of k points=  1568  Marzari-Vanderbilt smearing, width (Ry)=  0.0200

     PseudoPot. # 1 for Na read from file:
     /home/s1333534/quantum_espresso/qe-6.1/pseudo/Na_pbe_v1.uspp.F.UPF
     MD5 check sum: 76a99c7e9422403d3e93cbc85ab7bccb
     Pseudo is Ultrasoft, Zval =  9.0
     Generated by new atomic code, or converted to UPF format
     Using radial grid of  819 points,  5 beta functions with: 
                l(1) =   0
                l(2) =   0
                l(3) =   1
                l(4) =   1
                l(5) =   2
     Q(r) pseudized with  8 coefficients,  rinner =    1.250   1.250   1.250
                                                       1.250   1.250

     Mode symmetry, C_2v (mm2)  point group:


     Atomic displacements:
     There are   3 irreducible representations

     Representation     1      1 modes -A_1  D_1  S_1  To be done

     Representation     2      1 modes -B_1  D_3  S_3  To be done

     Representation     3      1 modes -B_2  D_4  S_4  To be done



     Alpha used in Ewald sum =   2.8000
     PHONON       :    42.06s CPU        44.87s WALL



     Representation #  1 mode #   1

     Self-consistent Calculation

      iter #   1 total cpu time :    49.6 secs   av.it.:   5.6
      thresh= 1.000E-02 alpha_mix =  0.700 |ddv_scf|^2 =  3.170E-01

      iter #   2 total cpu time :    54.4 secs   av.it.:   7.1
      thresh= 1.000E-02 alpha_mix =  0.700 |ddv_scf|^2 =  1.237E+02

      iter #   3 total cpu time :    59.2 secs   av.it.:   7.0
      thresh= 1.000E-02 alpha_mix =  0.700 |ddv_scf|^2 =  2.486E-04

      iter #   4 total cpu time :    63.2 secs   av.it.:   5.3
      thresh= 1.577E-03 alpha_mix =  0.700 |ddv_scf|^2 =  4.897E-07

      iter #   5 total cpu time :    67.9 secs   av.it.:   7.0
      thresh= 6.998E-05 alpha_mix =  0.700 |ddv_scf|^2 =  1.514E-08

      iter #   6 total cpu time :    72.4 secs   av.it.:   6.4
      thresh= 1.230E-05 alpha_mix =  0.700 |ddv_scf|^2 =  6.350E-07

      iter #   7 total cpu time :    76.0 secs   av.it.:   4.7
      thresh= 7.968E-05 alpha_mix =  0.700 |ddv_scf|^2 =  7.579E-11

      iter #   8 total cpu time :    81.3 secs   av.it.:   7.7
      thresh= 8.706E-07 alpha_mix =  0.700 |ddv_scf|^2 =  1.866E-11

      iter #   9 total cpu time :    86.1 secs   av.it.:   7.1
      thresh= 4.319E-07 alpha_mix =  0.700 |ddv_scf|^2 =  1.281E-13

     End of self-consistent calculation

     Convergence has been achieved 


     Representation #  2 mode #   2

     Self-consistent Calculation

      iter #   1 total cpu time :    90.8 secs   av.it.:   5.4
      thresh= 1.000E-02 alpha_mix =  0.700 |ddv_scf|^2 =  2.258E-05

      iter #   2 total cpu time :    95.7 secs   av.it.:   7.3
      thresh= 4.752E-04 alpha_mix =  0.700 |ddv_scf|^2 =  4.367E-07

      iter #   3 total cpu time :   100.8 secs   av.it.:   7.5
      thresh= 6.608E-05 alpha_mix =  0.700 |ddv_scf|^2 =  5.227E-09

      iter #   4 total cpu time :   105.7 secs   av.it.:   7.2
      thresh= 7.230E-06 alpha_mix =  0.700 |ddv_scf|^2 =  1.925E-11

      iter #   5 total cpu time :   110.6 secs   av.it.:   7.3
      thresh= 4.388E-07 alpha_mix =  0.700 |ddv_scf|^2 =  6.729E-14

     End of self-consistent calculation

     Convergence has been achieved 


     Representation #  3 mode #   3

     Self-consistent Calculation

      iter #   1 total cpu time :   115.3 secs   av.it.:   5.4
      thresh= 1.000E-02 alpha_mix =  0.700 |ddv_scf|^2 =  2.307E-05

      iter #   2 total cpu time :   120.2 secs   av.it.:   7.3
      thresh= 4.803E-04 alpha_mix =  0.700 |ddv_scf|^2 =  4.344E-07

      iter #   3 total cpu time :   125.3 secs   av.it.:   7.5
      thresh= 6.591E-05 alpha_mix =  0.700 |ddv_scf|^2 =  6.216E-09

      iter #   4 total cpu time :   130.2 secs   av.it.:   7.2
      thresh= 7.884E-06 alpha_mix =  0.700 |ddv_scf|^2 =  2.286E-11

      iter #   5 total cpu time :   135.1 secs   av.it.:   7.3
      thresh= 4.781E-07 alpha_mix =  0.700 |ddv_scf|^2 =  6.757E-14

     End of self-consistent calculation

     Convergence has been achieved 

     Number of q in the star =   12
     List of q in the star:
          1   0.000000000  -0.125000000   0.125000000
          2   0.125000000   0.000000000   0.125000000
          3  -0.125000000   0.000000000   0.125000000
          4   0.000000000   0.125000000   0.125000000
          5   0.125000000  -0.125000000   0.000000000
          6  -0.125000000   0.000000000  -0.125000000
          7   0.125000000   0.000000000  -0.125000000
          8   0.000000000  -0.125000000  -0.125000000
          9  -0.125000000  -0.125000000   0.000000000
         10  -0.125000000   0.125000000   0.000000000
         11   0.125000000   0.125000000   0.000000000
         12   0.000000000   0.125000000  -0.125000000

     Diagonalizing the dynamical matrix

     q = (    0.000000000  -0.125000000   0.125000000 ) 

 **************************************************************************
     freq (    1) =       0.984223 [THz] =      32.830156 [cm-1]
     freq (    2) =       1.431220 [THz] =      47.740350 [cm-1]
     freq (    3) =       2.650075 [THz] =      88.396999 [cm-1]
 **************************************************************************

     Mode symmetry, C_2v (mm2)  point group:

     freq (  1 -  1) =         32.8  [cm-1]   --> B_1  D_3  S_3      
     freq (  2 -  2) =         47.7  [cm-1]   --> B_2  D_4  S_4      
     freq (  3 -  3) =         88.4  [cm-1]   --> A_1  D_1  S_1      

     Calculation of q =    0.0000000  -0.2500000   0.2500000

   Info: using nr1, nr2, nr3 values from input

   Info: using nr1, nr2, nr3 values from input

     Parallelization info
     --------------------
     sticks:   dense  smooth     PW     G-vecs:    dense   smooth      PW
     Min         226     112     39                 4237     1494     312
     Max         227     113     40                 4238     1496     314
     Sum         905     451    159                16949     5979    1253



     bravais-lattice index     =            3
     lattice parameter (alat)  =       7.0456  a.u.
     unit-cell volume          =     174.8733 (a.u.)^3
     number of atoms/cell      =            1
     number of atomic types    =            1
     number of electrons       =         9.00
     number of Kohn-Sham states=            9
     kinetic-energy cutoff     =      40.0000  Ry
     charge density cutoff     =     320.0000  Ry
     Exchange-correlation      = SLA  PW   PBE  PBE ( 1  4  3  4 0 0)

     celldm(1)=   7.045597  celldm(2)=   0.000000  celldm(3)=   0.000000
     celldm(4)=   0.000000  celldm(5)=   0.000000  celldm(6)=   0.000000

     crystal axes: (cart. coord. in units of alat)
               a(1) = (   0.500000   0.500000   0.500000 )  
               a(2) = (  -0.500000   0.500000   0.500000 )  
               a(3) = (  -0.500000  -0.500000   0.500000 )  

     reciprocal axes: (cart. coord. in units 2 pi/alat)
               b(1) = (  1.000000  0.000000  1.000000 )  
               b(2) = ( -1.000000  1.000000  0.000000 )  
               b(3) = (  0.000000 -1.000000  1.000000 )  


     PseudoPot. # 1 for Na read from file:
     /home/s1333534/quantum_espresso/qe-6.1/pseudo/Na_pbe_v1.uspp.F.UPF
     MD5 check sum: 76a99c7e9422403d3e93cbc85ab7bccb
     Pseudo is Ultrasoft, Zval =  9.0
     Generated by new atomic code, or converted to UPF format
     Using radial grid of  819 points,  5 beta functions with: 
                l(1) =   0
                l(2) =   0
                l(3) =   1
                l(4) =   1
                l(5) =   2
     Q(r) pseudized with  8 coefficients,  rinner =    1.250   1.250   1.250
                                                       1.250   1.250

     atomic species   valence    mass     pseudopotential
        Na             9.00    22.99000     Na( 1.00)

     48 Sym. Ops., with inversion, found



   Cartesian axes

     site n.     atom                  positions (alat units)
         1           Na  tau(   1) = (   0.0000000   0.0000000   0.0000000  )

     number of k points=  1568  Marzari-Vanderbilt smearing, width (Ry)=  0.0200

     Number of k-points >= 100: set verbosity='high' to print them.

     Dense  grid:    16949 G-vectors     FFT dimensions: (  36,  36,  36)

     Smooth grid:     5979 G-vectors     FFT dimensions: (  25,  25,  25)

     Estimated max dynamical RAM per process >       1.60MB

     Estimated total allocated dynamical RAM >       6.39MB

     The potential is recalculated from file :
     ./_ph0/na.bcc.save/charge-density.dat

     Starting wfc are    5 atomic +    4 random wfc

     Band Structure Calculation
     Davidson diagonalization with overlap

     ethr =  1.11E-10,  avg # of iterations = 18.6

     total cpu time spent up to now is       60.7 secs

     End of band structure calculation

     Number of k-points >= 100: set verbosity='high' to print the bands.

     the Fermi energy is     3.4399 ev

     Writing output data file na.bcc.save

                                                                                

     bravais-lattice index     =            3
     lattice parameter (alat)  =       7.0456  a.u.
     unit-cell volume          =     174.8733 (a.u.)^3
     number of atoms/cell      =            1
     number of atomic types    =            1
     kinetic-energy cut-off    =      40.0000  Ry
     charge density cut-off    =     320.0000  Ry
     convergence threshold     =      1.0E-12
     beta                      =       0.7000
     number of iterations used =            4
     Exchange-correlation      = SLA  PW   PBE  PBE ( 1  4  3  4 0 0)


     celldm(1)=    7.04560  celldm(2)=    0.00000  celldm(3)=    0.00000
     celldm(4)=    0.00000  celldm(5)=    0.00000  celldm(6)=    0.00000

     crystal axes: (cart. coord. in units of alat)
               a(1) = (  0.5000  0.5000  0.5000 )  
               a(2) = ( -0.5000  0.5000  0.5000 )  
               a(3) = ( -0.5000 -0.5000  0.5000 )  

     reciprocal axes: (cart. coord. in units 2 pi/alat)
               b(1) = (  1.0000  0.0000  1.0000 )  
               b(2) = ( -1.0000  1.0000  0.0000 )  
               b(3) = (  0.0000 -1.0000  1.0000 )  


     Atoms inside the unit cell: 

     Cartesian axes

     site n.  atom      mass           positions (alat units)
        1     Na  22.9900   tau(    1) = (    0.00000    0.00000    0.00000  )

     Computing dynamical matrix for 
                    q = (   0.0000000  -0.2500000   0.2500000 )

      4 Sym.Ops. (no q -> -q+G )


     G cutoff =  402.3703  (   4238 G-vectors)     FFT grid: ( 36, 36, 36)
     G cutoff =  201.1851  (   1495 G-vectors)  smooth grid: ( 25, 25, 25)

     number of k points=  1568  Marzari-Vanderbilt smearing, width (Ry)=  0.0200

     PseudoPot. # 1 for Na read from file:
     /home/s1333534/quantum_espresso/qe-6.1/pseudo/Na_pbe_v1.uspp.F.UPF
     MD5 check sum: 76a99c7e9422403d3e93cbc85ab7bccb
     Pseudo is Ultrasoft, Zval =  9.0
     Generated by new atomic code, or converted to UPF format
     Using radial grid of  819 points,  5 beta functions with: 
                l(1) =   0
                l(2) =   0
                l(3) =   1
                l(4) =   1
                l(5) =   2
     Q(r) pseudized with  8 coefficients,  rinner =    1.250   1.250   1.250
                                                       1.250   1.250

     Mode symmetry, C_2v (mm2)  point group:


     Atomic displacements:
     There are   3 irreducible representations

     Representation     1      1 modes -A_1  D_1  S_1  To be done

     Representation     2      1 modes -B_1  D_3  S_3  To be done

     Representation     3      1 modes -B_2  D_4  S_4  To be done



     Alpha used in Ewald sum =   2.8000
     PHONON       :  2m35.31s CPU     2m48.58s WALL



     Representation #  1 mode #   1

     Self-consistent Calculation

      iter #   1 total cpu time :   173.3 secs   av.it.:   5.7
      thresh= 1.000E-02 alpha_mix =  0.700 |ddv_scf|^2 =  5.188E-03

      iter #   2 total cpu time :   177.7 secs   av.it.:   6.2
      thresh= 7.203E-03 alpha_mix =  0.700 |ddv_scf|^2 =  9.802E-02

      iter #   3 total cpu time :   182.0 secs   av.it.:   5.9
      thresh= 1.000E-02 alpha_mix =  0.700 |ddv_scf|^2 =  4.414E-06

      iter #   4 total cpu time :   186.9 secs   av.it.:   7.2
      thresh= 2.101E-04 alpha_mix =  0.700 |ddv_scf|^2 =  2.021E-08

      iter #   5 total cpu time :   192.1 secs   av.it.:   7.9
      thresh= 1.422E-05 alpha_mix =  0.700 |ddv_scf|^2 =  2.918E-09

      iter #   6 total cpu time :   197.1 secs   av.it.:   7.6
      thresh= 5.401E-06 alpha_mix =  0.700 |ddv_scf|^2 =  4.081E-11

      iter #   7 total cpu time :   202.3 secs   av.it.:   7.8
      thresh= 6.388E-07 alpha_mix =  0.700 |ddv_scf|^2 =  3.800E-12

      iter #   8 total cpu time :   207.3 secs   av.it.:   7.2
      thresh= 1.949E-07 alpha_mix =  0.700 |ddv_scf|^2 =  1.631E-11

      iter #   9 total cpu time :   211.7 secs   av.it.:   6.2
      thresh= 4.039E-07 alpha_mix =  0.700 |ddv_scf|^2 =  1.682E-12

      iter #  10 total cpu time :   216.4 secs   av.it.:   6.9
      thresh= 1.297E-07 alpha_mix =  0.700 |ddv_scf|^2 =  7.222E-14

     End of self-consistent calculation

     Convergence has been achieved 


     Representation #  2 mode #   2

     Self-consistent Calculation

      iter #   1 total cpu time :   221.1 secs   av.it.:   5.5
      thresh= 1.000E-02 alpha_mix =  0.700 |ddv_scf|^2 =  2.301E-05

      iter #   2 total cpu time :   226.1 secs   av.it.:   7.3
      thresh= 4.797E-04 alpha_mix =  0.700 |ddv_scf|^2 =  4.261E-07

      iter #   3 total cpu time :   231.2 secs   av.it.:   7.6
      thresh= 6.528E-05 alpha_mix =  0.700 |ddv_scf|^2 =  6.268E-09

      iter #   4 total cpu time :   236.1 secs   av.it.:   7.2
      thresh= 7.917E-06 alpha_mix =  0.700 |ddv_scf|^2 =  2.194E-11

      iter #   5 total cpu time :   241.1 secs   av.it.:   7.4
      thresh= 4.685E-07 alpha_mix =  0.700 |ddv_scf|^2 =  5.917E-14

     End of self-consistent calculation

     Convergence has been achieved 


     Representation #  3 mode #   3

     Self-consistent Calculation

      iter #   1 total cpu time :   245.9 secs   av.it.:   5.5
      thresh= 1.000E-02 alpha_mix =  0.700 |ddv_scf|^2 =  2.470E-05

      iter #   2 total cpu time :   250.9 secs   av.it.:   7.4
      thresh= 4.970E-04 alpha_mix =  0.700 |ddv_scf|^2 =  4.184E-07

      iter #   3 total cpu time :   256.0 secs   av.it.:   7.6
      thresh= 6.468E-05 alpha_mix =  0.700 |ddv_scf|^2 =  9.931E-09

      iter #   4 total cpu time :   261.0 secs   av.it.:   7.3
      thresh= 9.965E-06 alpha_mix =  0.700 |ddv_scf|^2 =  3.598E-11

      iter #   5 total cpu time :   266.0 secs   av.it.:   7.4
      thresh= 5.998E-07 alpha_mix =  0.700 |ddv_scf|^2 =  6.385E-14

     End of self-consistent calculation

     Convergence has been achieved 

     Number of q in the star =   12
     List of q in the star:
          1   0.000000000  -0.250000000   0.250000000
          2   0.250000000   0.000000000   0.250000000
          3  -0.250000000   0.000000000   0.250000000
          4   0.000000000   0.250000000   0.250000000
          5   0.250000000  -0.250000000   0.000000000
          6  -0.250000000   0.000000000  -0.250000000
          7   0.250000000   0.000000000  -0.250000000
          8   0.000000000  -0.250000000  -0.250000000
          9  -0.250000000  -0.250000000   0.000000000
         10  -0.250000000   0.250000000   0.000000000
         11   0.250000000   0.250000000   0.000000000
         12   0.000000000   0.250000000  -0.250000000

     Diagonalizing the dynamical matrix

     q = (    0.000000000  -0.250000000   0.250000000 ) 

 **************************************************************************
     freq (    1) =       1.388986 [THz] =      46.331582 [cm-1]
     freq (    2) =       2.431394 [THz] =      81.102574 [cm-1]
     freq (    3) =       4.508964 [THz] =     150.402849 [cm-1]
 **************************************************************************

     Mode symmetry, C_2v (mm2)  point group:

     freq (  1 -  1) =         46.3  [cm-1]   --> B_1  D_3  S_3      
     freq (  2 -  2) =         81.1  [cm-1]   --> B_2  D_4  S_4      
     freq (  3 -  3) =        150.4  [cm-1]   --> A_1  D_1  S_1      

     Calculation of q =    0.0000000  -0.3750000   0.3750000

   Info: using nr1, nr2, nr3 values from input

   Info: using nr1, nr2, nr3 values from input

     Parallelization info
     --------------------
     sticks:   dense  smooth     PW     G-vecs:    dense   smooth      PW
     Min         226     112     41                 4237     1494     322
     Max         227     113     42                 4238     1496     323
     Sum         905     451    165                16949     5979    1289



     bravais-lattice index     =            3
     lattice parameter (alat)  =       7.0456  a.u.
     unit-cell volume          =     174.8733 (a.u.)^3
     number of atoms/cell      =            1
     number of atomic types    =            1
     number of electrons       =         9.00
     number of Kohn-Sham states=            9
     kinetic-energy cutoff     =      40.0000  Ry
     charge density cutoff     =     320.0000  Ry
     Exchange-correlation      = SLA  PW   PBE  PBE ( 1  4  3  4 0 0)

     celldm(1)=   7.045597  celldm(2)=   0.000000  celldm(3)=   0.000000
     celldm(4)=   0.000000  celldm(5)=   0.000000  celldm(6)=   0.000000

     crystal axes: (cart. coord. in units of alat)
               a(1) = (   0.500000   0.500000   0.500000 )  
               a(2) = (  -0.500000   0.500000   0.500000 )  
               a(3) = (  -0.500000  -0.500000   0.500000 )  

     reciprocal axes: (cart. coord. in units 2 pi/alat)
               b(1) = (  1.000000  0.000000  1.000000 )  
               b(2) = ( -1.000000  1.000000  0.000000 )  
               b(3) = (  0.000000 -1.000000  1.000000 )  


     PseudoPot. # 1 for Na read from file:
     /home/s1333534/quantum_espresso/qe-6.1/pseudo/Na_pbe_v1.uspp.F.UPF
     MD5 check sum: 76a99c7e9422403d3e93cbc85ab7bccb
     Pseudo is Ultrasoft, Zval =  9.0
     Generated by new atomic code, or converted to UPF format
     Using radial grid of  819 points,  5 beta functions with: 
                l(1) =   0
                l(2) =   0
                l(3) =   1
                l(4) =   1
                l(5) =   2
     Q(r) pseudized with  8 coefficients,  rinner =    1.250   1.250   1.250
                                                       1.250   1.250

     atomic species   valence    mass     pseudopotential
        Na             9.00    22.99000     Na( 1.00)

     48 Sym. Ops., with inversion, found



   Cartesian axes

     site n.     atom                  positions (alat units)
         1           Na  tau(   1) = (   0.0000000   0.0000000   0.0000000  )

     number of k points=  1568  Marzari-Vanderbilt smearing, width (Ry)=  0.0200

     Number of k-points >= 100: set verbosity='high' to print them.

     Dense  grid:    16949 G-vectors     FFT dimensions: (  36,  36,  36)

     Smooth grid:     5979 G-vectors     FFT dimensions: (  25,  25,  25)

     Estimated max dynamical RAM per process >       1.60MB

     Estimated total allocated dynamical RAM >       6.39MB

     The potential is recalculated from file :
     ./_ph0/na.bcc.save/charge-density.dat

     Starting wfc are    5 atomic +    4 random wfc

     Band Structure Calculation
     Davidson diagonalization with overlap

     ethr =  1.11E-10,  avg # of iterations = 18.6

     total cpu time spent up to now is       91.7 secs

     End of band structure calculation

     Number of k-points >= 100: set verbosity='high' to print the bands.

     the Fermi energy is     3.4399 ev

     Writing output data file na.bcc.save

                                                                                

     bravais-lattice index     =            3
     lattice parameter (alat)  =       7.0456  a.u.
     unit-cell volume          =     174.8733 (a.u.)^3
     number of atoms/cell      =            1
     number of atomic types    =            1
     kinetic-energy cut-off    =      40.0000  Ry
     charge density cut-off    =     320.0000  Ry
     convergence threshold     =      1.0E-12
     beta                      =       0.7000
     number of iterations used =            4
     Exchange-correlation      = SLA  PW   PBE  PBE ( 1  4  3  4 0 0)


     celldm(1)=    7.04560  celldm(2)=    0.00000  celldm(3)=    0.00000
     celldm(4)=    0.00000  celldm(5)=    0.00000  celldm(6)=    0.00000

     crystal axes: (cart. coord. in units of alat)
               a(1) = (  0.5000  0.5000  0.5000 )  
               a(2) = ( -0.5000  0.5000  0.5000 )  
               a(3) = ( -0.5000 -0.5000  0.5000 )  

     reciprocal axes: (cart. coord. in units 2 pi/alat)
               b(1) = (  1.0000  0.0000  1.0000 )  
               b(2) = ( -1.0000  1.0000  0.0000 )  
               b(3) = (  0.0000 -1.0000  1.0000 )  


     Atoms inside the unit cell: 

     Cartesian axes

     site n.  atom      mass           positions (alat units)
        1     Na  22.9900   tau(    1) = (    0.00000    0.00000    0.00000  )

     Computing dynamical matrix for 
                    q = (   0.0000000  -0.3750000   0.3750000 )

      4 Sym.Ops. (no q -> -q+G )


     G cutoff =  402.3703  (   4237 G-vectors)     FFT grid: ( 36, 36, 36)
     G cutoff =  201.1851  (   1495 G-vectors)  smooth grid: ( 25, 25, 25)

     number of k points=  1568  Marzari-Vanderbilt smearing, width (Ry)=  0.0200

     PseudoPot. # 1 for Na read from file:
     /home/s1333534/quantum_espresso/qe-6.1/pseudo/Na_pbe_v1.uspp.F.UPF
     MD5 check sum: 76a99c7e9422403d3e93cbc85ab7bccb
     Pseudo is Ultrasoft, Zval =  9.0
     Generated by new atomic code, or converted to UPF format
     Using radial grid of  819 points,  5 beta functions with: 
                l(1) =   0
                l(2) =   0
                l(3) =   1
                l(4) =   1
                l(5) =   2
     Q(r) pseudized with  8 coefficients,  rinner =    1.250   1.250   1.250
                                                       1.250   1.250

     Mode symmetry, C_2v (mm2)  point group:


     Atomic displacements:
     There are   3 irreducible representations

     Representation     1      1 modes -A_1  D_1  S_1  To be done

     Representation     2      1 modes -B_1  D_3  S_3  To be done

     Representation     3      1 modes -B_2  D_4  S_4  To be done



     Alpha used in Ewald sum =   2.8000
     PHONON       :  4m35.23s CPU     4m59.67s WALL



     Representation #  1 mode #   1

     Self-consistent Calculation

      iter #   1 total cpu time :   304.5 secs   av.it.:   5.7
      thresh= 1.000E-02 alpha_mix =  0.700 |ddv_scf|^2 =  5.756E-04

      iter #   2 total cpu time :   309.1 secs   av.it.:   6.6
      thresh= 2.399E-03 alpha_mix =  0.700 |ddv_scf|^2 =  1.503E-03

      iter #   3 total cpu time :   313.5 secs   av.it.:   6.1
      thresh= 3.877E-03 alpha_mix =  0.700 |ddv_scf|^2 =  5.973E-07

      iter #   4 total cpu time :   318.7 secs   av.it.:   7.7
      thresh= 7.729E-05 alpha_mix =  0.700 |ddv_scf|^2 =  1.851E-08

      iter #   5 total cpu time :   324.1 secs   av.it.:   8.1
      thresh= 1.360E-05 alpha_mix =  0.700 |ddv_scf|^2 =  8.772E-10

      iter #   6 total cpu time :   329.3 secs   av.it.:   7.8
      thresh= 2.962E-06 alpha_mix =  0.700 |ddv_scf|^2 =  2.570E-11

      iter #   7 total cpu time :   335.2 secs   av.it.:   7.4
      thresh= 5.070E-07 alpha_mix =  0.700 |ddv_scf|^2 =  1.498E-12

      iter #   8 total cpu time :   340.4 secs   av.it.:   7.7
      thresh= 1.224E-07 alpha_mix =  0.700 |ddv_scf|^2 =  9.897E-15

     End of self-consistent calculation

     Convergence has been achieved 


     Representation #  2 mode #   2

     Self-consistent Calculation

      iter #   1 total cpu time :   345.2 secs   av.it.:   5.5
      thresh= 1.000E-02 alpha_mix =  0.700 |ddv_scf|^2 =  2.355E-05

      iter #   2 total cpu time :   350.2 secs   av.it.:   7.4
      thresh= 4.853E-04 alpha_mix =  0.700 |ddv_scf|^2 =  4.123E-07

      iter #   3 total cpu time :   355.4 secs   av.it.:   7.6
      thresh= 6.421E-05 alpha_mix =  0.700 |ddv_scf|^2 =  7.854E-09

      iter #   4 total cpu time :   360.3 secs   av.it.:   7.2
      thresh= 8.862E-06 alpha_mix =  0.700 |ddv_scf|^2 =  2.552E-11

      iter #   5 total cpu time :   365.4 secs   av.it.:   7.4
      thresh= 5.052E-07 alpha_mix =  0.700 |ddv_scf|^2 =  4.938E-14

     End of self-consistent calculation

     Convergence has been achieved 


     Representation #  3 mode #   3

     Self-consistent Calculation

      iter #   1 total cpu time :   370.2 secs   av.it.:   5.5
      thresh= 1.000E-02 alpha_mix =  0.700 |ddv_scf|^2 =  2.650E-05

      iter #   2 total cpu time :   375.2 secs   av.it.:   7.3
      thresh= 5.148E-04 alpha_mix =  0.700 |ddv_scf|^2 =  4.009E-07

      iter #   3 total cpu time :   380.4 secs   av.it.:   7.6
      thresh= 6.332E-05 alpha_mix =  0.700 |ddv_scf|^2 =  1.477E-08

      iter #   4 total cpu time :   385.3 secs   av.it.:   7.3
      thresh= 1.215E-05 alpha_mix =  0.700 |ddv_scf|^2 =  5.359E-11

      iter #   5 total cpu time :   390.4 secs   av.it.:   7.4
      thresh= 7.321E-07 alpha_mix =  0.700 |ddv_scf|^2 =  6.411E-14

     End of self-consistent calculation

     Convergence has been achieved 

     Number of q in the star =   12
     List of q in the star:
          1   0.000000000  -0.375000000   0.375000000
          2   0.375000000   0.000000000   0.375000000
          3  -0.375000000   0.000000000   0.375000000
          4   0.000000000   0.375000000   0.375000000
          5   0.375000000  -0.375000000   0.000000000
          6  -0.375000000   0.000000000  -0.375000000
          7   0.375000000   0.000000000  -0.375000000
          8   0.000000000  -0.375000000  -0.375000000
          9  -0.375000000  -0.375000000   0.000000000
         10  -0.375000000   0.375000000   0.000000000
         11   0.375000000   0.375000000   0.000000000
         12   0.000000000   0.375000000  -0.375000000

     Diagonalizing the dynamical matrix

     q = (    0.000000000  -0.375000000   0.375000000 ) 

 **************************************************************************
     freq (    1) =       1.446649 [THz] =      48.255008 [cm-1]
     freq (    2) =       3.075342 [THz] =     102.582379 [cm-1]
     freq (    3) =       5.814384 [THz] =     193.946960 [cm-1]
 **************************************************************************

     Mode symmetry, C_2v (mm2)  point group:

     freq (  1 -  1) =         48.3  [cm-1]   --> B_1  D_3  S_3      
     freq (  2 -  2) =        102.6  [cm-1]   --> B_2  D_4  S_4      
     freq (  3 -  3) =        193.9  [cm-1]   --> A_1  D_1  S_1      

     Calculation of q =    0.0000000   0.5000000  -0.5000000

   Info: using nr1, nr2, nr3 values from input

   Info: using nr1, nr2, nr3 values from input

     Parallelization info
     --------------------
     sticks:   dense  smooth     PW     G-vecs:    dense   smooth      PW
     Min         226     112     42                 4237     1494     352
     Max         227     113     43                 4238     1496     353
     Sum         905     451    169                16949     5979    1409



     bravais-lattice index     =            3
     lattice parameter (alat)  =       7.0456  a.u.
     unit-cell volume          =     174.8733 (a.u.)^3
     number of atoms/cell      =            1
     number of atomic types    =            1
     number of electrons       =         9.00
     number of Kohn-Sham states=            9
     kinetic-energy cutoff     =      40.0000  Ry
     charge density cutoff     =     320.0000  Ry
     Exchange-correlation      = SLA  PW   PBE  PBE ( 1  4  3  4 0 0)

     celldm(1)=   7.045597  celldm(2)=   0.000000  celldm(3)=   0.000000
     celldm(4)=   0.000000  celldm(5)=   0.000000  celldm(6)=   0.000000

     crystal axes: (cart. coord. in units of alat)
               a(1) = (   0.500000   0.500000   0.500000 )  
               a(2) = (  -0.500000   0.500000   0.500000 )  
               a(3) = (  -0.500000  -0.500000   0.500000 )  

     reciprocal axes: (cart. coord. in units 2 pi/alat)
               b(1) = (  1.000000  0.000000  1.000000 )  
               b(2) = ( -1.000000  1.000000  0.000000 )  
               b(3) = (  0.000000 -1.000000  1.000000 )  


     PseudoPot. # 1 for Na read from file:
     /home/s1333534/quantum_espresso/qe-6.1/pseudo/Na_pbe_v1.uspp.F.UPF
     MD5 check sum: 76a99c7e9422403d3e93cbc85ab7bccb
     Pseudo is Ultrasoft, Zval =  9.0
     Generated by new atomic code, or converted to UPF format
     Using radial grid of  819 points,  5 beta functions with: 
                l(1) =   0
                l(2) =   0
                l(3) =   1
                l(4) =   1
                l(5) =   2
     Q(r) pseudized with  8 coefficients,  rinner =    1.250   1.250   1.250
                                                       1.250   1.250

     atomic species   valence    mass     pseudopotential
        Na             9.00    22.99000     Na( 1.00)

     48 Sym. Ops., with inversion, found



   Cartesian axes

     site n.     atom                  positions (alat units)
         1           Na  tau(   1) = (   0.0000000   0.0000000   0.0000000  )

     number of k points=   840  Marzari-Vanderbilt smearing, width (Ry)=  0.0200

     Number of k-points >= 100: set verbosity='high' to print them.

     Dense  grid:    16949 G-vectors     FFT dimensions: (  36,  36,  36)

     Smooth grid:     5979 G-vectors     FFT dimensions: (  25,  25,  25)

     Estimated max dynamical RAM per process >       1.60MB

     Estimated total allocated dynamical RAM >       6.39MB

     The potential is recalculated from file :
     ./_ph0/na.bcc.save/charge-density.dat

     Starting wfc are    5 atomic +    4 random wfc

     Band Structure Calculation
     Davidson diagonalization with overlap

     ethr =  1.11E-10,  avg # of iterations = 18.6

     total cpu time spent up to now is      109.0 secs

     End of band structure calculation

     Number of k-points >= 100: set verbosity='high' to print the bands.

     the Fermi energy is     3.4399 ev

     Writing output data file na.bcc.save

                                                                                

     bravais-lattice index     =            3
     lattice parameter (alat)  =       7.0456  a.u.
     unit-cell volume          =     174.8733 (a.u.)^3
     number of atoms/cell      =            1
     number of atomic types    =            1
     kinetic-energy cut-off    =      40.0000  Ry
     charge density cut-off    =     320.0000  Ry
     convergence threshold     =      1.0E-12
     beta                      =       0.7000
     number of iterations used =            4
     Exchange-correlation      = SLA  PW   PBE  PBE ( 1  4  3  4 0 0)


     celldm(1)=    7.04560  celldm(2)=    0.00000  celldm(3)=    0.00000
     celldm(4)=    0.00000  celldm(5)=    0.00000  celldm(6)=    0.00000

     crystal axes: (cart. coord. in units of alat)
               a(1) = (  0.5000  0.5000  0.5000 )  
               a(2) = ( -0.5000  0.5000  0.5000 )  
               a(3) = ( -0.5000 -0.5000  0.5000 )  

     reciprocal axes: (cart. coord. in units 2 pi/alat)
               b(1) = (  1.0000  0.0000  1.0000 )  
               b(2) = ( -1.0000  1.0000  0.0000 )  
               b(3) = (  0.0000 -1.0000  1.0000 )  


     Atoms inside the unit cell: 

     Cartesian axes

     site n.  atom      mass           positions (alat units)
        1     Na  22.9900   tau(    1) = (    0.00000    0.00000    0.00000  )

     Computing dynamical matrix for 
                    q = (   0.0000000   0.5000000  -0.5000000 )

      9 Sym.Ops. (with q -> -q+G )


     G cutoff =  402.3703  (   4238 G-vectors)     FFT grid: ( 36, 36, 36)
     G cutoff =  201.1851  (   1495 G-vectors)  smooth grid: ( 25, 25, 25)

     number of k points=   840  Marzari-Vanderbilt smearing, width (Ry)=  0.0200

     PseudoPot. # 1 for Na read from file:
     /home/s1333534/quantum_espresso/qe-6.1/pseudo/Na_pbe_v1.uspp.F.UPF
     MD5 check sum: 76a99c7e9422403d3e93cbc85ab7bccb
     Pseudo is Ultrasoft, Zval =  9.0
     Generated by new atomic code, or converted to UPF format
     Using radial grid of  819 points,  5 beta functions with: 
                l(1) =   0
                l(2) =   0
                l(3) =   1
                l(4) =   1
                l(5) =   2
     Q(r) pseudized with  8 coefficients,  rinner =    1.250   1.250   1.250
                                                       1.250   1.250

     Mode symmetry, D_2h (mmm)  point group:


     Atomic displacements:
     There are   3 irreducible representations

     Representation     1      1 modes -B_1u  To be done

     Representation     2      1 modes -B_2u  To be done

     Representation     3      1 modes -B_3u  To be done



     Alpha used in Ewald sum =   2.8000
     PHONON       :  6m14.47s CPU     6m48.66s WALL



     Representation #  1 mode #   1

     Self-consistent Calculation

      iter #   1 total cpu time :   411.2 secs   av.it.:   5.5
      thresh= 1.000E-02 alpha_mix =  0.700 |ddv_scf|^2 =  2.729E-05

      iter #   2 total cpu time :   413.9 secs   av.it.:   7.3
      thresh= 5.224E-04 alpha_mix =  0.700 |ddv_scf|^2 =  3.946E-07

      iter #   3 total cpu time :   416.7 secs   av.it.:   7.5
      thresh= 6.282E-05 alpha_mix =  0.700 |ddv_scf|^2 =  1.709E-08

      iter #   4 total cpu time :   419.3 secs   av.it.:   7.0
      thresh= 1.307E-05 alpha_mix =  0.700 |ddv_scf|^2 =  6.206E-11

      iter #   5 total cpu time :   422.0 secs   av.it.:   7.3
      thresh= 7.878E-07 alpha_mix =  0.700 |ddv_scf|^2 =  6.557E-14

     End of self-consistent calculation

     Convergence has been achieved 


     Representation #  2 mode #   2

     Self-consistent Calculation

      iter #   1 total cpu time :   424.6 secs   av.it.:   5.5
      thresh= 1.000E-02 alpha_mix =  0.700 |ddv_scf|^2 =  2.380E-05

      iter #   2 total cpu time :   427.3 secs   av.it.:   7.3
      thresh= 4.878E-04 alpha_mix =  0.700 |ddv_scf|^2 =  4.065E-07

      iter #   3 total cpu time :   430.1 secs   av.it.:   7.5
      thresh= 6.375E-05 alpha_mix =  0.700 |ddv_scf|^2 =  8.680E-09

      iter #   4 total cpu time :   432.7 secs   av.it.:   7.0
      thresh= 9.317E-06 alpha_mix =  0.700 |ddv_scf|^2 =  2.696E-11

      iter #   5 total cpu time :   435.5 secs   av.it.:   7.3
      thresh= 5.192E-07 alpha_mix =  0.700 |ddv_scf|^2 =  4.498E-14

     End of self-consistent calculation

     Convergence has been achieved 


     Representation #  3 mode #   3

     Self-consistent Calculation

      iter #   1 total cpu time :   438.1 secs   av.it.:   5.6
      thresh= 1.000E-02 alpha_mix =  0.700 |ddv_scf|^2 =  2.164E-04

      iter #   2 total cpu time :   440.6 secs   av.it.:   6.6
      thresh= 1.471E-03 alpha_mix =  0.700 |ddv_scf|^2 =  9.728E-05

      iter #   3 total cpu time :   443.2 secs   av.it.:   6.5
      thresh= 9.863E-04 alpha_mix =  0.700 |ddv_scf|^2 =  1.400E-07

      iter #   4 total cpu time :   445.9 secs   av.it.:   7.5
      thresh= 3.742E-05 alpha_mix =  0.700 |ddv_scf|^2 =  4.434E-10

      iter #   5 total cpu time :   448.4 secs   av.it.:   6.2
      thresh= 2.106E-06 alpha_mix =  0.700 |ddv_scf|^2 =  9.480E-12

      iter #   6 total cpu time :   450.9 secs   av.it.:   6.6
      thresh= 3.079E-07 alpha_mix =  0.700 |ddv_scf|^2 =  2.730E-14

     End of self-consistent calculation

     Convergence has been achieved 

     Number of q in the star =    6
     List of q in the star:
          1   0.000000000   0.500000000  -0.500000000
          2  -0.500000000   0.500000000   0.000000000
          3   0.500000000   0.000000000   0.500000000
          4   0.500000000   0.000000000  -0.500000000
          5   0.000000000   0.500000000   0.500000000
          6   0.500000000   0.500000000   0.000000000

     Diagonalizing the dynamical matrix

     q = (    0.000000000   0.500000000  -0.500000000 ) 

 **************************************************************************
     freq (    1) =       1.322582 [THz] =      44.116587 [cm-1]
     freq (    2) =       3.272632 [THz] =     109.163267 [cm-1]
     freq (    3) =       6.304506 [THz] =     210.295700 [cm-1]
 **************************************************************************

     Mode symmetry, D_2h (mmm)  point group:

     freq (  1 -  1) =         44.1  [cm-1]   --> B_2u               
     freq (  2 -  2) =        109.2  [cm-1]   --> B_1u               
     freq (  3 -  3) =        210.3  [cm-1]   --> B_3u               

     Calculation of q =   -0.1250000  -0.1250000   0.2500000

   Info: using nr1, nr2, nr3 values from input

   Info: using nr1, nr2, nr3 values from input

     Parallelization info
     --------------------
     sticks:   dense  smooth     PW     G-vecs:    dense   smooth      PW
     Min         226     112     38                 4237     1494     301
     Max         227     113     39                 4238     1496     302
     Sum         905     451    155                16949     5979    1205



     bravais-lattice index     =            3
     lattice parameter (alat)  =       7.0456  a.u.
     unit-cell volume          =     174.8733 (a.u.)^3
     number of atoms/cell      =            1
     number of atomic types    =            1
     number of electrons       =         9.00
     number of Kohn-Sham states=            9
     kinetic-energy cutoff     =      40.0000  Ry
     charge density cutoff     =     320.0000  Ry
     Exchange-correlation      = SLA  PW   PBE  PBE ( 1  4  3  4 0 0)

     celldm(1)=   7.045597  celldm(2)=   0.000000  celldm(3)=   0.000000
     celldm(4)=   0.000000  celldm(5)=   0.000000  celldm(6)=   0.000000

     crystal axes: (cart. coord. in units of alat)
               a(1) = (   0.500000   0.500000   0.500000 )  
               a(2) = (  -0.500000   0.500000   0.500000 )  
               a(3) = (  -0.500000  -0.500000   0.500000 )  

     reciprocal axes: (cart. coord. in units 2 pi/alat)
               b(1) = (  1.000000  0.000000  1.000000 )  
               b(2) = ( -1.000000  1.000000  0.000000 )  
               b(3) = (  0.000000 -1.000000  1.000000 )  


     PseudoPot. # 1 for Na read from file:
     /home/s1333534/quantum_espresso/qe-6.1/pseudo/Na_pbe_v1.uspp.F.UPF
     MD5 check sum: 76a99c7e9422403d3e93cbc85ab7bccb
     Pseudo is Ultrasoft, Zval =  9.0
     Generated by new atomic code, or converted to UPF format
     Using radial grid of  819 points,  5 beta functions with: 
                l(1) =   0
                l(2) =   0
                l(3) =   1
                l(4) =   1
                l(5) =   2
     Q(r) pseudized with  8 coefficients,  rinner =    1.250   1.250   1.250
                                                       1.250   1.250

     atomic species   valence    mass     pseudopotential
        Na             9.00    22.99000     Na( 1.00)

     48 Sym. Ops., with inversion, found



   Cartesian axes

     site n.     atom                  positions (alat units)
         1           Na  tau(   1) = (   0.0000000   0.0000000   0.0000000  )

     number of k points=  2940  Marzari-Vanderbilt smearing, width (Ry)=  0.0200

     Number of k-points >= 100: set verbosity='high' to print them.

     Dense  grid:    16949 G-vectors     FFT dimensions: (  36,  36,  36)

     Smooth grid:     5979 G-vectors     FFT dimensions: (  25,  25,  25)

     Estimated max dynamical RAM per process >       1.60MB

     Estimated total allocated dynamical RAM >       6.39MB

     The potential is recalculated from file :
     ./_ph0/na.bcc.save/charge-density.dat

     Starting wfc are    5 atomic +    4 random wfc

     Band Structure Calculation
     Davidson diagonalization with overlap

     ethr =  1.11E-10,  avg # of iterations = 18.6

     total cpu time spent up to now is      165.2 secs

     End of band structure calculation

     Number of k-points >= 100: set verbosity='high' to print the bands.

     the Fermi energy is     3.4399 ev

     Writing output data file na.bcc.save

                                                                                

     bravais-lattice index     =            3
     lattice parameter (alat)  =       7.0456  a.u.
     unit-cell volume          =     174.8733 (a.u.)^3
     number of atoms/cell      =            1
     number of atomic types    =            1
     kinetic-energy cut-off    =      40.0000  Ry
     charge density cut-off    =     320.0000  Ry
     convergence threshold     =      1.0E-12
     beta                      =       0.7000
     number of iterations used =            4
     Exchange-correlation      = SLA  PW   PBE  PBE ( 1  4  3  4 0 0)


     celldm(1)=    7.04560  celldm(2)=    0.00000  celldm(3)=    0.00000
     celldm(4)=    0.00000  celldm(5)=    0.00000  celldm(6)=    0.00000

     crystal axes: (cart. coord. in units of alat)
               a(1) = (  0.5000  0.5000  0.5000 )  
               a(2) = ( -0.5000  0.5000  0.5000 )  
               a(3) = ( -0.5000 -0.5000  0.5000 )  

     reciprocal axes: (cart. coord. in units 2 pi/alat)
               b(1) = (  1.0000  0.0000  1.0000 )  
               b(2) = ( -1.0000  1.0000  0.0000 )  
               b(3) = (  0.0000 -1.0000  1.0000 )  


     Atoms inside the unit cell: 

     Cartesian axes

     site n.  atom      mass           positions (alat units)
        1     Na  22.9900   tau(    1) = (    0.00000    0.00000    0.00000  )

     Computing dynamical matrix for 
                    q = (  -0.1250000  -0.1250000   0.2500000 )

      2 Sym.Ops. (no q -> -q+G )


     G cutoff =  402.3703  (   4238 G-vectors)     FFT grid: ( 36, 36, 36)
     G cutoff =  201.1851  (   1495 G-vectors)  smooth grid: ( 25, 25, 25)

     number of k points=  2940  Marzari-Vanderbilt smearing, width (Ry)=  0.0200

     PseudoPot. # 1 for Na read from file:
     /home/s1333534/quantum_espresso/qe-6.1/pseudo/Na_pbe_v1.uspp.F.UPF
     MD5 check sum: 76a99c7e9422403d3e93cbc85ab7bccb
     Pseudo is Ultrasoft, Zval =  9.0
     Generated by new atomic code, or converted to UPF format
     Using radial grid of  819 points,  5 beta functions with: 
                l(1) =   0
                l(2) =   0
                l(3) =   1
                l(4) =   1
                l(5) =   2
     Q(r) pseudized with  8 coefficients,  rinner =    1.250   1.250   1.250
                                                       1.250   1.250

     Mode symmetry, C_s (m)     point group:


     Atomic displacements:
     There are   3 irreducible representations

     Representation     1      1 modes -A'  To be done

     Representation     2      1 modes -A'  To be done

     Representation     3      1 modes -A''  To be done



     Alpha used in Ewald sum =   2.8000
     PHONON       :  7m50.90s CPU     8m33.02s WALL



     Representation #  1 mode #   1

     Self-consistent Calculation

      iter #   1 total cpu time :   521.8 secs   av.it.:   5.6
      thresh= 1.000E-02 alpha_mix =  0.700 |ddv_scf|^2 =  1.286E-03

      iter #   2 total cpu time :   530.4 secs   av.it.:   6.6
      thresh= 3.586E-03 alpha_mix =  0.700 |ddv_scf|^2 =  4.882E-02

      iter #   3 total cpu time :   537.5 secs   av.it.:   5.0
      thresh= 1.000E-02 alpha_mix =  0.700 |ddv_scf|^2 =  5.979E-07

      iter #   4 total cpu time :   547.2 secs   av.it.:   7.7
      thresh= 7.732E-05 alpha_mix =  0.700 |ddv_scf|^2 =  8.444E-09

      iter #   5 total cpu time :   556.9 secs   av.it.:   7.7
      thresh= 9.189E-06 alpha_mix =  0.700 |ddv_scf|^2 =  9.616E-10

      iter #   6 total cpu time :   566.4 secs   av.it.:   7.6
      thresh= 3.101E-06 alpha_mix =  0.700 |ddv_scf|^2 =  1.431E-10

      iter #   7 total cpu time :   575.4 secs   av.it.:   7.1
      thresh= 1.196E-06 alpha_mix =  0.700 |ddv_scf|^2 =  8.521E-10

      iter #   8 total cpu time :   583.2 secs   av.it.:   5.8
      thresh= 2.919E-06 alpha_mix =  0.700 |ddv_scf|^2 =  3.235E-11

      iter #   9 total cpu time :   592.0 secs   av.it.:   6.9
      thresh= 5.687E-07 alpha_mix =  0.700 |ddv_scf|^2 =  1.029E-11

      iter #  10 total cpu time :   600.8 secs   av.it.:   6.9
      thresh= 3.208E-07 alpha_mix =  0.700 |ddv_scf|^2 =  4.139E-14

     End of self-consistent calculation

     Convergence has been achieved 


     Representation #  2 mode #   2

     Self-consistent Calculation

      iter #   1 total cpu time :   610.0 secs   av.it.:   5.7
      thresh= 1.000E-02 alpha_mix =  0.700 |ddv_scf|^2 =  1.140E-02

      iter #   2 total cpu time :   618.6 secs   av.it.:   6.1
      thresh= 1.000E-02 alpha_mix =  0.700 |ddv_scf|^2 =  4.394E-01

      iter #   3 total cpu time :   626.7 secs   av.it.:   6.1
      thresh= 1.000E-02 alpha_mix =  0.700 |ddv_scf|^2 =  6.039E-06

      iter #   4 total cpu time :   635.9 secs   av.it.:   7.3
      thresh= 2.457E-04 alpha_mix =  0.700 |ddv_scf|^2 =  6.180E-08

      iter #   5 total cpu time :   645.4 secs   av.it.:   7.6
      thresh= 2.486E-05 alpha_mix =  0.700 |ddv_scf|^2 =  3.936E-09

      iter #   6 total cpu time :   654.9 secs   av.it.:   7.6
      thresh= 6.274E-06 alpha_mix =  0.700 |ddv_scf|^2 =  1.461E-10

      iter #   7 total cpu time :   664.3 secs   av.it.:   7.6
      thresh= 1.209E-06 alpha_mix =  0.700 |ddv_scf|^2 =  2.194E-09

      iter #   8 total cpu time :   671.3 secs   av.it.:   5.1
      thresh= 4.684E-06 alpha_mix =  0.700 |ddv_scf|^2 =  5.209E-12

      iter #   9 total cpu time :   680.1 secs   av.it.:   6.8
      thresh= 2.282E-07 alpha_mix =  0.700 |ddv_scf|^2 =  8.921E-14

     End of self-consistent calculation

     Convergence has been achieved 


     Representation #  3 mode #   3

     Self-consistent Calculation

      iter #   1 total cpu time :   688.9 secs   av.it.:   5.5
      thresh= 1.000E-02 alpha_mix =  0.700 |ddv_scf|^2 =  2.468E-05

      iter #   2 total cpu time :   698.2 secs   av.it.:   7.4
      thresh= 4.968E-04 alpha_mix =  0.700 |ddv_scf|^2 =  4.063E-07

      iter #   3 total cpu time :   707.9 secs   av.it.:   7.7
      thresh= 6.374E-05 alpha_mix =  0.700 |ddv_scf|^2 =  1.047E-08

      iter #   4 total cpu time :   717.5 secs   av.it.:   7.4
      thresh= 1.023E-05 alpha_mix =  0.700 |ddv_scf|^2 =  5.239E-11

      iter #   5 total cpu time :   726.8 secs   av.it.:   7.5
      thresh= 7.238E-07 alpha_mix =  0.700 |ddv_scf|^2 =  6.661E-14

     End of self-consistent calculation

     Convergence has been achieved 

     Number of q in the star =   24
     List of q in the star:
          1  -0.125000000  -0.125000000   0.250000000
          2  -0.125000000  -0.250000000   0.125000000
          3   0.125000000  -0.250000000   0.125000000
          4  -0.125000000   0.125000000  -0.250000000
          5  -0.125000000   0.250000000  -0.125000000
          6   0.125000000   0.125000000  -0.250000000
          7   0.125000000   0.250000000  -0.125000000
          8   0.125000000  -0.250000000  -0.125000000
          9  -0.250000000   0.125000000  -0.125000000
         10   0.250000000   0.125000000   0.125000000
         11   0.125000000   0.125000000   0.250000000
         12  -0.250000000  -0.125000000   0.125000000
         13   0.250000000  -0.125000000  -0.125000000
         14   0.125000000  -0.125000000  -0.250000000
         15   0.125000000  -0.125000000   0.250000000
         16   0.125000000   0.250000000   0.125000000
         17  -0.125000000  -0.125000000  -0.250000000
         18  -0.125000000   0.125000000   0.250000000
         19  -0.125000000   0.250000000   0.125000000
         20  -0.125000000  -0.250000000  -0.125000000
         21   0.250000000   0.125000000  -0.125000000
         22  -0.250000000   0.125000000   0.125000000
         23   0.250000000  -0.125000000   0.125000000
         24  -0.250000000  -0.125000000  -0.125000000

     Diagonalizing the dynamical matrix

     q = (   -0.125000000  -0.125000000   0.250000000 ) 

 **************************************************************************
     freq (    1) =       1.813238 [THz] =      60.483100 [cm-1]
     freq (    2) =       2.153219 [THz] =      71.823671 [cm-1]
     freq (    3) =       4.018979 [THz] =     134.058708 [cm-1]
 **************************************************************************

     Mode symmetry, C_s (m)     point group:

     freq (  1 -  1) =         60.5  [cm-1]   --> A'                 
     freq (  2 -  2) =         71.8  [cm-1]   --> A''                
     freq (  3 -  3) =        134.1  [cm-1]   --> A'                 

     Calculation of q =   -0.1250000  -0.2500000   0.3750000

   Info: using nr1, nr2, nr3 values from input

   Info: using nr1, nr2, nr3 values from input

     Parallelization info
     --------------------
     sticks:   dense  smooth     PW     G-vecs:    dense   smooth      PW
     Min         226     112     41                 4237     1494     322
     Max         227     113     42                 4238     1496     323
     Sum         905     451    165                16949     5979    1289



     bravais-lattice index     =            3
     lattice parameter (alat)  =       7.0456  a.u.
     unit-cell volume          =     174.8733 (a.u.)^3
     number of atoms/cell      =            1
     number of atomic types    =            1
     number of electrons       =         9.00
     number of Kohn-Sham states=            9
     kinetic-energy cutoff     =      40.0000  Ry
     charge density cutoff     =     320.0000  Ry
     Exchange-correlation      = SLA  PW   PBE  PBE ( 1  4  3  4 0 0)

     celldm(1)=   7.045597  celldm(2)=   0.000000  celldm(3)=   0.000000
     celldm(4)=   0.000000  celldm(5)=   0.000000  celldm(6)=   0.000000

     crystal axes: (cart. coord. in units of alat)
               a(1) = (   0.500000   0.500000   0.500000 )  
               a(2) = (  -0.500000   0.500000   0.500000 )  
               a(3) = (  -0.500000  -0.500000   0.500000 )  

     reciprocal axes: (cart. coord. in units 2 pi/alat)
               b(1) = (  1.000000  0.000000  1.000000 )  
               b(2) = ( -1.000000  1.000000  0.000000 )  
               b(3) = (  0.000000 -1.000000  1.000000 )  


     PseudoPot. # 1 for Na read from file:
     /home/s1333534/quantum_espresso/qe-6.1/pseudo/Na_pbe_v1.uspp.F.UPF
     MD5 check sum: 76a99c7e9422403d3e93cbc85ab7bccb
     Pseudo is Ultrasoft, Zval =  9.0
     Generated by new atomic code, or converted to UPF format
     Using radial grid of  819 points,  5 beta functions with: 
                l(1) =   0
                l(2) =   0
                l(3) =   1
                l(4) =   1
                l(5) =   2
     Q(r) pseudized with  8 coefficients,  rinner =    1.250   1.250   1.250
                                                       1.250   1.250

     atomic species   valence    mass     pseudopotential
        Na             9.00    22.99000     Na( 1.00)

     48 Sym. Ops., with inversion, found



   Cartesian axes

     site n.     atom                  positions (alat units)
         1           Na  tau(   1) = (   0.0000000   0.0000000   0.0000000  )

     number of k points=  5488  Marzari-Vanderbilt smearing, width (Ry)=  0.0200

     Number of k-points >= 100: set verbosity='high' to print them.

     Dense  grid:    16949 G-vectors     FFT dimensions: (  36,  36,  36)

     Smooth grid:     5979 G-vectors     FFT dimensions: (  25,  25,  25)

     Estimated max dynamical RAM per process >       1.60MB

     Estimated total allocated dynamical RAM >       6.39MB

     The potential is recalculated from file :
     ./_ph0/na.bcc.save/charge-density.dat

     Starting wfc are    5 atomic +    4 random wfc

     Band Structure Calculation
     Davidson diagonalization with overlap

     ethr =  1.11E-10,  avg # of iterations = 18.5

     total cpu time spent up to now is      271.7 secs

     End of band structure calculation

     Number of k-points >= 100: set verbosity='high' to print the bands.

     the Fermi energy is     3.4399 ev

     Writing output data file na.bcc.save

                                                                                

     bravais-lattice index     =            3
     lattice parameter (alat)  =       7.0456  a.u.
     unit-cell volume          =     174.8733 (a.u.)^3
     number of atoms/cell      =            1
     number of atomic types    =            1
     kinetic-energy cut-off    =      40.0000  Ry
     charge density cut-off    =     320.0000  Ry
     convergence threshold     =      1.0E-12
     beta                      =       0.7000
     number of iterations used =            4
     Exchange-correlation      = SLA  PW   PBE  PBE ( 1  4  3  4 0 0)


     celldm(1)=    7.04560  celldm(2)=    0.00000  celldm(3)=    0.00000
     celldm(4)=    0.00000  celldm(5)=    0.00000  celldm(6)=    0.00000

     crystal axes: (cart. coord. in units of alat)
               a(1) = (  0.5000  0.5000  0.5000 )  
               a(2) = ( -0.5000  0.5000  0.5000 )  
               a(3) = ( -0.5000 -0.5000  0.5000 )  

     reciprocal axes: (cart. coord. in units 2 pi/alat)
               b(1) = (  1.0000  0.0000  1.0000 )  
               b(2) = ( -1.0000  1.0000  0.0000 )  
               b(3) = (  0.0000 -1.0000  1.0000 )  


     Atoms inside the unit cell: 

     Cartesian axes

     site n.  atom      mass           positions (alat units)
        1     Na  22.9900   tau(    1) = (    0.00000    0.00000    0.00000  )

     Computing dynamical matrix for 
                    q = (  -0.1250000  -0.2500000   0.3750000 )

     No symmetry!

     G cutoff =  402.3703  (   4237 G-vectors)     FFT grid: ( 36, 36, 36)
     G cutoff =  201.1851  (   1495 G-vectors)  smooth grid: ( 25, 25, 25)

     number of k points=  5488  Marzari-Vanderbilt smearing, width (Ry)=  0.0200

     PseudoPot. # 1 for Na read from file:
     /home/s1333534/quantum_espresso/qe-6.1/pseudo/Na_pbe_v1.uspp.F.UPF
     MD5 check sum: 76a99c7e9422403d3e93cbc85ab7bccb
     Pseudo is Ultrasoft, Zval =  9.0
     Generated by new atomic code, or converted to UPF format
     Using radial grid of  819 points,  5 beta functions with: 
                l(1) =   0
                l(2) =   0
                l(3) =   1
                l(4) =   1
                l(5) =   2
     Q(r) pseudized with  8 coefficients,  rinner =    1.250   1.250   1.250
                                                       1.250   1.250

     Mode symmetry, C_1 (1)     point group:


     Atomic displacements:
     There are   3 irreducible representations

     Representation     1      1 modes -A  To be done

     Representation     2      1 modes -A  To be done

     Representation     3      1 modes -A  To be done



     Alpha used in Ewald sum =   2.8000
     PHONON       : 12m52.87s CPU    14m 3.64s WALL



     Representation #  1 mode #   1

     Self-consistent Calculation

      iter #   1 total cpu time :   860.4 secs   av.it.:   5.7
      thresh= 1.000E-02 alpha_mix =  0.700 |ddv_scf|^2 =  3.852E-05

      iter #   2 total cpu time :   879.0 secs   av.it.:   7.7
      thresh= 6.206E-04 alpha_mix =  0.700 |ddv_scf|^2 =  7.090E-05

      iter #   3 total cpu time :   894.4 secs   av.it.:   6.1
      thresh= 8.421E-04 alpha_mix =  0.700 |ddv_scf|^2 =  5.975E-06

      iter #   4 total cpu time :   911.5 secs   av.it.:   7.2
      thresh= 2.444E-04 alpha_mix =  0.700 |ddv_scf|^2 =  6.691E-09

      iter #   5 total cpu time :   930.6 secs   av.it.:   7.8
      thresh= 8.180E-06 alpha_mix =  0.700 |ddv_scf|^2 =  2.039E-10

      iter #   6 total cpu time :   949.2 secs   av.it.:   7.9
      thresh= 1.428E-06 alpha_mix =  0.700 |ddv_scf|^2 =  9.560E-12

      iter #   7 total cpu time :   968.1 secs   av.it.:   8.1
      thresh= 3.092E-07 alpha_mix =  0.700 |ddv_scf|^2 =  1.177E-12

      iter #   8 total cpu time :   986.4 secs   av.it.:   7.7
      thresh= 1.085E-07 alpha_mix =  0.700 |ddv_scf|^2 =  2.924E-12

      iter #   9 total cpu time :  1002.6 secs   av.it.:   6.7
      thresh= 1.710E-07 alpha_mix =  0.700 |ddv_scf|^2 =  1.023E-14

     End of self-consistent calculation

     Convergence has been achieved 


     Representation #  2 mode #   2

     Self-consistent Calculation

      iter #   1 total cpu time :  1019.9 secs   av.it.:   5.8
      thresh= 1.000E-02 alpha_mix =  0.700 |ddv_scf|^2 =  5.563E-04

      iter #   2 total cpu time :  1036.8 secs   av.it.:   7.0
      thresh= 2.359E-03 alpha_mix =  0.700 |ddv_scf|^2 =  2.710E-03

      iter #   3 total cpu time :  1051.9 secs   av.it.:   5.7
      thresh= 5.206E-03 alpha_mix =  0.700 |ddv_scf|^2 =  4.669E-07

      iter #   4 total cpu time :  1070.4 secs   av.it.:   7.8
      thresh= 6.833E-05 alpha_mix =  0.700 |ddv_scf|^2 =  9.603E-09

      iter #   5 total cpu time :  1089.6 secs   av.it.:   8.1
      thresh= 9.800E-06 alpha_mix =  0.700 |ddv_scf|^2 =  1.133E-09

      iter #   6 total cpu time :  1108.2 secs   av.it.:   7.9
      thresh= 3.366E-06 alpha_mix =  0.700 |ddv_scf|^2 =  2.355E-11

      iter #   7 total cpu time :  1126.4 secs   av.it.:   7.8
      thresh= 4.853E-07 alpha_mix =  0.700 |ddv_scf|^2 =  1.968E-12

      iter #   8 total cpu time :  1145.0 secs   av.it.:   7.7
      thresh= 1.403E-07 alpha_mix =  0.700 |ddv_scf|^2 =  1.209E-12

      iter #   9 total cpu time :  1160.9 secs   av.it.:   6.4
      thresh= 1.100E-07 alpha_mix =  0.700 |ddv_scf|^2 =  5.602E-14

     End of self-consistent calculation

     Convergence has been achieved 


     Representation #  3 mode #   3

     Self-consistent Calculation

      iter #   1 total cpu time :  1178.2 secs   av.it.:   5.8
      thresh= 1.000E-02 alpha_mix =  0.700 |ddv_scf|^2 =  5.391E-04

      iter #   2 total cpu time :  1195.4 secs   av.it.:   7.0
      thresh= 2.322E-03 alpha_mix =  0.700 |ddv_scf|^2 =  2.595E-03

      iter #   3 total cpu time :  1210.1 secs   av.it.:   5.7
      thresh= 5.094E-03 alpha_mix =  0.700 |ddv_scf|^2 =  3.408E-07

      iter #   4 total cpu time :  1228.8 secs   av.it.:   7.9
      thresh= 5.838E-05 alpha_mix =  0.700 |ddv_scf|^2 =  1.197E-08

      iter #   5 total cpu time :  1248.1 secs   av.it.:   8.2
      thresh= 1.094E-05 alpha_mix =  0.700 |ddv_scf|^2 =  7.555E-10

      iter #   6 total cpu time :  1266.8 secs   av.it.:   8.0
      thresh= 2.749E-06 alpha_mix =  0.700 |ddv_scf|^2 =  2.923E-11

      iter #   7 total cpu time :  1285.0 secs   av.it.:   7.7
      thresh= 5.407E-07 alpha_mix =  0.700 |ddv_scf|^2 =  1.412E-12

      iter #   8 total cpu time :  1302.5 secs   av.it.:   7.4
      thresh= 1.188E-07 alpha_mix =  0.700 |ddv_scf|^2 =  1.223E-12

      iter #   9 total cpu time :  1318.9 secs   av.it.:   6.6
      thresh= 1.106E-07 alpha_mix =  0.700 |ddv_scf|^2 =  2.470E-13

     End of self-consistent calculation

     Convergence has been achieved 

     Number of q in the star =   48
     List of q in the star:
          1  -0.125000000  -0.250000000   0.375000000
          2  -0.250000000  -0.125000000   0.375000000
          3  -0.125000000  -0.375000000   0.250000000
          4   0.125000000  -0.375000000   0.250000000
          5  -0.125000000   0.250000000  -0.375000000
          6  -0.125000000   0.375000000  -0.250000000
          7   0.125000000   0.250000000  -0.375000000
          8   0.125000000   0.375000000  -0.250000000
          9   0.250000000  -0.375000000  -0.125000000
         10  -0.375000000   0.125000000  -0.250000000
         11   0.375000000   0.125000000   0.250000000
         12   0.250000000   0.125000000   0.375000000
         13  -0.375000000  -0.125000000   0.250000000
         14   0.375000000  -0.125000000  -0.250000000
         15   0.125000000  -0.250000000  -0.375000000
         16   0.250000000  -0.125000000  -0.375000000
         17  -0.250000000   0.125000000  -0.375000000
         18  -0.375000000  -0.250000000   0.125000000
         19  -0.375000000   0.250000000  -0.125000000
         20   0.375000000   0.250000000   0.125000000
         21   0.250000000  -0.125000000   0.375000000
         22  -0.250000000   0.375000000  -0.125000000
         23   0.125000000  -0.375000000  -0.250000000
         24   0.125000000   0.375000000   0.250000000
         25   0.250000000   0.125000000  -0.375000000
         26  -0.125000000  -0.250000000  -0.375000000
         27  -0.250000000   0.125000000   0.375000000
         28  -0.125000000   0.375000000   0.250000000
         29  -0.125000000   0.250000000   0.375000000
         30   0.125000000  -0.250000000   0.375000000
         31  -0.125000000  -0.375000000  -0.250000000
         32   0.125000000   0.250000000   0.375000000
         33   0.375000000  -0.250000000  -0.125000000
         34   0.250000000   0.375000000   0.125000000
         35  -0.250000000  -0.375000000   0.125000000
         36   0.375000000   0.250000000  -0.125000000
         37  -0.375000000   0.250000000   0.125000000
         38   0.375000000  -0.250000000   0.125000000
         39  -0.375000000  -0.250000000  -0.125000000
         40  -0.250000000  -0.125000000  -0.375000000
         41   0.250000000  -0.375000000   0.125000000
         42  -0.250000000  -0.375000000  -0.125000000
         43   0.250000000   0.375000000  -0.125000000
         44  -0.250000000   0.375000000   0.125000000
         45  -0.375000000   0.125000000   0.250000000
         46  -0.375000000  -0.125000000  -0.250000000
         47   0.375000000  -0.125000000   0.250000000
         48   0.375000000   0.125000000  -0.250000000

     Diagonalizing the dynamical matrix

     q = (   -0.125000000  -0.250000000   0.375000000 ) 

 **************************************************************************
     freq (    1) =       1.911980 [THz] =      63.776784 [cm-1]
     freq (    2) =       3.141979 [THz] =     104.805138 [cm-1]
     freq (    3) =       5.220569 [THz] =     174.139430 [cm-1]
 **************************************************************************

     Mode symmetry, C_1 (1)     point group:

     freq (  1 -  1) =         63.8  [cm-1]   --> A                  
     freq (  2 -  2) =        104.8  [cm-1]   --> A                  
     freq (  3 -  3) =        174.1  [cm-1]   --> A                  

     Calculation of q =   -0.1250000   0.6250000  -0.5000000

   Info: using nr1, nr2, nr3 values from input

   Info: using nr1, nr2, nr3 values from input

     Parallelization info
     --------------------
     sticks:   dense  smooth     PW     G-vecs:    dense   smooth      PW
     Min         226     112     43                 4237     1494     358
     Max         227     113     44                 4238     1496     359
     Sum         905     451    173                16949     5979    1433



     bravais-lattice index     =            3
     lattice parameter (alat)  =       7.0456  a.u.
     unit-cell volume          =     174.8733 (a.u.)^3
     number of atoms/cell      =            1
     number of atomic types    =            1
     number of electrons       =         9.00
     number of Kohn-Sham states=            9
     kinetic-energy cutoff     =      40.0000  Ry
     charge density cutoff     =     320.0000  Ry
     Exchange-correlation      = SLA  PW   PBE  PBE ( 1  4  3  4 0 0)

     celldm(1)=   7.045597  celldm(2)=   0.000000  celldm(3)=   0.000000
     celldm(4)=   0.000000  celldm(5)=   0.000000  celldm(6)=   0.000000

     crystal axes: (cart. coord. in units of alat)
               a(1) = (   0.500000   0.500000   0.500000 )  
               a(2) = (  -0.500000   0.500000   0.500000 )  
               a(3) = (  -0.500000  -0.500000   0.500000 )  

     reciprocal axes: (cart. coord. in units 2 pi/alat)
               b(1) = (  1.000000  0.000000  1.000000 )  
               b(2) = ( -1.000000  1.000000  0.000000 )  
               b(3) = (  0.000000 -1.000000  1.000000 )  


     PseudoPot. # 1 for Na read from file:
     /home/s1333534/quantum_espresso/qe-6.1/pseudo/Na_pbe_v1.uspp.F.UPF
     MD5 check sum: 76a99c7e9422403d3e93cbc85ab7bccb
     Pseudo is Ultrasoft, Zval =  9.0
     Generated by new atomic code, or converted to UPF format
     Using radial grid of  819 points,  5 beta functions with: 
                l(1) =   0
                l(2) =   0
                l(3) =   1
                l(4) =   1
                l(5) =   2
     Q(r) pseudized with  8 coefficients,  rinner =    1.250   1.250   1.250
                                                       1.250   1.250

     atomic species   valence    mass     pseudopotential
        Na             9.00    22.99000     Na( 1.00)

     48 Sym. Ops., with inversion, found



   Cartesian axes

     site n.     atom                  positions (alat units)
         1           Na  tau(   1) = (   0.0000000   0.0000000   0.0000000  )

     number of k points=  5488  Marzari-Vanderbilt smearing, width (Ry)=  0.0200

     Number of k-points >= 100: set verbosity='high' to print them.

     Dense  grid:    16949 G-vectors     FFT dimensions: (  36,  36,  36)

     Smooth grid:     5979 G-vectors     FFT dimensions: (  25,  25,  25)

     Estimated max dynamical RAM per process >       1.60MB

     Estimated total allocated dynamical RAM >       6.39MB

     The potential is recalculated from file :
     ./_ph0/na.bcc.save/charge-density.dat

     Starting wfc are    5 atomic +    4 random wfc

     Band Structure Calculation
     Davidson diagonalization with overlap

     ethr =  1.11E-10,  avg # of iterations = 18.5

     total cpu time spent up to now is      381.5 secs

     End of band structure calculation

     Number of k-points >= 100: set verbosity='high' to print the bands.

     the Fermi energy is     3.4399 ev

     Writing output data file na.bcc.save

                                                                                

     bravais-lattice index     =            3
     lattice parameter (alat)  =       7.0456  a.u.
     unit-cell volume          =     174.8733 (a.u.)^3
     number of atoms/cell      =            1
     number of atomic types    =            1
     kinetic-energy cut-off    =      40.0000  Ry
     charge density cut-off    =     320.0000  Ry
     convergence threshold     =      1.0E-12
     beta                      =       0.7000
     number of iterations used =            4
[...]
     celldm(4)=    0.00000  celldm(5)=    0.00000  celldm(6)=    0.00000

     crystal axes: (cart. coord. in units of alat)
               a(1) = (  0.5000  0.5000  0.5000 )  
               a(2) = ( -0.5000  0.5000  0.5000 )  
               a(3) = ( -0.5000 -0.5000  0.5000 )  

     reciprocal axes: (cart. coord. in units 2 pi/alat)
               b(1) = (  1.0000  0.0000  1.0000 )  
               b(2) = ( -1.0000  1.0000  0.0000 )  
               b(3) = (  0.0000 -1.0000  1.0000 )  


     Atoms inside the unit cell: 

     Cartesian axes

     site n.  atom      mass           positions (alat units)
        1     Na  22.9900   tau(    1) = (    0.00000    0.00000    0.00000  )

     Computing dynamical matrix for 
                    q = (   0.0000000   0.8750000  -0.1250000 )

      4 Sym.Ops. (no q -> -q+G )


     G cutoff =  402.3703  (   4238 G-vectors)     FFT grid: ( 36, 36, 36)
     G cutoff =  201.1851  (   1495 G-vectors)  smooth grid: ( 25, 25, 25)

     number of k points=  1568  Marzari-Vanderbilt smearing, width (Ry)=  0.0200

     PseudoPot. # 1 for Na read from file:
     /home/s1333534/quantum_espresso/qe-6.1/pseudo/Na_pbe_v1.uspp.F.UPF
     MD5 check sum: 76a99c7e9422403d3e93cbc85ab7bccb
     Pseudo is Ultrasoft, Zval =  9.0
     Generated by new atomic code, or converted to UPF format
     Using radial grid of  819 points,  5 beta functions with: 
                l(1) =   0
                l(2) =   0
                l(3) =   1
                l(4) =   1
                l(5) =   2
     Q(r) pseudized with  8 coefficients,  rinner =    1.250   1.250   1.250
                                                       1.250   1.250

     Mode symmetry, C_2v (mm2)  point group:


     Atomic displacements:
     There are   3 irreducible representations

     Representation     1      1 modes -A_1  D_1  S_1  To be done

     Representation     2      1 modes -B_1  D_3  S_3  To be done

     Representation     3      1 modes -B_2  D_4  S_4  To be done



     Alpha used in Ewald sum =   2.8000
     PHONON       :     1h22m CPU        1h31m WALL



     Representation #  1 mode #   1

     Self-consistent Calculation

      iter #   1 total cpu time :  5492.4 secs   av.it.:   5.7
      thresh= 1.000E-02 alpha_mix =  0.700 |ddv_scf|^2 =  4.547E-05

      iter #   2 total cpu time :  5497.6 secs   av.it.:   7.5
      thresh= 6.743E-04 alpha_mix =  0.700 |ddv_scf|^2 =  1.208E-06

      iter #   3 total cpu time :  5502.8 secs   av.it.:   7.5
      thresh= 1.099E-04 alpha_mix =  0.700 |ddv_scf|^2 =  4.097E-08

      iter #   4 total cpu time :  5508.1 secs   av.it.:   7.9
      thresh= 2.024E-05 alpha_mix =  0.700 |ddv_scf|^2 =  2.234E-09

      iter #   5 total cpu time :  5513.5 secs   av.it.:   7.9
      thresh= 4.727E-06 alpha_mix =  0.700 |ddv_scf|^2 =  1.760E-10

      iter #   6 total cpu time :  5518.7 secs   av.it.:   7.6
      thresh= 1.327E-06 alpha_mix =  0.700 |ddv_scf|^2 =  1.006E-12

      iter #   7 total cpu time :  5524.0 secs   av.it.:   7.7
      thresh= 1.003E-07 alpha_mix =  0.700 |ddv_scf|^2 =  5.072E-14

     End of self-consistent calculation

     Convergence has been achieved 


     Representation #  2 mode #   2

     Self-consistent Calculation

      iter #   1 total cpu time :  5528.9 secs   av.it.:   5.5
      thresh= 1.000E-02 alpha_mix =  0.700 |ddv_scf|^2 =  4.113E-05

      iter #   2 total cpu time :  5534.0 secs   av.it.:   7.3
      thresh= 6.413E-04 alpha_mix =  0.700 |ddv_scf|^2 =  4.246E-07

      iter #   3 total cpu time :  5539.0 secs   av.it.:   7.3
      thresh= 6.516E-05 alpha_mix =  0.700 |ddv_scf|^2 =  3.887E-08

      iter #   4 total cpu time :  5544.1 secs   av.it.:   7.4
      thresh= 1.972E-05 alpha_mix =  0.700 |ddv_scf|^2 =  1.743E-10

      iter #   5 total cpu time :  5549.1 secs   av.it.:   7.3
      thresh= 1.320E-06 alpha_mix =  0.700 |ddv_scf|^2 =  6.556E-14

     End of self-consistent calculation

     Convergence has been achieved 


     Representation #  3 mode #   3

     Self-consistent Calculation

      iter #   1 total cpu time :  5554.1 secs   av.it.:   5.6
      thresh= 1.000E-02 alpha_mix =  0.700 |ddv_scf|^2 =  5.716E-05

      iter #   2 total cpu time :  5559.2 secs   av.it.:   7.3
      thresh= 7.560E-04 alpha_mix =  0.700 |ddv_scf|^2 =  2.150E-06

      iter #   3 total cpu time :  5564.2 secs   av.it.:   7.2
      thresh= 1.466E-04 alpha_mix =  0.700 |ddv_scf|^2 =  4.985E-08

      iter #   4 total cpu time :  5569.3 secs   av.it.:   7.5
      thresh= 2.233E-05 alpha_mix =  0.700 |ddv_scf|^2 =  1.647E-09

      iter #   5 total cpu time :  5574.3 secs   av.it.:   7.2
      thresh= 4.058E-06 alpha_mix =  0.700 |ddv_scf|^2 =  4.934E-12

      iter #   6 total cpu time :  5579.5 secs   av.it.:   7.6
      thresh= 2.221E-07 alpha_mix =  0.700 |ddv_scf|^2 =  5.871E-15

     End of self-consistent calculation

     Convergence has been achieved 

     Number of q in the star =   12
     List of q in the star:
          1   0.000000000   0.875000000  -0.125000000
          2   0.000000000  -0.875000000  -0.125000000
          3   0.875000000   0.000000000  -0.125000000
          4  -0.875000000   0.000000000  -0.125000000
          5   0.125000000   0.000000000  -0.875000000
          6   0.125000000   0.875000000   0.000000000
          7   0.000000000   0.875000000   0.125000000
          8   0.875000000   0.000000000   0.125000000
          9   0.125000000  -0.875000000   0.000000000
         10  -0.125000000  -0.875000000   0.000000000
         11   0.875000000  -0.125000000   0.000000000
         12   0.000000000  -0.875000000   0.125000000

     Diagonalizing the dynamical matrix

     q = (    0.000000000   0.875000000  -0.125000000 ) 

 **************************************************************************
     freq (    1) =       4.991074 [THz] =     166.484321 [cm-1]
     freq (    2) =       5.079185 [THz] =     169.423376 [cm-1]
     freq (    3) =       5.518729 [THz] =     184.084997 [cm-1]
 **************************************************************************

     Mode symmetry, C_2v (mm2)  point group:

     freq (  1 -  1) =        166.5  [cm-1]   --> A_1  D_1  S_1      
     freq (  2 -  2) =        169.4  [cm-1]   --> B_1  D_3  S_3      
     freq (  3 -  3) =        184.1  [cm-1]   --> B_2  D_4  S_4      

     Calculation of q =    0.0000000   0.0000000  -1.0000000

   Info: using nr1, nr2, nr3 values from input

   Info: using nr1, nr2, nr3 values from input

     Parallelization info
     --------------------
     sticks:   dense  smooth     PW     G-vecs:    dense   smooth      PW
     Min         226     112     42                 4237     1494     352
     Max         227     113     43                 4238     1496     353
     Sum         905     451    169                16949     5979    1409



     bravais-lattice index     =            3
     lattice parameter (alat)  =       7.0456  a.u.
     unit-cell volume          =     174.8733 (a.u.)^3
     number of atoms/cell      =            1
     number of atomic types    =            1
     number of electrons       =         9.00
     number of Kohn-Sham states=            9
     kinetic-energy cutoff     =      40.0000  Ry
     charge density cutoff     =     320.0000  Ry
     Exchange-correlation      = SLA  PW   PBE  PBE ( 1  4  3  4 0 0)

     celldm(1)=   7.045597  celldm(2)=   0.000000  celldm(3)=   0.000000
     celldm(4)=   0.000000  celldm(5)=   0.000000  celldm(6)=   0.000000

     crystal axes: (cart. coord. in units of alat)
               a(1) = (   0.500000   0.500000   0.500000 )  
               a(2) = (  -0.500000   0.500000   0.500000 )  
               a(3) = (  -0.500000  -0.500000   0.500000 )  

     reciprocal axes: (cart. coord. in units 2 pi/alat)
               b(1) = (  1.000000  0.000000  1.000000 )  
               b(2) = ( -1.000000  1.000000  0.000000 )  
               b(3) = (  0.000000 -1.000000  1.000000 )  


     PseudoPot. # 1 for Na read from file:
     /home/s1333534/quantum_espresso/qe-6.1/pseudo/Na_pbe_v1.uspp.F.UPF
     MD5 check sum: 76a99c7e9422403d3e93cbc85ab7bccb
     Pseudo is Ultrasoft, Zval =  9.0
     Generated by new atomic code, or converted to UPF format
     Using radial grid of  819 points,  5 beta functions with: 
                l(1) =   0
                l(2) =   0
                l(3) =   1
                l(4) =   1
                l(5) =   2
     Q(r) pseudized with  8 coefficients,  rinner =    1.250   1.250   1.250
                                                       1.250   1.250

     atomic species   valence    mass     pseudopotential
        Na             9.00    22.99000     Na( 1.00)

     48 Sym. Ops., with inversion, found



   Cartesian axes

     site n.     atom                  positions (alat units)
         1           Na  tau(   1) = (   0.0000000   0.0000000   0.0000000  )

     number of k points=   200  Marzari-Vanderbilt smearing, width (Ry)=  0.0200

     Number of k-points >= 100: set verbosity='high' to print them.

     Dense  grid:    16949 G-vectors     FFT dimensions: (  36,  36,  36)

     Smooth grid:     5979 G-vectors     FFT dimensions: (  25,  25,  25)

     Estimated max dynamical RAM per process >       1.60MB

     Estimated total allocated dynamical RAM >       6.39MB

     The potential is recalculated from file :
     ./_ph0/na.bcc.save/charge-density.dat

     Starting wfc are    5 atomic +    4 random wfc

     Band Structure Calculation
     Davidson diagonalization with overlap

     ethr =  1.11E-10,  avg # of iterations = 18.8

     total cpu time spent up to now is     1254.0 secs

     End of band structure calculation

     Number of k-points >= 100: set verbosity='high' to print the bands.

     the Fermi energy is     3.4399 ev

     Writing output data file na.bcc.save

                                                                                

     bravais-lattice index     =            3
     lattice parameter (alat)  =       7.0456  a.u.
     unit-cell volume          =     174.8733 (a.u.)^3
     number of atoms/cell      =            1
     number of atomic types    =            1
     kinetic-energy cut-off    =      40.0000  Ry
     charge density cut-off    =     320.0000  Ry
     convergence threshold     =      1.0E-12
     beta                      =       0.7000
     number of iterations used =            4
     Exchange-correlation      = SLA  PW   PBE  PBE ( 1  4  3  4 0 0)


     celldm(1)=    7.04560  celldm(2)=    0.00000  celldm(3)=    0.00000
     celldm(4)=    0.00000  celldm(5)=    0.00000  celldm(6)=    0.00000

     crystal axes: (cart. coord. in units of alat)
               a(1) = (  0.5000  0.5000  0.5000 )  
               a(2) = ( -0.5000  0.5000  0.5000 )  
               a(3) = ( -0.5000 -0.5000  0.5000 )  

     reciprocal axes: (cart. coord. in units 2 pi/alat)
               b(1) = (  1.0000  0.0000  1.0000 )  
               b(2) = ( -1.0000  1.0000  0.0000 )  
               b(3) = (  0.0000 -1.0000  1.0000 )  


     Atoms inside the unit cell: 

     Cartesian axes

     site n.  atom      mass           positions (alat units)
        1     Na  22.9900   tau(    1) = (    0.00000    0.00000    0.00000  )

     Computing dynamical matrix for 
                    q = (   0.0000000   0.0000000  -1.0000000 )

     49 Sym.Ops. (with q -> -q+G )


     G cutoff =  402.3703  (   4238 G-vectors)     FFT grid: ( 36, 36, 36)
     G cutoff =  201.1851  (   1495 G-vectors)  smooth grid: ( 25, 25, 25)

     number of k points=   200  Marzari-Vanderbilt smearing, width (Ry)=  0.0200

     PseudoPot. # 1 for Na read from file:
     /home/s1333534/quantum_espresso/qe-6.1/pseudo/Na_pbe_v1.uspp.F.UPF
     MD5 check sum: 76a99c7e9422403d3e93cbc85ab7bccb
     Pseudo is Ultrasoft, Zval =  9.0
     Generated by new atomic code, or converted to UPF format
     Using radial grid of  819 points,  5 beta functions with: 
                l(1) =   0
                l(2) =   0
                l(3) =   1
                l(4) =   1
                l(5) =   2
     Q(r) pseudized with  8 coefficients,  rinner =    1.250   1.250   1.250
                                                       1.250   1.250

     Mode symmetry, O_h (m-3m)  point group:


     Atomic displacements:
     There are   1 irreducible representations

     Representation     1      3 modes -T_1u G_15  G_4-  To be done



     Alpha used in Ewald sum =   2.8000
     PHONON       :     1h24m CPU        1h33m WALL



     Representation #  1 modes #   1  2  3

     Self-consistent Calculation

      iter #   1 total cpu time :  5586.4 secs   av.it.:   5.7
      thresh= 1.000E-02 alpha_mix =  0.700 |ddv_scf|^2 =  4.874E-06

      iter #   2 total cpu time :  5588.7 secs   av.it.:   8.3
      thresh= 2.208E-04 alpha_mix =  0.700 |ddv_scf|^2 =  5.362E-08

      iter #   3 total cpu time :  5591.0 secs   av.it.:   8.2
      thresh= 2.316E-05 alpha_mix =  0.700 |ddv_scf|^2 =  4.667E-09

      iter #   4 total cpu time :  5593.4 secs   av.it.:   8.3
      thresh= 6.832E-06 alpha_mix =  0.700 |ddv_scf|^2 =  2.029E-11

      iter #   5 total cpu time :  5595.7 secs   av.it.:   8.2
      thresh= 4.504E-07 alpha_mix =  0.700 |ddv_scf|^2 =  6.498E-15

     End of self-consistent calculation

     Convergence has been achieved 

     Number of q in the star =    1
     List of q in the star:
          1   0.000000000   0.000000000  -1.000000000

     Diagonalizing the dynamical matrix

     q = (    0.000000000   0.000000000  -1.000000000 ) 

 **************************************************************************
     freq (    1) =       5.290045 [THz] =     176.456911 [cm-1]
     freq (    2) =       5.290045 [THz] =     176.456911 [cm-1]
     freq (    3) =       5.290045 [THz] =     176.456911 [cm-1]
 **************************************************************************

     Mode symmetry, O_h (m-3m)  point group:

     freq (  1 -  3) =        176.5  [cm-1]   --> T_1u G_15  G_4-    

     init_run     :      4.68s CPU      4.71s WALL (      28 calls)
     electrons    :   1118.00s CPU   1204.77s WALL (      28 calls)

     Called by init_run:
     wfcinit      :      0.00s CPU      0.00s WALL (      28 calls)
     potinit      :      0.30s CPU      0.30s WALL (      28 calls)

     Called by electrons:
     c_bands      :   1117.71s CPU   1204.47s WALL (      28 calls)
     v_of_rho     :      0.24s CPU      0.24s WALL (      29 calls)
     newd         :      0.29s CPU      0.30s WALL (      29 calls)

     Called by c_bands:
     init_us_2    :     79.71s CPU     72.24s WALL (  917645 calls)
     cegterg      :   1028.77s CPU   1106.87s WALL (   76248 calls)

     Called by sum_band:

     Called by *egterg:
     h_psi        :   3277.73s CPU   3613.96s WALL ( 7585506 calls)
     s_psi        :    116.74s CPU    121.83s WALL (14510223 calls)
     g_psi        :      5.45s CPU      8.75s WALL ( 1173321 calls)
     cdiaghg      :    256.66s CPU    257.62s WALL ( 1236487 calls)

     Called by h_psi:
     h_psi:pot    :   3257.67s CPU   3589.17s WALL ( 7585506 calls)
     h_psi:calbec :     86.58s CPU    101.90s WALL ( 7585506 calls)
     vloc_psi     :   3097.70s CPU   3391.31s WALL ( 7585506 calls)
     add_vuspsi   :     58.23s CPU     73.71s WALL ( 7585506 calls)

     General routines
     calbec       :    186.69s CPU    198.14s WALL (16080676 calls)
     fft          :      2.17s CPU      2.27s WALL (    9037 calls)
     ffts         :      6.32s CPU      6.40s WALL (   97081 calls)
     fftw         :   3371.34s CPU   3631.28s WALL (73371551 calls)
     interpolate  :      0.36s CPU      0.43s WALL (    1253 calls)
     davcio       :     27.30s CPU     56.31s WALL ( 3485187 calls)

     Parallel routines
     fft_scatter  :    859.50s CPU   1019.30s WALL (73477669 calls)

     PHONON       :     1h24m CPU        1h33m WALL

     INITIALIZATION: 
     phq_setup    :      0.76s CPU      0.78s WALL (      29 calls)
     phq_init     :     90.43s CPU     96.09s WALL (      29 calls)

     phq_init     :     90.43s CPU     96.09s WALL (      29 calls)
     init_vloc    :      0.07s CPU      0.07s WALL (      29 calls)
     init_us_1    :      2.65s CPU      2.66s WALL (      29 calls)
     newd         :      0.29s CPU      0.30s WALL (      29 calls)
     dvanqq       :      1.17s CPU      1.18s WALL (      29 calls)
     drho         :     71.12s CPU     75.84s WALL (      29 calls)

     DYNAMICAL MATRIX:
     dynmat0      :     11.19s CPU     11.59s WALL (      29 calls)
     phqscf       :   3817.93s CPU   4242.00s WALL (      29 calls)
     dynmatrix    :      0.03s CPU      0.04s WALL (      29 calls)

     phqscf       :   3817.93s CPU   4242.00s WALL (      29 calls)
     solve_linter :   3799.45s CPU   4221.89s WALL (      76 calls)
     drhodv       :     18.39s CPU     19.30s WALL (      76 calls)

     dynmat0      :     11.19s CPU     11.59s WALL (      29 calls)
     dynmat_us    :     11.16s CPU     11.55s WALL (      29 calls)
     d2ionq       :      0.02s CPU      0.02s WALL (      29 calls)

     dynmat_us    :     11.16s CPU     11.55s WALL (      29 calls)
     addusdynmat  :      0.00s CPU      0.00s WALL (      29 calls)

     phqscf       :   3817.93s CPU   4242.00s WALL (      29 calls)
     solve_linter :   3799.45s CPU   4221.89s WALL (      76 calls)

     solve_linter :   3799.45s CPU   4221.89s WALL (      76 calls)
     dvqpsi_us    :    110.27s CPU    120.95s WALL (   95049 calls)
     ortho        :     35.66s CPU     40.76s WALL (  651946 calls)
     cgsolve      :   2930.23s CPU   3233.76s WALL (  651946 calls)
     incdrhoscf   :    333.12s CPU    373.06s WALL (  651946 calls)
     addusddens   :      9.38s CPU      9.45s WALL (     575 calls)
     vpsifft      :    258.71s CPU    290.46s WALL (  556897 calls)
     dv_of_drho   :      2.53s CPU      2.61s WALL (     554 calls)
     mix_pot      :      0.33s CPU      0.67s WALL (     499 calls)
     ef_shift     :      0.01s CPU      0.01s WALL (       6 calls)
     localdos     :      0.05s CPU      0.06s WALL (       1 calls)
     psymdvscf    :      5.70s CPU      5.78s WALL (     428 calls)
     newdq        :      8.46s CPU      8.51s WALL (     499 calls)
     adddvscf     :     14.29s CPU     14.66s WALL (  556897 calls)
     drhodvus     :      0.02s CPU      0.02s WALL (      76 calls)

     dvqpsi_us    :    110.27s CPU    120.95s WALL (   95049 calls)
     dvqpsi_us_on :     20.52s CPU     20.54s WALL (   95049 calls)

     cgsolve      :   2930.23s CPU   3233.76s WALL (  651946 calls)
     ch_psi       :   2860.24s CPU   3161.89s WALL ( 6272771 calls)

     ch_psi       :   2860.24s CPU   3161.89s WALL ( 6272771 calls)
     h_psi        :   3277.73s CPU   3613.96s WALL ( 7585506 calls)
     last         :    208.33s CPU    231.46s WALL ( 6272771 calls)

     h_psi        :   3277.73s CPU   3613.96s WALL ( 7585506 calls)
     add_vuspsi   :     58.23s CPU     73.71s WALL ( 7585506 calls)

     incdrhoscf   :    333.12s CPU    373.06s WALL (  651946 calls)
     addusdbec    :     16.04s CPU     17.04s WALL (  746995 calls)

     drhodvus     :      0.02s CPU      0.02s WALL (      76 calls)

      General routines
     calbec       :    186.69s CPU    198.14s WALL (16080676 calls)
     fft          :      2.17s CPU      2.27s WALL (    9037 calls)
     ffts         :      6.32s CPU      6.40s WALL (   97081 calls)
     fftw         :   3371.34s CPU   3631.28s WALL (73371551 calls)
     davcio       :     27.30s CPU     56.31s WALL ( 3485187 calls)
     write_rec    :      0.41s CPU      1.97s WALL (     575 calls)


     PHONON       :     1h24m CPU        1h33m WALL


   This run was terminated on:  13:24: 9  21Dec2017            

=------------------------------------------------------------------------------=
   JOB DONE.
=------------------------------------------------------------------------------=
