
     Program PWSCF v.5.2.0 starts on 18Aug2016 at 16:33:13 

     This program is part of the open-source Quantum ESPRESSO suite
     for quantum simulation of materials; please cite
         "P. Giannozzi et al., J. Phys.:Condens. Matter 21 395502 (2009);
          URL http://www.quantum-espresso.org", 
     in publications or presentations arising from this work. More details at
     http://www.quantum-espresso.org/quote

     Parallel version (MPI), running on   192 processors
     K-points division:     npool     =     192
     Waiting for input...
     Reading input from standard input
     Message from routine read_cards :
     DEPRECATED: no units specified in ATOMIC_POSITIONS card
     Message from routine read_cards :
     ATOMIC_POSITIONS: units set to alat

     Current dimensions of program PWSCF are:
     Max number of different atomic species (ntypx) = 10
     Max number of k-points (npk) = 400000
     Max angular momentum in pseudopotentials (lmaxx) =  3

     Subspace diagonalization in iterative solution of the eigenvalue problem:
     a serial algorithm will be used

 
     G-vector sticks info
     --------------------
     sticks:   dense  smooth     PW     G-vecs:    dense   smooth      PW
     Sum        1027     507    165                20785     7155    1289
 


     bravais-lattice index     =            3
     lattice parameter (alat)  =       6.1455  a.u.
     unit-cell volume          =     116.0512 (a.u.)^3
     number of atoms/cell      =            1
     number of atomic types    =            1
     number of electrons       =         3.00
     number of Kohn-Sham states=            6
     kinetic-energy cutoff     =      60.0000  Ry
     charge density cutoff     =     480.0000  Ry
     convergence threshold     =      1.0E-12
     mixing beta               =       0.7000
     number of iterations used =            8  plain     mixing
     Exchange-correlation      =  SLA  PW   PBX  PBC ( 1  4  3  4 0 0)

     celldm(1)=   6.145538  celldm(2)=   0.000000  celldm(3)=   0.000000
     celldm(4)=   0.000000  celldm(5)=   0.000000  celldm(6)=   0.000000

     crystal axes: (cart. coord. in units of alat)
               a(1) = (   0.500000   0.500000   0.500000 )  
               a(2) = (  -0.500000   0.500000   0.500000 )  
               a(3) = (  -0.500000  -0.500000   0.500000 )  

     reciprocal axes: (cart. coord. in units 2 pi/alat)
               b(1) = (  1.000000  0.000000  1.000000 )  
               b(2) = ( -1.000000  1.000000  0.000000 )  
               b(3) = (  0.000000 -1.000000  1.000000 )  


     PseudoPot. # 1 for Li read from file:
     ../Li.pbe-s-gbrv14.UPF
     MD5 check sum: 7ca33c4f951f001da2db5c8738379802
     Pseudo is Ultrasoft, Zval =  3.0
     Generated by new atomic code, or converted to UPF format
     Using radial grid of  751 points,  5 beta functions with: 
                l(1) =   0
                l(2) =   0
                l(3) =   0
                l(4) =   1
                l(5) =   1
     Q(r) pseudized with 10 coefficients,  rinner =    1.150   1.150   1.150


     atomic species   valence    mass     pseudopotential
        Li             3.00     6.94100     Li( 1.00)

     48 Sym. Ops., with inversion, found



   Cartesian axes

     site n.     atom                  positions (alat units)
         1           Li  tau(   1) = (   0.0000000   0.0000000   0.0000000  )

     number of k points=   744  Marzari-Vanderbilt smearing, width (Ry)=  0.0200

     Number of k-points >= 100: set verbosity='high' to print them.

     Dense  grid:    20785 G-vectors     FFT dimensions: (  40,  40,  40)

     Smooth grid:     7155 G-vectors     FFT dimensions: (  27,  27,  27)

     Largest allocated arrays     est. size (Mb)     dimensions
        Kohn-Sham Wavefunctions         0.09 Mb     (     941,    6)
        NL pseudopotentials             0.13 Mb     (     941,    9)
        Each V/rho on FFT grid          0.98 Mb     (   64000)
        Each G-vector array             0.16 Mb     (   20785)
        G-vector shells                 0.00 Mb     (     212)
     Largest temporary arrays     est. size (Mb)     dimensions
        Auxiliary wavefunctions         0.34 Mb     (     941,   24)
        Each subspace H/S matrix        0.01 Mb     (      24,   24)
        Each <psi_i|beta_j> matrix      0.00 Mb     (       9,    6)
        Arrays for rho mixing           7.81 Mb     (   64000,    8)

     Initial potential from superposition of free atoms

     starting charge    2.54926, renormalised to    3.00000
     Starting wfc are    5 randomized atomic wfcs +    1 random wfc

     total cpu time spent up to now is        0.8 secs

     per-process dynamical memory:    20.5 Mb

     Self-consistent Calculation

     iteration #  1     ecut=    60.00 Ry     beta=0.70
     Davidson diagonalization with overlap
     ethr =  1.00E-02,  avg # of iterations =  5.3

     total cpu time spent up to now is        1.2 secs

     total energy              =     -14.46503843 Ry
     Harris-Foulkes estimate   =     -14.58003376 Ry
     estimated scf accuracy    <       0.16010537 Ry

     iteration #  2     ecut=    60.00 Ry     beta=0.70
     Davidson diagonalization with overlap
     ethr =  5.34E-03,  avg # of iterations =  1.0

     total cpu time spent up to now is        1.3 secs

     total energy              =     -14.46850555 Ry
     Harris-Foulkes estimate   =     -14.47381860 Ry
     estimated scf accuracy    <       0.00716505 Ry

     iteration #  3     ecut=    60.00 Ry     beta=0.70
     Davidson diagonalization with overlap
     ethr =  2.39E-04,  avg # of iterations =  2.2

     total cpu time spent up to now is        1.5 secs

     total energy              =     -14.47017588 Ry
     Harris-Foulkes estimate   =     -14.47016975 Ry
     estimated scf accuracy    <       0.00003549 Ry

     iteration #  4     ecut=    60.00 Ry     beta=0.70
     Davidson diagonalization with overlap
     ethr =  1.18E-06,  avg # of iterations =  4.1

     total cpu time spent up to now is        1.8 secs

     total energy              =     -14.47018811 Ry
     Harris-Foulkes estimate   =     -14.47018833 Ry
     estimated scf accuracy    <       0.00000085 Ry

     iteration #  5     ecut=    60.00 Ry     beta=0.70
     Davidson diagonalization with overlap
     ethr =  2.84E-08,  avg # of iterations =  2.1

     total cpu time spent up to now is        1.9 secs

     total energy              =     -14.47018843 Ry
     Harris-Foulkes estimate   =     -14.47018843 Ry
     estimated scf accuracy    <       0.00000001 Ry

     iteration #  6     ecut=    60.00 Ry     beta=0.70
     Davidson diagonalization with overlap
     ethr =  3.99E-10,  avg # of iterations =  2.2

     total cpu time spent up to now is        2.1 secs

     total energy              =     -14.47018844 Ry
     Harris-Foulkes estimate   =     -14.47018844 Ry
     estimated scf accuracy    <          3.7E-09 Ry

     iteration #  7     ecut=    60.00 Ry     beta=0.70
     Davidson diagonalization with overlap
     ethr =  1.24E-10,  avg # of iterations =  1.0

     total cpu time spent up to now is        2.3 secs

     total energy              =     -14.47018844 Ry
     Harris-Foulkes estimate   =     -14.47018844 Ry
     estimated scf accuracy    <          1.4E-11 Ry

     iteration #  8     ecut=    60.00 Ry     beta=0.70
     Davidson diagonalization with overlap
     ethr =  4.66E-13,  avg # of iterations =  3.0

     total cpu time spent up to now is        2.5 secs

     total energy              =     -14.47018844 Ry
     Harris-Foulkes estimate   =     -14.47018844 Ry
     estimated scf accuracy    <          2.3E-12 Ry

     iteration #  9     ecut=    60.00 Ry     beta=0.70
     Davidson diagonalization with overlap
     ethr =  1.00E-13,  avg # of iterations =  1.0

     total cpu time spent up to now is        2.6 secs

     End of self-consistent calculation

     Number of k-points >= 100: set verbosity='high' to print the bands.

     the Fermi energy is     1.5090 ev

!    total energy              =     -14.47018844 Ry
     Harris-Foulkes estimate   =     -14.47018844 Ry
     estimated scf accuracy    <          8.2E-14 Ry

     The total energy is the sum of the following terms:

     one-electron contribution =      -9.27829331 Ry
     hartree contribution      =       3.53933103 Ry
     xc contribution           =      -3.40155027 Ry
     ewald contribution        =      -5.32957424 Ry
     smearing contrib. (-TS)   =      -0.00010164 Ry

     convergence has been achieved in   9 iterations


     entering subroutine stress ...

          total   stress  (Ry/bohr**3)                   (kbar)     P=   30.01
   0.00020402   0.00000000   0.00000000         30.01      0.00      0.00
  -0.00000000   0.00020402  -0.00000000         -0.00     30.01     -0.00
   0.00000000   0.00000000   0.00020402          0.00      0.00     30.01


     Writing output data file li-bcc.save
 
     init_run     :      0.48s CPU      0.56s WALL (       1 calls)
     electrons    :      1.77s CPU      1.85s WALL (       1 calls)
     stress       :      0.11s CPU      0.11s WALL (       1 calls)

     Called by init_run:
     wfcinit      :      0.02s CPU      0.05s WALL (       1 calls)
     potinit      :      0.27s CPU      0.28s WALL (       1 calls)

     Called by electrons:
     c_bands      :      0.60s CPU      0.61s WALL (       9 calls)
     sum_band     :      0.39s CPU      0.41s WALL (       9 calls)
     v_of_rho     :      0.41s CPU      0.43s WALL (      10 calls)
     newd         :      0.16s CPU      0.17s WALL (      10 calls)
     mix_rho      :      0.06s CPU      0.05s WALL (       9 calls)

     Called by c_bands:
     init_us_2    :      0.02s CPU      0.01s WALL (      80 calls)
     cegterg      :      0.50s CPU      0.50s WALL (      36 calls)

     Called by sum_band:
     sum_band:bec :      0.00s CPU      0.00s WALL (      36 calls)
     addusdens    :      0.17s CPU      0.18s WALL (       9 calls)

     Called by *egterg:
     h_psi        :      0.45s CPU      0.46s WALL (     145 calls)
     s_psi        :      0.01s CPU      0.00s WALL (     145 calls)
     g_psi        :      0.00s CPU      0.00s WALL (     105 calls)
     cdiaghg      :      0.01s CPU      0.02s WALL (     141 calls)

     Called by h_psi:
     add_vuspsi   :      0.00s CPU      0.00s WALL (     145 calls)

     General routines
     calbec       :      0.00s CPU      0.01s WALL (     185 calls)
     fft          :      0.24s CPU      0.27s WALL (     161 calls)
     ffts         :      0.00s CPU      0.01s WALL (      19 calls)
     fftw         :      0.48s CPU      0.47s WALL (    1384 calls)
     interpolate  :      0.04s CPU      0.05s WALL (      19 calls)
     davcio       :      0.00s CPU      0.00s WALL (       4 calls)
 
     Parallel routines
     fft_scatter  :      0.04s CPU      0.06s WALL (    1564 calls)
 
     PWSCF        :     3.98s CPU        44.69s WALL

 
   This run was terminated on:  16:33:58  18Aug2016            

=------------------------------------------------------------------------------=
   JOB DONE.
=------------------------------------------------------------------------------=
Application 22828604 resources: utime ~8484s, stime ~53s, Rss ~47324, inblocks ~1140695, outblocks ~903144
