
     Program Q2R v.5.4.0 starts on 19Aug2016 at  9:24:18 

     This program is part of the open-source Quantum ESPRESSO suite
     for quantum simulation of materials; please cite
         "P. Giannozzi et al., J. Phys.:Condens. Matter 21 395502 (2009);
          URL http://www.quantum-espresso.org", 
     in publications or presentations arising from this work. More details at
     http://www.quantum-espresso.org/quote

     Parallel version (MPI), running on     1 processors

     reading grid info from file bcc-li.dyn0    
  reading force constants from file bcc-li.dyn1
  Dielectric Tensor not found
  nqs=            1
 q=   0.00000000  0.00000000  0.00000000
  reading force constants from file bcc-li.dyn2
  nqs=           12
 q=   0.00000000 -0.10000000  0.10000000
 q=  -0.10000000  0.00000000  0.10000000
 q=   0.10000000  0.00000000  0.10000000
 q=   0.00000000  0.10000000  0.10000000
 q=   0.10000000  0.10000000  0.00000000
 q=  -0.10000000  0.10000000  0.00000000
 q=   0.10000000 -0.10000000  0.00000000
 q=  -0.10000000 -0.10000000  0.00000000
 q=  -0.10000000  0.00000000 -0.10000000
 q=   0.00000000  0.10000000 -0.10000000
 q=   0.00000000 -0.10000000 -0.10000000
 q=   0.10000000  0.00000000 -0.10000000
  reading force constants from file bcc-li.dyn3
  nqs=           12
 q=   0.00000000 -0.20000000  0.20000000
 q=  -0.20000000  0.00000000  0.20000000
 q=   0.20000000  0.00000000  0.20000000
 q=   0.00000000  0.20000000  0.20000000
 q=   0.20000000  0.20000000  0.00000000
 q=  -0.20000000  0.20000000  0.00000000
 q=   0.20000000 -0.20000000  0.00000000
 q=  -0.20000000 -0.20000000  0.00000000
 q=  -0.20000000  0.00000000 -0.20000000
 q=   0.00000000  0.20000000 -0.20000000
 q=   0.00000000 -0.20000000 -0.20000000
 q=   0.20000000  0.00000000 -0.20000000
  reading force constants from file bcc-li.dyn4
  nqs=           12
 q=   0.00000000 -0.30000000  0.30000000
 q=  -0.30000000  0.00000000  0.30000000
 q=   0.30000000  0.00000000  0.30000000
 q=   0.00000000  0.30000000  0.30000000
 q=   0.30000000  0.30000000  0.00000000
 q=  -0.30000000  0.30000000  0.00000000
 q=   0.30000000 -0.30000000  0.00000000
 q=  -0.30000000 -0.30000000  0.00000000
 q=  -0.30000000  0.00000000 -0.30000000
 q=   0.00000000  0.30000000 -0.30000000
 q=   0.00000000 -0.30000000 -0.30000000
 q=   0.30000000  0.00000000 -0.30000000
  reading force constants from file bcc-li.dyn5
  nqs=           12
 q=   0.00000000 -0.40000000  0.40000000
 q=  -0.40000000  0.00000000  0.40000000
 q=   0.40000000  0.00000000  0.40000000
 q=   0.00000000  0.40000000  0.40000000
 q=   0.40000000  0.40000000  0.00000000
 q=  -0.40000000  0.40000000  0.00000000
 q=   0.40000000 -0.40000000  0.00000000
 q=  -0.40000000 -0.40000000  0.00000000
 q=  -0.40000000  0.00000000 -0.40000000
 q=   0.00000000  0.40000000 -0.40000000
 q=   0.00000000 -0.40000000 -0.40000000
 q=   0.40000000  0.00000000 -0.40000000
  reading force constants from file bcc-li.dyn6
  nqs=            6
 q=   0.00000000  0.50000000 -0.50000000
 q=  -0.50000000 -0.50000000  0.00000000
 q=   0.50000000 -0.50000000  0.00000000
 q=   0.50000000  0.00000000  0.50000000
 q=   0.50000000  0.00000000 -0.50000000
 q=   0.00000000 -0.50000000 -0.50000000
  reading force constants from file bcc-li.dyn7
  nqs=           24
 q=  -0.10000000 -0.10000000  0.20000000
 q=  -0.10000000 -0.20000000  0.10000000
 q=   0.10000000 -0.20000000  0.10000000
 q=   0.10000000  0.20000000 -0.10000000
 q=   0.10000000  0.10000000 -0.20000000
 q=  -0.10000000  0.20000000 -0.10000000
 q=  -0.10000000  0.10000000 -0.20000000
 q=   0.20000000  0.10000000 -0.10000000
 q=  -0.20000000  0.10000000  0.10000000
 q=   0.20000000 -0.10000000  0.10000000
 q=  -0.20000000 -0.10000000 -0.10000000
 q=  -0.10000000 -0.10000000 -0.20000000
 q=  -0.10000000  0.10000000  0.20000000
 q=  -0.10000000  0.20000000  0.10000000
 q=  -0.10000000 -0.20000000 -0.10000000
 q=   0.10000000  0.10000000  0.20000000
 q=   0.10000000 -0.20000000 -0.10000000
 q=   0.20000000 -0.10000000 -0.10000000
 q=   0.20000000  0.10000000  0.10000000
 q=  -0.20000000  0.10000000 -0.10000000
 q=  -0.20000000 -0.10000000  0.10000000
 q=   0.10000000 -0.10000000 -0.20000000
 q=   0.10000000 -0.10000000  0.20000000
 q=   0.10000000  0.20000000  0.10000000
  reading force constants from file bcc-li.dyn8
  nqs=           48
 q=  -0.10000000 -0.20000000  0.30000000
 q=  -0.20000000 -0.10000000  0.30000000
 q=  -0.10000000 -0.30000000  0.20000000
 q=   0.10000000 -0.30000000  0.20000000
 q=   0.10000000  0.30000000 -0.20000000
 q=   0.10000000  0.20000000 -0.30000000
 q=  -0.10000000  0.30000000 -0.20000000
 q=  -0.10000000  0.20000000 -0.30000000
 q=   0.30000000  0.20000000 -0.10000000
 q=  -0.30000000  0.20000000  0.10000000
 q=   0.30000000 -0.20000000  0.10000000
 q=  -0.30000000 -0.20000000 -0.10000000
 q=  -0.20000000 -0.10000000 -0.30000000
 q=  -0.20000000  0.10000000  0.30000000
 q=  -0.10000000  0.30000000  0.20000000
 q=  -0.10000000 -0.30000000 -0.20000000
 q=  -0.10000000  0.20000000  0.30000000
 q=   0.20000000  0.10000000  0.30000000
 q=  -0.20000000 -0.30000000  0.10000000
 q=   0.20000000 -0.30000000 -0.10000000
 q=   0.30000000 -0.10000000 -0.20000000
 q=   0.30000000  0.10000000  0.20000000
 q=  -0.30000000  0.10000000 -0.20000000
 q=  -0.30000000 -0.10000000  0.20000000
 q=   0.20000000  0.10000000 -0.30000000
 q=  -0.10000000 -0.20000000 -0.30000000
 q=  -0.30000000 -0.20000000  0.10000000
 q=   0.10000000 -0.20000000 -0.30000000
 q=   0.20000000 -0.10000000  0.30000000
 q=   0.10000000 -0.20000000  0.30000000
 q=   0.20000000 -0.10000000 -0.30000000
 q=  -0.20000000  0.10000000 -0.30000000
 q=   0.20000000  0.30000000  0.10000000
 q=   0.30000000 -0.20000000 -0.10000000
 q=  -0.30000000  0.20000000 -0.10000000
 q=   0.30000000  0.20000000  0.10000000
 q=   0.10000000  0.20000000  0.30000000
 q=  -0.20000000  0.30000000 -0.10000000
 q=   0.10000000 -0.30000000 -0.20000000
 q=   0.10000000  0.30000000  0.20000000
 q=   0.20000000 -0.30000000  0.10000000
 q=  -0.20000000 -0.30000000 -0.10000000
 q=   0.20000000  0.30000000 -0.10000000
 q=  -0.20000000  0.30000000  0.10000000
 q=  -0.30000000  0.10000000  0.20000000
 q=  -0.30000000 -0.10000000 -0.20000000
 q=   0.30000000 -0.10000000  0.20000000
 q=   0.30000000  0.10000000 -0.20000000
  reading force constants from file bcc-li.dyn9
  nqs=           48
 q=  -0.10000000 -0.30000000  0.40000000
 q=  -0.30000000 -0.10000000  0.40000000
 q=  -0.10000000 -0.40000000  0.30000000
 q=   0.10000000 -0.40000000  0.30000000
 q=   0.10000000  0.40000000 -0.30000000
 q=   0.10000000  0.30000000 -0.40000000
 q=  -0.10000000  0.40000000 -0.30000000
 q=  -0.10000000  0.30000000 -0.40000000
 q=   0.40000000  0.30000000 -0.10000000
 q=  -0.40000000  0.30000000  0.10000000
 q=   0.40000000 -0.30000000  0.10000000
 q=  -0.40000000 -0.30000000 -0.10000000
 q=  -0.30000000 -0.10000000 -0.40000000
 q=  -0.30000000  0.10000000  0.40000000
 q=  -0.10000000  0.40000000  0.30000000
 q=  -0.10000000 -0.40000000 -0.30000000
 q=  -0.10000000  0.30000000  0.40000000
 q=   0.30000000  0.10000000  0.40000000
 q=  -0.30000000 -0.40000000  0.10000000
 q=   0.30000000 -0.40000000 -0.10000000
 q=   0.40000000 -0.10000000 -0.30000000
 q=   0.40000000  0.10000000  0.30000000
 q=  -0.40000000  0.10000000 -0.30000000
 q=  -0.40000000 -0.10000000  0.30000000
 q=   0.30000000  0.10000000 -0.40000000
 q=  -0.10000000 -0.30000000 -0.40000000
 q=  -0.40000000 -0.30000000  0.10000000
 q=   0.10000000 -0.30000000 -0.40000000
 q=   0.30000000 -0.10000000  0.40000000
 q=   0.10000000 -0.30000000  0.40000000
 q=   0.30000000 -0.10000000 -0.40000000
 q=  -0.30000000  0.10000000 -0.40000000
 q=   0.30000000  0.40000000  0.10000000
 q=   0.40000000 -0.30000000 -0.10000000
 q=  -0.40000000  0.30000000 -0.10000000
 q=   0.40000000  0.30000000  0.10000000
 q=   0.10000000  0.30000000  0.40000000
 q=  -0.30000000  0.40000000 -0.10000000
 q=   0.10000000 -0.40000000 -0.30000000
 q=   0.10000000  0.40000000  0.30000000
 q=   0.30000000 -0.40000000  0.10000000
 q=  -0.30000000 -0.40000000 -0.10000000
 q=   0.30000000  0.40000000 -0.10000000
 q=  -0.30000000  0.40000000  0.10000000
 q=  -0.40000000  0.10000000  0.30000000
 q=  -0.40000000 -0.10000000 -0.30000000
 q=   0.40000000 -0.10000000  0.30000000
 q=   0.40000000  0.10000000 -0.30000000
  reading force constants from file bcc-li.dyn10
  nqs=           48
 q=  -0.10000000  0.60000000 -0.50000000
 q=   0.60000000 -0.10000000 -0.50000000
 q=  -0.10000000  0.50000000 -0.60000000
 q=   0.10000000  0.50000000 -0.60000000
 q=   0.10000000 -0.50000000  0.60000000
 q=   0.10000000 -0.60000000  0.50000000
 q=  -0.10000000 -0.50000000  0.60000000
 q=  -0.10000000 -0.60000000  0.50000000
 q=  -0.50000000 -0.60000000 -0.10000000
 q=   0.50000000 -0.60000000  0.10000000
 q=  -0.50000000  0.60000000  0.10000000
 q=   0.50000000  0.60000000 -0.10000000
 q=   0.60000000 -0.10000000  0.50000000
 q=   0.60000000  0.10000000 -0.50000000
 q=  -0.10000000 -0.50000000 -0.60000000
 q=  -0.10000000  0.50000000  0.60000000
 q=  -0.10000000 -0.60000000 -0.50000000
 q=  -0.60000000  0.10000000 -0.50000000
 q=   0.60000000  0.50000000  0.10000000
 q=  -0.60000000  0.50000000 -0.10000000
 q=  -0.50000000 -0.10000000  0.60000000
 q=  -0.50000000  0.10000000 -0.60000000
 q=   0.50000000  0.10000000  0.60000000
 q=   0.50000000 -0.10000000 -0.60000000
 q=  -0.60000000  0.10000000  0.50000000
 q=  -0.10000000  0.60000000  0.50000000
 q=   0.50000000  0.60000000  0.10000000
 q=   0.10000000  0.60000000  0.50000000
 q=  -0.60000000 -0.10000000 -0.50000000
 q=   0.10000000  0.60000000 -0.50000000
 q=  -0.60000000 -0.10000000  0.50000000
 q=   0.60000000  0.10000000  0.50000000
 q=  -0.60000000 -0.50000000  0.10000000
 q=  -0.50000000  0.60000000 -0.10000000
 q=   0.50000000 -0.60000000 -0.10000000
 q=  -0.50000000 -0.60000000  0.10000000
 q=   0.10000000 -0.60000000 -0.50000000
 q=   0.60000000 -0.50000000 -0.10000000
 q=   0.10000000  0.50000000  0.60000000
 q=   0.10000000 -0.50000000 -0.60000000
 q=  -0.60000000  0.50000000  0.10000000
 q=   0.60000000  0.50000000 -0.10000000
 q=  -0.60000000 -0.50000000 -0.10000000
 q=   0.60000000 -0.50000000  0.10000000
 q=   0.50000000  0.10000000 -0.60000000
 q=   0.50000000 -0.10000000  0.60000000
 q=  -0.50000000 -0.10000000 -0.60000000
 q=  -0.50000000  0.10000000  0.60000000
  reading force constants from file bcc-li.dyn11
  nqs=           24
 q=  -0.20000000 -0.20000000  0.40000000
 q=  -0.20000000 -0.40000000  0.20000000
 q=   0.20000000 -0.40000000  0.20000000
 q=   0.20000000  0.40000000 -0.20000000
 q=   0.20000000  0.20000000 -0.40000000
 q=  -0.20000000  0.40000000 -0.20000000
 q=  -0.20000000  0.20000000 -0.40000000
 q=   0.40000000  0.20000000 -0.20000000
 q=  -0.40000000  0.20000000  0.20000000
 q=   0.40000000 -0.20000000  0.20000000
 q=  -0.40000000 -0.20000000 -0.20000000
 q=  -0.20000000 -0.20000000 -0.40000000
 q=  -0.20000000  0.20000000  0.40000000
 q=  -0.20000000  0.40000000  0.20000000
 q=  -0.20000000 -0.40000000 -0.20000000
 q=   0.20000000  0.20000000  0.40000000
 q=   0.20000000 -0.40000000 -0.20000000
 q=   0.40000000 -0.20000000 -0.20000000
 q=   0.40000000  0.20000000  0.20000000
 q=  -0.40000000  0.20000000 -0.20000000
 q=  -0.40000000 -0.20000000  0.20000000
 q=   0.20000000 -0.20000000 -0.40000000
 q=   0.20000000 -0.20000000  0.40000000
 q=   0.20000000  0.40000000  0.20000000
  reading force constants from file bcc-li.dyn12
  nqs=           48
 q=  -0.20000000  0.70000000 -0.50000000
 q=   0.70000000 -0.20000000 -0.50000000
 q=  -0.20000000  0.50000000 -0.70000000
 q=   0.20000000  0.50000000 -0.70000000
 q=   0.20000000 -0.50000000  0.70000000
 q=   0.20000000 -0.70000000  0.50000000
 q=  -0.20000000 -0.50000000  0.70000000
 q=  -0.20000000 -0.70000000  0.50000000
 q=  -0.50000000 -0.70000000 -0.20000000
 q=   0.50000000 -0.70000000  0.20000000
 q=  -0.50000000  0.70000000  0.20000000
 q=   0.50000000  0.70000000 -0.20000000
 q=   0.70000000 -0.20000000  0.50000000
 q=   0.70000000  0.20000000 -0.50000000
 q=  -0.20000000 -0.50000000 -0.70000000
 q=  -0.20000000  0.50000000  0.70000000
 q=  -0.20000000 -0.70000000 -0.50000000
 q=  -0.70000000  0.20000000 -0.50000000
 q=   0.70000000  0.50000000  0.20000000
 q=  -0.70000000  0.50000000 -0.20000000
 q=  -0.50000000 -0.20000000  0.70000000
 q=  -0.50000000  0.20000000 -0.70000000
 q=   0.50000000  0.20000000  0.70000000
 q=   0.50000000 -0.20000000 -0.70000000
 q=  -0.70000000  0.20000000  0.50000000
 q=  -0.20000000  0.70000000  0.50000000
 q=   0.50000000  0.70000000  0.20000000
 q=   0.20000000  0.70000000  0.50000000
 q=  -0.70000000 -0.20000000 -0.50000000
 q=   0.20000000  0.70000000 -0.50000000
 q=  -0.70000000 -0.20000000  0.50000000
 q=   0.70000000  0.20000000  0.50000000
 q=  -0.70000000 -0.50000000  0.20000000
 q=  -0.50000000  0.70000000 -0.20000000
 q=   0.50000000 -0.70000000 -0.20000000
 q=  -0.50000000 -0.70000000  0.20000000
 q=   0.20000000 -0.70000000 -0.50000000
 q=   0.70000000 -0.50000000 -0.20000000
 q=   0.20000000  0.50000000  0.70000000
 q=   0.20000000 -0.50000000 -0.70000000
 q=  -0.70000000  0.50000000  0.20000000
 q=   0.70000000  0.50000000 -0.20000000
 q=  -0.70000000 -0.50000000 -0.20000000
 q=   0.70000000 -0.50000000  0.20000000
 q=   0.50000000  0.20000000 -0.70000000
 q=   0.50000000 -0.20000000  0.70000000
 q=  -0.50000000 -0.20000000 -0.70000000
 q=  -0.50000000  0.20000000  0.70000000
  reading force constants from file bcc-li.dyn13
  nqs=           24
 q=  -0.20000000  0.60000000 -0.40000000
 q=  -0.20000000  0.40000000 -0.60000000
 q=   0.20000000  0.40000000 -0.60000000
 q=   0.20000000 -0.40000000  0.60000000
 q=   0.60000000 -0.20000000 -0.40000000
 q=  -0.40000000 -0.60000000 -0.20000000
 q=   0.40000000 -0.60000000  0.20000000
 q=  -0.40000000  0.60000000  0.20000000
 q=   0.40000000  0.60000000 -0.20000000
 q=   0.60000000 -0.20000000  0.40000000
 q=   0.60000000  0.20000000 -0.40000000
 q=  -0.20000000 -0.40000000 -0.60000000
 q=  -0.20000000  0.40000000  0.60000000
 q=  -0.60000000  0.20000000 -0.40000000
 q=   0.60000000  0.40000000  0.20000000
 q=  -0.60000000  0.40000000 -0.20000000
 q=  -0.40000000  0.20000000 -0.60000000
 q=   0.40000000 -0.20000000 -0.60000000
 q=  -0.60000000  0.20000000  0.40000000
 q=   0.40000000  0.60000000  0.20000000
 q=   0.20000000  0.60000000  0.40000000
 q=  -0.60000000 -0.20000000 -0.40000000
 q=  -0.40000000  0.60000000 -0.20000000
 q=   0.20000000 -0.60000000 -0.40000000
  reading force constants from file bcc-li.dyn14
  nqs=           24
 q=  -0.30000000  0.70000000 -0.40000000
 q=  -0.30000000  0.40000000 -0.70000000
 q=   0.30000000  0.40000000 -0.70000000
 q=   0.30000000 -0.40000000  0.70000000
 q=   0.30000000 -0.70000000  0.40000000
 q=  -0.30000000 -0.40000000  0.70000000
 q=  -0.30000000 -0.70000000  0.40000000
 q=  -0.40000000 -0.70000000 -0.30000000
 q=   0.40000000 -0.70000000  0.30000000
 q=  -0.40000000  0.70000000  0.30000000
 q=   0.40000000  0.70000000 -0.30000000
 q=   0.70000000 -0.30000000  0.40000000
 q=   0.70000000  0.30000000 -0.40000000
 q=  -0.30000000 -0.40000000 -0.70000000
 q=  -0.30000000  0.40000000  0.70000000
 q=  -0.70000000  0.30000000 -0.40000000
 q=  -0.70000000  0.40000000 -0.30000000
 q=  -0.40000000 -0.30000000  0.70000000
 q=  -0.40000000  0.30000000 -0.70000000
 q=   0.40000000  0.30000000  0.70000000
 q=   0.40000000 -0.30000000 -0.70000000
 q=   0.30000000  0.70000000  0.40000000
 q=  -0.70000000 -0.30000000 -0.40000000
 q=  -0.70000000 -0.40000000  0.30000000
  reading force constants from file bcc-li.dyn15
  nqs=            6
 q=   0.00000000  0.00000000  0.20000000
 q=   0.20000000  0.00000000  0.00000000
 q=  -0.20000000  0.00000000  0.00000000
 q=   0.00000000  0.00000000 -0.20000000
 q=   0.00000000 -0.20000000  0.00000000
 q=   0.00000000  0.20000000  0.00000000
  reading force constants from file bcc-li.dyn16
  nqs=           24
 q=   0.00000000 -0.10000000  0.30000000
 q=  -0.10000000  0.00000000  0.30000000
 q=   0.00000000  0.10000000  0.30000000
 q=   0.10000000  0.00000000  0.30000000
 q=   0.30000000  0.10000000  0.00000000
 q=  -0.30000000  0.10000000  0.00000000
 q=   0.30000000 -0.10000000  0.00000000
 q=  -0.30000000 -0.10000000  0.00000000
 q=  -0.10000000  0.00000000 -0.30000000
 q=   0.00000000 -0.30000000  0.10000000
 q=   0.00000000  0.30000000  0.10000000
 q=   0.00000000 -0.30000000 -0.10000000
 q=   0.00000000  0.30000000 -0.10000000
 q=  -0.10000000 -0.30000000  0.00000000
 q=   0.10000000 -0.30000000  0.00000000
 q=   0.30000000  0.00000000 -0.10000000
 q=   0.30000000  0.00000000  0.10000000
 q=  -0.30000000  0.00000000 -0.10000000
 q=  -0.30000000  0.00000000  0.10000000
 q=   0.10000000  0.00000000 -0.30000000
 q=   0.00000000 -0.10000000 -0.30000000
 q=   0.00000000  0.10000000 -0.30000000
 q=   0.10000000  0.30000000  0.00000000
 q=  -0.10000000  0.30000000  0.00000000
  reading force constants from file bcc-li.dyn17
  nqs=           24
 q=   0.00000000 -0.20000000  0.40000000
 q=  -0.20000000  0.00000000  0.40000000
 q=   0.00000000  0.20000000  0.40000000
 q=   0.20000000  0.00000000  0.40000000
 q=   0.40000000  0.20000000  0.00000000
 q=  -0.40000000  0.20000000  0.00000000
 q=   0.40000000 -0.20000000  0.00000000
 q=  -0.40000000 -0.20000000  0.00000000
 q=  -0.20000000  0.00000000 -0.40000000
 q=   0.00000000 -0.40000000  0.20000000
 q=   0.00000000  0.40000000  0.20000000
 q=   0.00000000 -0.40000000 -0.20000000
 q=   0.00000000  0.40000000 -0.20000000
 q=  -0.20000000 -0.40000000  0.00000000
 q=   0.20000000 -0.40000000  0.00000000
 q=   0.40000000  0.00000000 -0.20000000
 q=   0.40000000  0.00000000  0.20000000
 q=  -0.40000000  0.00000000 -0.20000000
 q=  -0.40000000  0.00000000  0.20000000
 q=   0.20000000  0.00000000 -0.40000000
 q=   0.00000000 -0.20000000 -0.40000000
 q=   0.00000000  0.20000000 -0.40000000
 q=   0.20000000  0.40000000  0.00000000
 q=  -0.20000000  0.40000000  0.00000000
  reading force constants from file bcc-li.dyn18
  nqs=           24
 q=   0.00000000 -0.30000000  0.50000000
 q=  -0.30000000  0.00000000  0.50000000
 q=   0.00000000  0.30000000  0.50000000
 q=   0.30000000  0.00000000  0.50000000
 q=   0.50000000  0.30000000  0.00000000
 q=  -0.50000000  0.30000000  0.00000000
 q=   0.50000000 -0.30000000  0.00000000
 q=  -0.50000000 -0.30000000  0.00000000
 q=  -0.30000000  0.00000000 -0.50000000
 q=   0.00000000 -0.50000000  0.30000000
 q=   0.00000000  0.50000000  0.30000000
 q=   0.00000000 -0.50000000 -0.30000000
 q=   0.00000000  0.50000000 -0.30000000
 q=  -0.30000000 -0.50000000  0.00000000
 q=   0.30000000 -0.50000000  0.00000000
 q=   0.50000000  0.00000000 -0.30000000
 q=   0.50000000  0.00000000  0.30000000
 q=  -0.50000000  0.00000000 -0.30000000
 q=  -0.50000000  0.00000000  0.30000000
 q=   0.30000000  0.00000000 -0.50000000
 q=   0.00000000 -0.30000000 -0.50000000
 q=   0.00000000  0.30000000 -0.50000000
 q=   0.30000000  0.50000000  0.00000000
 q=  -0.30000000  0.50000000  0.00000000
  reading force constants from file bcc-li.dyn19
  nqs=           12
 q=   0.00000000  0.60000000 -0.40000000
 q=  -0.60000000  0.00000000 -0.40000000
 q=   0.60000000  0.00000000 -0.40000000
 q=   0.00000000 -0.60000000 -0.40000000
 q=  -0.40000000 -0.60000000  0.00000000
 q=   0.40000000 -0.60000000  0.00000000
 q=  -0.40000000  0.60000000  0.00000000
 q=   0.40000000  0.60000000  0.00000000
 q=   0.60000000  0.00000000  0.40000000
 q=   0.00000000  0.40000000 -0.60000000
 q=   0.00000000 -0.40000000 -0.60000000
 q=   0.40000000  0.00000000 -0.60000000
  reading force constants from file bcc-li.dyn20
  nqs=           24
 q=  -0.10000000 -0.10000000  0.40000000
 q=   0.10000000  0.40000000 -0.10000000
 q=  -0.10000000  0.40000000 -0.10000000
 q=   0.10000000  0.10000000  0.40000000
 q=   0.10000000 -0.10000000  0.40000000
 q=   0.40000000  0.10000000 -0.10000000
 q=  -0.40000000  0.10000000  0.10000000
 q=   0.40000000 -0.10000000  0.10000000
 q=  -0.40000000 -0.10000000 -0.10000000
 q=  -0.10000000 -0.10000000 -0.40000000
 q=  -0.10000000 -0.40000000  0.10000000
 q=  -0.10000000  0.40000000  0.10000000
 q=  -0.10000000 -0.40000000 -0.10000000
 q=   0.10000000 -0.40000000  0.10000000
 q=  -0.10000000  0.10000000  0.40000000
 q=   0.10000000 -0.40000000 -0.10000000
 q=   0.40000000 -0.10000000 -0.10000000
 q=   0.40000000  0.10000000  0.10000000
 q=  -0.40000000  0.10000000 -0.10000000
 q=  -0.40000000 -0.10000000  0.10000000
 q=   0.10000000  0.10000000 -0.40000000
 q=   0.10000000 -0.10000000 -0.40000000
 q=  -0.10000000  0.10000000 -0.40000000
 q=   0.10000000  0.40000000  0.10000000
  reading force constants from file bcc-li.dyn21
  nqs=           48
 q=  -0.10000000 -0.20000000  0.50000000
 q=  -0.20000000 -0.10000000  0.50000000
 q=   0.10000000  0.50000000 -0.20000000
 q=  -0.10000000  0.50000000 -0.20000000
 q=   0.20000000  0.10000000  0.50000000
 q=   0.20000000 -0.10000000  0.50000000
 q=   0.10000000 -0.20000000  0.50000000
 q=   0.10000000  0.20000000  0.50000000
 q=   0.50000000  0.20000000 -0.10000000
 q=  -0.50000000  0.20000000  0.10000000
 q=   0.50000000 -0.20000000  0.10000000
 q=  -0.50000000 -0.20000000 -0.10000000
 q=  -0.20000000 -0.10000000 -0.50000000
 q=  -0.10000000 -0.50000000  0.20000000
 q=  -0.10000000  0.50000000  0.20000000
 q=  -0.10000000 -0.50000000 -0.20000000
 q=   0.10000000 -0.50000000  0.20000000
 q=  -0.20000000  0.10000000  0.50000000
 q=  -0.20000000 -0.50000000  0.10000000
 q=   0.20000000 -0.50000000 -0.10000000
 q=   0.50000000 -0.10000000 -0.20000000
 q=   0.50000000  0.10000000  0.20000000
 q=  -0.50000000  0.10000000 -0.20000000
 q=  -0.50000000 -0.10000000  0.20000000
 q=   0.20000000  0.10000000 -0.50000000
 q=  -0.10000000 -0.20000000 -0.50000000
 q=  -0.50000000 -0.20000000  0.10000000
 q=   0.10000000 -0.20000000 -0.50000000
 q=   0.10000000  0.20000000 -0.50000000
 q=  -0.10000000  0.20000000  0.50000000
 q=   0.20000000 -0.10000000 -0.50000000
 q=  -0.20000000  0.10000000 -0.50000000
 q=   0.20000000  0.50000000  0.10000000
 q=   0.50000000 -0.20000000 -0.10000000
 q=  -0.50000000  0.20000000 -0.10000000
 q=   0.50000000  0.20000000  0.10000000
 q=  -0.10000000  0.20000000 -0.50000000
 q=  -0.20000000  0.50000000 -0.10000000
 q=   0.10000000 -0.50000000 -0.20000000
 q=   0.10000000  0.50000000  0.20000000
 q=   0.20000000 -0.50000000  0.10000000
 q=  -0.20000000 -0.50000000 -0.10000000
 q=   0.20000000  0.50000000 -0.10000000
 q=  -0.20000000  0.50000000  0.10000000
 q=  -0.50000000  0.10000000  0.20000000
 q=  -0.50000000 -0.10000000 -0.20000000
 q=   0.50000000 -0.10000000  0.20000000
 q=   0.50000000  0.10000000 -0.20000000
  reading force constants from file bcc-li.dyn22
  nqs=           48
 q=  -0.10000000  0.70000000 -0.40000000
 q=   0.70000000 -0.10000000 -0.40000000
 q=   0.10000000 -0.40000000  0.70000000
 q=  -0.10000000 -0.40000000  0.70000000
 q=  -0.70000000  0.10000000 -0.40000000
 q=  -0.70000000 -0.10000000 -0.40000000
 q=   0.10000000  0.70000000 -0.40000000
 q=   0.10000000 -0.70000000 -0.40000000
 q=  -0.40000000 -0.70000000 -0.10000000
 q=   0.40000000 -0.70000000  0.10000000
 q=  -0.40000000  0.70000000  0.10000000
 q=   0.40000000  0.70000000 -0.10000000
 q=   0.70000000 -0.10000000  0.40000000
 q=  -0.10000000  0.40000000 -0.70000000
 q=  -0.10000000 -0.40000000 -0.70000000
 q=  -0.10000000  0.40000000  0.70000000
 q=   0.10000000  0.40000000 -0.70000000
 q=   0.70000000  0.10000000 -0.40000000
 q=   0.70000000  0.40000000  0.10000000
 q=  -0.70000000  0.40000000 -0.10000000
 q=  -0.40000000 -0.10000000  0.70000000
 q=  -0.40000000  0.10000000 -0.70000000
 q=   0.40000000  0.10000000  0.70000000
 q=   0.40000000 -0.10000000 -0.70000000
 q=  -0.70000000  0.10000000  0.40000000
 q=  -0.10000000  0.70000000  0.40000000
 q=   0.40000000  0.70000000  0.10000000
 q=   0.10000000  0.70000000  0.40000000
 q=   0.10000000 -0.70000000  0.40000000
 q=  -0.10000000 -0.70000000 -0.40000000
 q=  -0.70000000 -0.10000000  0.40000000
 q=   0.70000000  0.10000000  0.40000000
 q=  -0.70000000 -0.40000000  0.10000000
 q=  -0.40000000  0.70000000 -0.10000000
 q=   0.40000000 -0.70000000 -0.10000000
 q=  -0.40000000 -0.70000000  0.10000000
 q=  -0.10000000 -0.70000000  0.40000000
 q=   0.70000000 -0.40000000 -0.10000000
 q=   0.10000000  0.40000000  0.70000000
 q=   0.10000000 -0.40000000 -0.70000000
 q=  -0.70000000  0.40000000  0.10000000
 q=   0.70000000  0.40000000 -0.10000000
 q=  -0.70000000 -0.40000000 -0.10000000
 q=   0.70000000 -0.40000000  0.10000000
 q=   0.40000000  0.10000000 -0.70000000
 q=   0.40000000 -0.10000000  0.70000000
 q=  -0.40000000 -0.10000000 -0.70000000
 q=  -0.40000000  0.10000000  0.70000000
  reading force constants from file bcc-li.dyn23
  nqs=            8
 q=  -0.20000000  0.20000000  0.20000000
 q=   0.20000000  0.20000000  0.20000000
 q=   0.20000000 -0.20000000  0.20000000
 q=   0.20000000 -0.20000000 -0.20000000
 q=  -0.20000000 -0.20000000  0.20000000
 q=  -0.20000000  0.20000000 -0.20000000
 q=  -0.20000000 -0.20000000 -0.20000000
 q=   0.20000000  0.20000000 -0.20000000
  reading force constants from file bcc-li.dyn24
  nqs=           24
 q=  -0.20000000  0.80000000 -0.40000000
 q=  -0.80000000  0.20000000 -0.40000000
 q=   0.40000000  0.20000000  0.80000000
 q=   0.40000000  0.80000000  0.20000000
 q=  -0.80000000 -0.40000000  0.20000000
 q=   0.20000000  0.80000000 -0.40000000
 q=  -0.40000000 -0.80000000 -0.20000000
 q=   0.40000000 -0.80000000  0.20000000
 q=  -0.40000000  0.80000000  0.20000000
 q=   0.40000000  0.80000000 -0.20000000
 q=   0.80000000 -0.20000000  0.40000000
 q=  -0.20000000  0.40000000 -0.80000000
 q=  -0.20000000 -0.40000000 -0.80000000
 q=  -0.20000000  0.40000000  0.80000000
 q=   0.20000000  0.40000000 -0.80000000
 q=   0.80000000  0.20000000 -0.40000000
 q=  -0.80000000  0.40000000 -0.20000000
 q=  -0.40000000 -0.20000000  0.80000000
 q=  -0.40000000  0.20000000 -0.80000000
 q=  -0.20000000 -0.40000000  0.80000000
 q=  -0.80000000  0.20000000  0.40000000
 q=   0.20000000 -0.40000000  0.80000000
 q=   0.20000000  0.80000000  0.40000000
 q=   0.80000000  0.20000000  0.40000000
  reading force constants from file bcc-li.dyn25
  nqs=           24
 q=  -0.20000000  0.70000000 -0.30000000
 q=  -0.70000000  0.20000000 -0.30000000
 q=   0.30000000  0.70000000  0.20000000
 q=   0.20000000  0.70000000 -0.30000000
 q=   0.20000000 -0.70000000 -0.30000000
 q=  -0.30000000 -0.70000000 -0.20000000
 q=   0.30000000 -0.70000000  0.20000000
 q=  -0.30000000  0.70000000  0.20000000
 q=   0.30000000  0.70000000 -0.20000000
 q=   0.70000000 -0.20000000  0.30000000
 q=  -0.20000000  0.30000000 -0.70000000
 q=  -0.20000000 -0.30000000 -0.70000000
 q=  -0.20000000  0.30000000  0.70000000
 q=   0.20000000  0.30000000 -0.70000000
 q=   0.70000000  0.20000000 -0.30000000
 q=   0.70000000  0.30000000  0.20000000
 q=  -0.70000000  0.30000000 -0.20000000
 q=  -0.30000000 -0.20000000  0.70000000
 q=  -0.30000000  0.20000000 -0.70000000
 q=   0.30000000 -0.20000000 -0.70000000
 q=  -0.70000000  0.20000000  0.30000000
 q=   0.20000000  0.70000000  0.30000000
 q=  -0.70000000 -0.20000000 -0.30000000
 q=  -0.30000000  0.70000000 -0.20000000
  reading force constants from file bcc-li.dyn26
  nqs=           24
 q=  -0.30000000  0.30000000  0.20000000
 q=  -0.30000000  0.20000000  0.30000000
 q=  -0.20000000  0.30000000  0.30000000
 q=   0.30000000  0.30000000  0.20000000
 q=   0.30000000 -0.30000000  0.20000000
 q=   0.20000000 -0.30000000 -0.30000000
 q=  -0.20000000 -0.30000000  0.30000000
 q=   0.20000000  0.30000000  0.30000000
 q=  -0.20000000  0.30000000 -0.30000000
 q=   0.30000000 -0.30000000 -0.20000000
 q=  -0.30000000 -0.20000000 -0.30000000
 q=  -0.30000000  0.20000000 -0.30000000
 q=  -0.30000000 -0.20000000  0.30000000
 q=   0.30000000 -0.20000000 -0.30000000
 q=   0.30000000 -0.20000000  0.30000000
 q=   0.20000000 -0.30000000  0.30000000
 q=   0.20000000  0.30000000 -0.30000000
 q=  -0.20000000 -0.30000000 -0.30000000
 q=  -0.30000000  0.30000000 -0.20000000
 q=   0.30000000  0.20000000  0.30000000
 q=   0.30000000  0.30000000 -0.20000000
 q=  -0.30000000 -0.30000000  0.20000000
 q=  -0.30000000 -0.30000000 -0.20000000
 q=   0.30000000  0.20000000 -0.30000000
  reading force constants from file bcc-li.dyn27
  nqs=           24
 q=   0.60000000 -0.60000000  0.20000000
 q=   0.60000000  0.20000000 -0.60000000
 q=  -0.20000000 -0.60000000 -0.60000000
 q=  -0.60000000 -0.60000000  0.20000000
 q=  -0.60000000  0.60000000  0.20000000
 q=   0.20000000  0.60000000  0.60000000
 q=  -0.20000000  0.60000000 -0.60000000
 q=   0.20000000 -0.60000000 -0.60000000
 q=  -0.20000000 -0.60000000  0.60000000
 q=  -0.60000000  0.60000000 -0.20000000
 q=   0.60000000 -0.20000000  0.60000000
 q=   0.60000000  0.20000000  0.60000000
 q=   0.60000000 -0.20000000 -0.60000000
 q=  -0.60000000 -0.20000000  0.60000000
 q=  -0.60000000 -0.20000000 -0.60000000
 q=   0.20000000  0.60000000 -0.60000000
 q=   0.20000000 -0.60000000  0.60000000
 q=  -0.20000000  0.60000000  0.60000000
 q=   0.60000000 -0.60000000 -0.20000000
 q=  -0.60000000  0.20000000 -0.60000000
 q=  -0.60000000 -0.60000000 -0.20000000
 q=   0.60000000  0.60000000  0.20000000
 q=   0.60000000  0.60000000 -0.20000000
 q=  -0.60000000  0.20000000  0.60000000
  reading force constants from file bcc-li.dyn28
  nqs=           24
 q=   0.60000000 -0.70000000  0.30000000
 q=   0.70000000 -0.60000000  0.30000000
 q=  -0.30000000 -0.70000000 -0.60000000
 q=  -0.60000000 -0.70000000  0.30000000
 q=  -0.60000000  0.70000000  0.30000000
 q=   0.30000000  0.70000000  0.60000000
 q=  -0.30000000  0.70000000 -0.60000000
 q=   0.30000000 -0.70000000 -0.60000000
 q=  -0.30000000 -0.70000000  0.60000000
 q=  -0.70000000  0.60000000 -0.30000000
 q=   0.60000000 -0.30000000  0.70000000
 q=   0.60000000  0.30000000  0.70000000
 q=   0.60000000 -0.30000000 -0.70000000
 q=  -0.60000000 -0.30000000  0.70000000
 q=  -0.70000000 -0.60000000  0.30000000
 q=  -0.70000000 -0.30000000 -0.60000000
 q=   0.70000000 -0.30000000  0.60000000
 q=   0.30000000  0.60000000 -0.70000000
 q=   0.30000000 -0.60000000  0.70000000
 q=  -0.30000000  0.60000000  0.70000000
 q=   0.70000000 -0.60000000 -0.30000000
 q=  -0.60000000 -0.70000000 -0.30000000
 q=   0.70000000  0.60000000  0.30000000
 q=   0.30000000 -0.70000000  0.60000000
  reading force constants from file bcc-li.dyn29
  nqs=           12
 q=   0.50000000 -0.50000000  0.20000000
 q=  -0.50000000 -0.50000000  0.20000000
 q=  -0.50000000  0.20000000 -0.50000000
 q=   0.20000000  0.50000000  0.50000000
 q=  -0.20000000  0.50000000 -0.50000000
 q=  -0.50000000  0.50000000 -0.20000000
 q=   0.50000000 -0.20000000  0.50000000
 q=   0.50000000 -0.20000000 -0.50000000
 q=   0.50000000  0.20000000 -0.50000000
 q=   0.20000000  0.50000000 -0.50000000
 q=  -0.20000000 -0.50000000 -0.50000000
 q=  -0.50000000 -0.50000000 -0.20000000
  reading force constants from file bcc-li.dyn30
  nqs=           48
 q=   0.50000000 -0.60000000  0.30000000
 q=  -0.60000000  0.50000000  0.30000000
 q=  -0.50000000  0.60000000  0.30000000
 q=   0.60000000 -0.50000000  0.30000000
 q=  -0.60000000 -0.50000000  0.30000000
 q=   0.60000000  0.50000000  0.30000000
 q=  -0.50000000 -0.60000000  0.30000000
 q=  -0.50000000  0.30000000 -0.60000000
 q=   0.30000000  0.60000000  0.50000000
 q=  -0.30000000  0.60000000 -0.50000000
 q=   0.30000000 -0.60000000 -0.50000000
 q=  -0.30000000 -0.60000000  0.50000000
 q=  -0.60000000  0.50000000 -0.30000000
 q=   0.50000000 -0.30000000  0.60000000
 q=   0.50000000  0.30000000  0.60000000
 q=   0.50000000 -0.30000000 -0.60000000
 q=   0.50000000  0.60000000  0.30000000
 q=   0.50000000  0.30000000 -0.60000000
 q=  -0.60000000 -0.30000000 -0.50000000
 q=   0.60000000 -0.30000000  0.50000000
 q=   0.30000000  0.50000000 -0.60000000
 q=   0.30000000 -0.50000000  0.60000000
 q=  -0.30000000 -0.50000000 -0.60000000
 q=  -0.30000000  0.50000000  0.60000000
 q=   0.60000000 -0.50000000 -0.30000000
 q=   0.50000000 -0.60000000 -0.30000000
 q=  -0.30000000 -0.60000000 -0.50000000
 q=  -0.50000000 -0.60000000 -0.30000000
 q=  -0.50000000  0.60000000 -0.30000000
 q=  -0.50000000 -0.30000000  0.60000000
 q=   0.60000000  0.50000000 -0.30000000
 q=  -0.60000000 -0.50000000 -0.30000000
 q=   0.60000000  0.30000000 -0.50000000
 q=   0.30000000 -0.60000000  0.50000000
 q=  -0.30000000  0.60000000  0.50000000
 q=   0.30000000  0.60000000 -0.50000000
 q=   0.50000000  0.60000000 -0.30000000
 q=  -0.60000000  0.30000000  0.50000000
 q=  -0.50000000 -0.30000000 -0.60000000
 q=  -0.50000000  0.30000000  0.60000000
 q=   0.60000000 -0.30000000 -0.50000000
 q=  -0.60000000 -0.30000000  0.50000000
 q=   0.60000000  0.30000000  0.50000000
 q=  -0.60000000  0.30000000 -0.50000000
 q=  -0.30000000 -0.50000000  0.60000000
 q=  -0.30000000  0.50000000 -0.60000000
 q=   0.30000000  0.50000000  0.60000000
 q=   0.30000000 -0.50000000 -0.60000000
  reading force constants from file bcc-li.dyn31
  nqs=            8
 q=   0.40000000 -0.60000000  0.40000000
 q=  -0.40000000 -0.60000000  0.40000000
 q=   0.40000000  0.60000000  0.40000000
 q=  -0.40000000  0.60000000 -0.40000000
 q=   0.40000000 -0.60000000 -0.40000000
 q=   0.40000000 -0.40000000  0.60000000
 q=  -0.40000000  0.60000000  0.40000000
 q=  -0.40000000  0.40000000  0.60000000
  reading force constants from file bcc-li.dyn32
  nqs=            6
 q=   0.00000000  0.00000000  0.40000000
 q=   0.40000000  0.00000000  0.00000000
 q=  -0.40000000  0.00000000  0.00000000
 q=   0.00000000  0.00000000 -0.40000000
 q=   0.00000000 -0.40000000  0.00000000
 q=   0.00000000  0.40000000  0.00000000
  reading force constants from file bcc-li.dyn33
  nqs=           24
 q=   0.00000000 -0.10000000  0.50000000
 q=  -0.10000000  0.00000000  0.50000000
 q=   0.00000000  0.10000000  0.50000000
 q=   0.10000000  0.00000000  0.50000000
 q=   0.50000000  0.10000000  0.00000000
 q=  -0.50000000  0.10000000  0.00000000
 q=   0.50000000 -0.10000000  0.00000000
 q=  -0.50000000 -0.10000000  0.00000000
 q=  -0.10000000  0.00000000 -0.50000000
 q=   0.00000000 -0.50000000  0.10000000
 q=   0.00000000  0.50000000  0.10000000
 q=   0.00000000 -0.50000000 -0.10000000
 q=   0.50000000  0.00000000 -0.10000000
 q=  -0.10000000 -0.50000000  0.00000000
 q=   0.10000000 -0.50000000  0.00000000
 q=  -0.10000000  0.50000000  0.00000000
 q=   0.50000000  0.00000000  0.10000000
 q=  -0.50000000  0.00000000 -0.10000000
 q=  -0.50000000  0.00000000  0.10000000
 q=   0.10000000  0.00000000 -0.50000000
 q=   0.00000000 -0.10000000 -0.50000000
 q=   0.00000000  0.10000000 -0.50000000
 q=   0.10000000  0.50000000  0.00000000
 q=   0.00000000  0.50000000 -0.10000000
  reading force constants from file bcc-li.dyn34
  nqs=           24
 q=   0.00000000 -0.20000000  0.60000000
 q=  -0.20000000  0.00000000  0.60000000
 q=   0.00000000  0.20000000  0.60000000
 q=   0.20000000  0.00000000  0.60000000
 q=   0.60000000  0.20000000  0.00000000
 q=  -0.60000000  0.20000000  0.00000000
 q=   0.60000000 -0.20000000  0.00000000
 q=  -0.60000000 -0.20000000  0.00000000
 q=  -0.20000000  0.00000000 -0.60000000
 q=   0.00000000 -0.60000000  0.20000000
 q=   0.00000000  0.60000000  0.20000000
 q=   0.00000000 -0.60000000 -0.20000000
 q=   0.60000000  0.00000000 -0.20000000
 q=  -0.20000000 -0.60000000  0.00000000
 q=   0.20000000 -0.60000000  0.00000000
 q=  -0.20000000  0.60000000  0.00000000
 q=   0.60000000  0.00000000  0.20000000
 q=  -0.60000000  0.00000000 -0.20000000
 q=  -0.60000000  0.00000000  0.20000000
 q=   0.20000000  0.00000000 -0.60000000
 q=   0.00000000 -0.20000000 -0.60000000
 q=   0.00000000  0.20000000 -0.60000000
 q=   0.20000000  0.60000000  0.00000000
 q=   0.00000000  0.60000000 -0.20000000
  reading force constants from file bcc-li.dyn35
  nqs=           12
 q=   0.00000000  0.70000000 -0.30000000
 q=   0.00000000 -0.70000000 -0.30000000
 q=  -0.70000000  0.00000000 -0.30000000
 q=   0.70000000  0.00000000 -0.30000000
 q=  -0.30000000 -0.70000000  0.00000000
 q=   0.30000000 -0.70000000  0.00000000
 q=  -0.30000000  0.70000000  0.00000000
 q=   0.30000000  0.70000000  0.00000000
 q=   0.70000000  0.00000000  0.30000000
 q=   0.00000000  0.30000000 -0.70000000
 q=   0.00000000 -0.30000000 -0.70000000
 q=   0.30000000  0.00000000 -0.70000000
  reading force constants from file bcc-li.dyn36
  nqs=           24
 q=  -0.10000000 -0.10000000  0.60000000
 q=  -0.10000000  0.60000000 -0.10000000
 q=   0.10000000  0.60000000 -0.10000000
 q=   0.10000000  0.10000000  0.60000000
 q=  -0.10000000  0.10000000  0.60000000
 q=   0.10000000 -0.10000000  0.60000000
 q=   0.60000000  0.10000000 -0.10000000
 q=  -0.60000000  0.10000000  0.10000000
 q=   0.60000000 -0.10000000  0.10000000
 q=  -0.60000000 -0.10000000 -0.10000000
 q=  -0.10000000 -0.10000000 -0.60000000
 q=  -0.10000000 -0.60000000  0.10000000
 q=  -0.10000000  0.60000000  0.10000000
 q=  -0.10000000 -0.60000000 -0.10000000
 q=   0.60000000 -0.10000000 -0.10000000
 q=   0.10000000 -0.60000000 -0.10000000
 q=   0.60000000  0.10000000  0.10000000
 q=  -0.60000000  0.10000000 -0.10000000
 q=  -0.60000000 -0.10000000  0.10000000
 q=   0.10000000  0.10000000 -0.60000000
 q=   0.10000000 -0.10000000 -0.60000000
 q=   0.10000000 -0.60000000  0.10000000
 q=  -0.10000000  0.10000000 -0.60000000
 q=   0.10000000  0.60000000  0.10000000
  reading force constants from file bcc-li.dyn37
  nqs=           48
 q=  -0.10000000  0.80000000 -0.30000000
 q=   0.80000000 -0.10000000 -0.30000000
 q=  -0.10000000 -0.30000000  0.80000000
 q=   0.10000000 -0.30000000  0.80000000
 q=   0.10000000 -0.80000000 -0.30000000
 q=  -0.80000000  0.10000000 -0.30000000
 q=   0.80000000  0.10000000 -0.30000000
 q=  -0.80000000 -0.10000000 -0.30000000
 q=  -0.30000000 -0.80000000 -0.10000000
 q=   0.30000000 -0.80000000  0.10000000
 q=  -0.30000000  0.80000000  0.10000000
 q=   0.30000000  0.80000000 -0.10000000
 q=   0.80000000 -0.10000000  0.30000000
 q=  -0.10000000  0.30000000 -0.80000000
 q=  -0.10000000 -0.30000000 -0.80000000
 q=  -0.10000000  0.30000000  0.80000000
 q=  -0.30000000 -0.10000000  0.80000000
 q=  -0.30000000  0.80000000 -0.10000000
 q=   0.80000000  0.30000000  0.10000000
 q=  -0.80000000  0.30000000 -0.10000000
 q=   0.80000000 -0.30000000 -0.10000000
 q=  -0.30000000  0.10000000 -0.80000000
 q=   0.30000000  0.10000000  0.80000000
 q=   0.30000000 -0.10000000 -0.80000000
 q=  -0.80000000  0.10000000  0.30000000
 q=  -0.10000000  0.80000000  0.30000000
 q=   0.30000000  0.80000000  0.10000000
 q=   0.10000000  0.80000000  0.30000000
 q=   0.10000000 -0.80000000  0.30000000
 q=   0.10000000  0.30000000 -0.80000000
 q=  -0.80000000 -0.10000000  0.30000000
 q=   0.80000000  0.10000000  0.30000000
 q=  -0.80000000 -0.30000000  0.10000000
 q=   0.10000000  0.80000000 -0.30000000
 q=   0.30000000 -0.80000000 -0.10000000
 q=  -0.30000000 -0.80000000  0.10000000
 q=  -0.10000000 -0.80000000  0.30000000
 q=  -0.10000000 -0.80000000 -0.30000000
 q=   0.10000000  0.30000000  0.80000000
 q=   0.10000000 -0.30000000 -0.80000000
 q=  -0.80000000  0.30000000  0.10000000
 q=   0.80000000  0.30000000 -0.10000000
 q=  -0.80000000 -0.30000000 -0.10000000
 q=   0.80000000 -0.30000000  0.10000000
 q=   0.30000000  0.10000000 -0.80000000
 q=   0.30000000 -0.10000000  0.80000000
 q=  -0.30000000 -0.10000000 -0.80000000
 q=  -0.30000000  0.10000000  0.80000000
  reading force constants from file bcc-li.dyn38
  nqs=            8
 q=  -0.20000000  0.80000000 -0.20000000
 q=   0.80000000  0.20000000 -0.20000000
 q=  -0.80000000 -0.20000000 -0.20000000
 q=   0.20000000 -0.80000000  0.20000000
 q=  -0.20000000  0.80000000  0.20000000
 q=  -0.20000000  0.20000000 -0.80000000
 q=   0.20000000 -0.80000000 -0.20000000
 q=   0.20000000 -0.20000000 -0.80000000
  reading force constants from file bcc-li.dyn39
  nqs=            8
 q=   0.60000000 -0.60000000  0.40000000
 q=  -0.60000000 -0.60000000  0.40000000
 q=   0.60000000  0.60000000  0.40000000
 q=   0.40000000  0.60000000  0.60000000
 q=  -0.40000000 -0.60000000  0.60000000
 q=   0.60000000 -0.40000000  0.60000000
 q=  -0.60000000  0.60000000  0.40000000
 q=   0.40000000 -0.60000000  0.60000000
  reading force constants from file bcc-li.dyn40
  nqs=           12
 q=   0.50000000 -0.50000000  0.40000000
 q=  -0.40000000 -0.50000000 -0.50000000
 q=   0.50000000  0.40000000 -0.50000000
 q=  -0.50000000 -0.50000000  0.40000000
 q=   0.40000000  0.50000000  0.50000000
 q=  -0.40000000  0.50000000 -0.50000000
 q=  -0.50000000  0.50000000 -0.40000000
 q=   0.50000000 -0.40000000  0.50000000
 q=   0.50000000  0.40000000  0.50000000
 q=   0.50000000 -0.40000000 -0.50000000
 q=   0.40000000 -0.50000000  0.50000000
 q=  -0.50000000 -0.50000000 -0.40000000
  reading force constants from file bcc-li.dyn41
  nqs=            6
 q=   0.00000000  0.00000000  0.60000000
 q=   0.60000000  0.00000000  0.00000000
 q=  -0.60000000  0.00000000  0.00000000
 q=   0.00000000  0.00000000 -0.60000000
 q=   0.00000000 -0.60000000  0.00000000
 q=   0.00000000  0.60000000  0.00000000
  reading force constants from file bcc-li.dyn42
  nqs=           24
 q=   0.00000000 -0.10000000  0.70000000
 q=   0.00000000  0.10000000  0.70000000
 q=  -0.10000000  0.00000000  0.70000000
 q=   0.10000000  0.00000000  0.70000000
 q=   0.70000000  0.10000000  0.00000000
 q=  -0.70000000  0.10000000  0.00000000
 q=   0.70000000 -0.10000000  0.00000000
 q=  -0.70000000 -0.10000000  0.00000000
 q=  -0.10000000  0.00000000 -0.70000000
 q=   0.00000000 -0.70000000  0.10000000
 q=   0.00000000  0.70000000  0.10000000
 q=   0.00000000 -0.70000000 -0.10000000
 q=   0.00000000  0.70000000 -0.10000000
 q=  -0.10000000 -0.70000000  0.00000000
 q=   0.10000000 -0.70000000  0.00000000
 q=  -0.70000000  0.00000000 -0.10000000
 q=   0.70000000  0.00000000  0.10000000
 q=   0.70000000  0.00000000 -0.10000000
 q=  -0.70000000  0.00000000  0.10000000
 q=   0.10000000  0.00000000 -0.70000000
 q=   0.00000000 -0.10000000 -0.70000000
 q=   0.00000000  0.10000000 -0.70000000
 q=  -0.10000000  0.70000000  0.00000000
 q=   0.10000000  0.70000000  0.00000000
  reading force constants from file bcc-li.dyn43
  nqs=           12
 q=   0.00000000  0.80000000 -0.20000000
 q=   0.80000000  0.00000000 -0.20000000
 q=  -0.80000000  0.00000000 -0.20000000
 q=   0.00000000 -0.80000000 -0.20000000
 q=  -0.20000000 -0.80000000  0.00000000
 q=   0.20000000 -0.80000000  0.00000000
 q=  -0.20000000  0.80000000  0.00000000
 q=   0.20000000  0.80000000  0.00000000
 q=   0.80000000  0.00000000  0.20000000
 q=   0.00000000  0.20000000 -0.80000000
 q=   0.00000000 -0.20000000 -0.80000000
 q=   0.20000000  0.00000000 -0.80000000
  reading force constants from file bcc-li.dyn44
  nqs=           24
 q=  -0.10000000  0.90000000 -0.20000000
 q=   0.10000000 -0.20000000  0.90000000
 q=  -0.10000000 -0.20000000  0.90000000
 q=   0.90000000  0.10000000 -0.20000000
 q=  -0.90000000 -0.10000000 -0.20000000
 q=  -0.90000000  0.10000000 -0.20000000
 q=  -0.20000000 -0.90000000 -0.10000000
 q=   0.20000000 -0.90000000  0.10000000
 q=  -0.20000000  0.90000000  0.10000000
 q=   0.20000000  0.90000000 -0.10000000
 q=   0.90000000 -0.10000000  0.20000000
 q=  -0.10000000  0.20000000 -0.90000000
 q=  -0.10000000 -0.20000000 -0.90000000
 q=  -0.10000000  0.20000000  0.90000000
 q=  -0.90000000  0.20000000 -0.10000000
 q=   0.20000000  0.10000000  0.90000000
 q=  -0.20000000  0.10000000 -0.90000000
 q=  -0.20000000 -0.10000000  0.90000000
 q=   0.20000000 -0.10000000 -0.90000000
 q=  -0.90000000  0.10000000  0.20000000
 q=   0.10000000  0.90000000  0.20000000
 q=   0.10000000  0.20000000 -0.90000000
 q=   0.90000000  0.10000000  0.20000000
 q=  -0.90000000 -0.20000000  0.10000000
  reading force constants from file bcc-li.dyn45
  nqs=            6
 q=   0.00000000  0.00000000  0.80000000
 q=   0.80000000  0.00000000  0.00000000
 q=  -0.80000000  0.00000000  0.00000000
 q=   0.00000000  0.00000000 -0.80000000
 q=   0.00000000 -0.80000000  0.00000000
 q=   0.00000000  0.80000000  0.00000000
  reading force constants from file bcc-li.dyn46
  nqs=           12
 q=   0.00000000  0.90000000 -0.10000000
 q=  -0.90000000  0.00000000 -0.10000000
 q=   0.00000000 -0.90000000 -0.10000000
 q=   0.90000000  0.00000000 -0.10000000
 q=  -0.10000000 -0.90000000  0.00000000
 q=   0.10000000 -0.90000000  0.00000000
 q=  -0.10000000  0.90000000  0.00000000
 q=   0.10000000  0.90000000  0.00000000
 q=   0.90000000  0.00000000  0.10000000
 q=   0.00000000  0.10000000 -0.90000000
 q=   0.00000000 -0.10000000 -0.90000000
 q=   0.10000000  0.00000000 -0.90000000
  reading force constants from file bcc-li.dyn47
  nqs=            1
 q=   0.00000000  0.00000000 -1.00000000

      q-space grid ok, #points = 1000

      fft-check success (sum of imaginary terms < 10^-12)

     Q2R          :     0.04s CPU         0.05s WALL


   This run was terminated on:   9:24:18  19Aug2016            

=------------------------------------------------------------------------------=
   JOB DONE.
=------------------------------------------------------------------------------=
