
     Program PWSCF v.6.1 (svn rev. 13369) starts on 28Jan2018 at 23:45:19 

     This program is part of the open-source Quantum ESPRESSO suite
     for quantum simulation of materials; please cite
         "P. Giannozzi et al., J. Phys.:Condens. Matter 21 395502 (2009);
          URL http://www.quantum-espresso.org", 
     in publications or presentations arising from this work. More details at
     http://www.quantum-espresso.org/quote

     Parallel version (MPI), running on    64 processors
     K-points division:     npool     =       4
     R & G space division:  proc/nbgrp/npool/nimage =      16
     Waiting for input...
     Reading input from standard input

     Current dimensions of program PWSCF are:
     Max number of different atomic species (ntypx) = 10
     Max number of k-points (npk) =  80000
     Max angular momentum in pseudopotentials (lmaxx) =  3

     Subspace diagonalization in iterative solution of the eigenvalue problem:
     a serial algorithm will be used


     Parallelization info
     --------------------
     sticks:   dense  smooth     PW     G-vecs:    dense   smooth      PW
     Min          53      27      9                 1052      372      76
     Max          54      28     10                 1055      375      79
     Sum         859     433    151                16865     5961    1243



     bravais-lattice index     =            2
     lattice parameter (alat)  =       8.8701  a.u.
     unit-cell volume          =     174.4745 (a.u.)^3
     number of atoms/cell      =            1
     number of atomic types    =            1
     number of electrons       =         9.00
     number of Kohn-Sham states=            9
     kinetic-energy cutoff     =      40.0000  Ry
     charge density cutoff     =     320.0000  Ry
     convergence threshold     =      1.0E-10
     mixing beta               =       0.7000
     number of iterations used =            8  plain     mixing
     Exchange-correlation      = SLA  PW   PBE  PBE ( 1  4  3  4 0 0)

     celldm(1)=   8.870143  celldm(2)=   0.000000  celldm(3)=   0.000000
     celldm(4)=   0.000000  celldm(5)=   0.000000  celldm(6)=   0.000000

     crystal axes: (cart. coord. in units of alat)
               a(1) = (  -0.500000   0.000000   0.500000 )  
               a(2) = (   0.000000   0.500000   0.500000 )  
               a(3) = (  -0.500000   0.500000   0.000000 )  

     reciprocal axes: (cart. coord. in units 2 pi/alat)
               b(1) = ( -1.000000 -1.000000  1.000000 )  
               b(2) = (  1.000000  1.000000  1.000000 )  
               b(3) = ( -1.000000  1.000000 -1.000000 )  


     PseudoPot. # 1 for Na read from file:
     /home/s1333534/quantum_espresso/qe-6.1/pseudo/Na_pbe_v1.uspp.F.UPF
     MD5 check sum: 76a99c7e9422403d3e93cbc85ab7bccb
     Pseudo is Ultrasoft, Zval =  9.0
     Generated by new atomic code, or converted to UPF format
     Using radial grid of  819 points,  5 beta functions with: 
                l(1) =   0
                l(2) =   0
                l(3) =   1
                l(4) =   1
                l(5) =   2
     Q(r) pseudized with  8 coefficients,  rinner =    1.250   1.250   1.250
                                                       1.250   1.250

     atomic species   valence    mass     pseudopotential
        Na             9.00    22.99000     Na( 1.00)

     48 Sym. Ops., with inversion, found



   Cartesian axes

     site n.     atom                  positions (alat units)
         1           Na  tau(   1) = (   0.0000000   0.0000000   0.0000000  )

     number of k points=   770  Marzari-Vanderbilt smearing, width (Ry)=  0.0200

     Number of k-points >= 100: set verbosity='high' to print them.

     Dense  grid:    16865 G-vectors     FFT dimensions: (  36,  36,  36)

     Smooth grid:     5961 G-vectors     FFT dimensions: (  25,  25,  25)

     Estimated max dynamical RAM per process >       2.01MB

     Estimated total allocated dynamical RAM >     128.65MB

     Initial potential from superposition of free atoms

     starting charge    8.99371, renormalised to    9.00000
     Starting wfc are    5 randomized atomic wfcs +    4 random wfc

     total cpu time spent up to now is        0.8 secs

     per-process dynamical memory:     8.1 Mb

     Self-consistent Calculation

     iteration #  1     ecut=    40.00 Ry     beta=0.70
     Davidson diagonalization with overlap
     ethr =  1.00E-02,  avg # of iterations =  5.3

     Threshold (ethr) on eigenvalues was too large:
     Diagonalizing with lowered threshold

     Davidson diagonalization with overlap
     ethr =  1.40E-05,  avg # of iterations =  3.3

     total cpu time spent up to now is        6.2 secs

     total energy              =     -95.09594583 Ry
     Harris-Foulkes estimate   =     -95.09638211 Ry
     estimated scf accuracy    <       0.00126042 Ry

     iteration #  2     ecut=    40.00 Ry     beta=0.70
     Davidson diagonalization with overlap
     ethr =  1.40E-05,  avg # of iterations =  2.0

     total cpu time spent up to now is        8.0 secs

     total energy              =     -95.09610694 Ry
     Harris-Foulkes estimate   =     -95.09614288 Ry
     estimated scf accuracy    <       0.00014113 Ry

     iteration #  3     ecut=    40.00 Ry     beta=0.70
     Davidson diagonalization with overlap
     ethr =  1.57E-06,  avg # of iterations =  2.1

     total cpu time spent up to now is        9.7 secs

     total energy              =     -95.09612455 Ry
     Harris-Foulkes estimate   =     -95.09612573 Ry
     estimated scf accuracy    <       0.00000821 Ry

     iteration #  4     ecut=    40.00 Ry     beta=0.70
     Davidson diagonalization with overlap
     ethr =  9.13E-08,  avg # of iterations =  1.0

     total cpu time spent up to now is       11.0 secs

     total energy              =     -95.09612531 Ry
     Harris-Foulkes estimate   =     -95.09612524 Ry
     estimated scf accuracy    <       0.00000001 Ry

     iteration #  5     ecut=    40.00 Ry     beta=0.70
     Davidson diagonalization with overlap
     ethr =  1.25E-10,  avg # of iterations =  3.0

     total cpu time spent up to now is       13.1 secs

     total energy              =     -95.09612535 Ry
     Harris-Foulkes estimate   =     -95.09612534 Ry
     estimated scf accuracy    <          1.7E-09 Ry

     iteration #  6     ecut=    40.00 Ry     beta=0.70
     Davidson diagonalization with overlap
     ethr =  1.94E-11,  avg # of iterations =  1.6

     total cpu time spent up to now is       14.6 secs

     End of self-consistent calculation

     Number of k-points >= 100: set verbosity='high' to print the bands.

     the Fermi energy is     3.4366 ev

!    total energy              =     -95.09612535 Ry
     Harris-Foulkes estimate   =     -95.09612535 Ry
     estimated scf accuracy    <          9.3E-11 Ry

     The total energy is the sum of the following terms:

     one-electron contribution =     -79.87297926 Ry
     hartree contribution      =      40.96543023 Ry
     xc contribution           =     -14.32069134 Ry
     ewald contribution        =     -41.86784951 Ry
     smearing contrib. (-TS)   =      -0.00003546 Ry

     convergence has been achieved in   6 iterations


     Computing stress (Cartesian axis) and pressure

          total   stress  (Ry/bohr**3)                   (kbar)     P=   50.38
   0.00034246  -0.00000000  -0.00000000         50.38     -0.00     -0.00
  -0.00000000   0.00034246   0.00000000         -0.00     50.38      0.00
  -0.00000000   0.00000000   0.00034246         -0.00      0.00     50.38


     Writing output data file na.fcc.save

     init_run     :      0.55s CPU      0.61s WALL (       1 calls)
     electrons    :     12.65s CPU     13.80s WALL (       1 calls)
     stress       :      0.31s CPU      0.31s WALL (       1 calls)

     Called by init_run:
     wfcinit      :      0.38s CPU      0.42s WALL (       1 calls)
     potinit      :      0.02s CPU      0.02s WALL (       1 calls)

     Called by electrons:
     c_bands      :     11.00s CPU     12.05s WALL (       7 calls)
     sum_band     :      1.52s CPU      1.62s WALL (       7 calls)
     v_of_rho     :      0.06s CPU      0.06s WALL (       7 calls)
     newd         :      0.05s CPU      0.05s WALL (       7 calls)
     mix_rho      :      0.01s CPU      0.01s WALL (       7 calls)

     Called by c_bands:
     init_us_2    :      0.18s CPU      0.19s WALL (    3088 calls)
     cegterg      :      9.56s CPU     10.58s WALL (    1351 calls)

     Called by sum_band:
     sum_band:bec :      0.01s CPU      0.02s WALL (    1351 calls)
     addusdens    :      0.06s CPU      0.06s WALL (       7 calls)

     Called by *egterg:
     h_psi        :      6.38s CPU      6.94s WALL (    5203 calls)
     s_psi        :      0.09s CPU      0.10s WALL (    5203 calls)
     g_psi        :      0.02s CPU      0.03s WALL (    3659 calls)
     cdiaghg      :      2.04s CPU      2.25s WALL (    4817 calls)

     Called by h_psi:
     h_psi:pot    :      6.34s CPU      6.90s WALL (    5203 calls)
     h_psi:calbec :      0.34s CPU      0.37s WALL (    5203 calls)
     vloc_psi     :      5.86s CPU      6.37s WALL (    5203 calls)
     add_vuspsi   :      0.10s CPU      0.11s WALL (    5203 calls)

     General routines
     calbec       :      0.44s CPU      0.48s WALL (    6747 calls)
     fft          :      0.05s CPU      0.06s WALL (     117 calls)
     ffts         :      0.00s CPU      0.00s WALL (      14 calls)
     fftw         :      6.14s CPU      6.66s WALL (   77773 calls)
     interpolate  :      0.01s CPU      0.01s WALL (      14 calls)
     davcio       :      0.00s CPU      0.08s WALL (     193 calls)

     Parallel routines
     fft_scatter  :      3.47s CPU      3.77s WALL (   77904 calls)

     PWSCF        :    16.55s CPU        18.00s WALL


   This run was terminated on:  23:45:37  28Jan2018            

=------------------------------------------------------------------------------=
   JOB DONE.
=------------------------------------------------------------------------------=
