
     Program PHONON v.6.1 (svn rev. 13369) starts on 28Jan2018 at 23:45:38 

     This program is part of the open-source Quantum ESPRESSO suite
     for quantum simulation of materials; please cite
         "P. Giannozzi et al., J. Phys.:Condens. Matter 21 395502 (2009);
          URL http://www.quantum-espresso.org", 
     in publications or presentations arising from this work. More details at
     http://www.quantum-espresso.org/quote

     Parallel version (MPI), running on    64 processors
     K-points division:     npool     =       4
     R & G space division:  proc/nbgrp/npool/nimage =      16

     Reading data from directory:
     ./na.fcc.save

   Info: using nr1, nr2, nr3 values from input

   Info: using nr1, nr2, nr3 values from input

     IMPORTANT: XC functional enforced from input :
     Exchange-correlation      = SLA  PW   PBE  PBE ( 1  4  3  4 0 0)
     Any further DFT definition will be discarded
     Please, verify this is what you really want


     Parallelization info
     --------------------
     sticks:   dense  smooth     PW     G-vecs:    dense   smooth      PW
     Min          53      27      9                 1052      372      76
     Max          54      28     10                 1055      375      79
     Sum         859     433    151                16865     5961    1243



     Dynamical matrices for ( 6, 6, 6)  uniform grid of q-points
     (  16q-points):
       N         xq(1)         xq(2)         xq(3) 
       1   0.000000000   0.000000000   0.000000000
       2  -0.166666667   0.166666667  -0.166666667
       3  -0.333333333   0.333333333  -0.333333333
       4   0.500000000  -0.500000000   0.500000000
       5   0.000000000   0.333333333   0.000000000
       6  -0.166666667   0.500000000  -0.166666667
       7   0.666666667  -0.333333333   0.666666667
       8   0.500000000  -0.166666667   0.500000000
       9   0.333333333   0.000000000   0.333333333
      10   0.000000000   0.666666667   0.000000000
      11   0.833333333  -0.166666667   0.833333333
      12   0.666666667  -0.000000000   0.666666667
      13   0.000000000  -1.000000000   0.000000000
      14   0.666666667  -0.333333333   1.000000000
      15   0.500000000  -0.166666667   0.833333333
      16  -0.333333333  -1.000000000   0.000000000

     Calculation of q =    0.0000000   0.0000000   0.0000000

                                                                                

     bravais-lattice index     =            2
     lattice parameter (alat)  =       8.8701  a.u.
     unit-cell volume          =     174.4745 (a.u.)^3
     number of atoms/cell      =            1
     number of atomic types    =            1
     kinetic-energy cut-off    =      40.0000  Ry
     charge density cut-off    =     320.0000  Ry
     convergence threshold     =      1.0E-16
     beta                      =       0.7000
     number of iterations used =            4
     Exchange-correlation      = SLA  PW   PBE  PBE ( 1  4  3  4 0 0)


     celldm(1)=    8.87014  celldm(2)=    0.00000  celldm(3)=    0.00000
     celldm(4)=    0.00000  celldm(5)=    0.00000  celldm(6)=    0.00000

     crystal axes: (cart. coord. in units of alat)
               a(1) = ( -0.5000  0.0000  0.5000 )  
               a(2) = (  0.0000  0.5000  0.5000 )  
               a(3) = ( -0.5000  0.5000  0.0000 )  

     reciprocal axes: (cart. coord. in units 2 pi/alat)
               b(1) = ( -1.0000 -1.0000  1.0000 )  
               b(2) = (  1.0000  1.0000  1.0000 )  
               b(3) = ( -1.0000  1.0000 -1.0000 )  


     Atoms inside the unit cell: 

     Cartesian axes

     site n.  atom      mass           positions (alat units)
        1     Na  22.9900   tau(    1) = (    0.00000    0.00000    0.00000  )

     Computing dynamical matrix for 
                    q = (   0.0000000   0.0000000   0.0000000 )

     49 Sym.Ops. (with q -> -q+G )


     G cutoff =  637.7515  (   1053 G-vectors)     FFT grid: ( 36, 36, 36)
     G cutoff =  318.8758  (    374 G-vectors)  smooth grid: ( 25, 25, 25)

     number of k points=   770  Marzari-Vanderbilt smearing, width (Ry)=  0.0200

     PseudoPot. # 1 for Na read from file:
     /home/s1333534/quantum_espresso/qe-6.1/pseudo/Na_pbe_v1.uspp.F.UPF
     MD5 check sum: 76a99c7e9422403d3e93cbc85ab7bccb
     Pseudo is Ultrasoft, Zval =  9.0
     Generated by new atomic code, or converted to UPF format
     Using radial grid of  819 points,  5 beta functions with: 
                l(1) =   0
                l(2) =   0
                l(3) =   1
                l(4) =   1
                l(5) =   2
     Q(r) pseudized with  8 coefficients,  rinner =    1.250   1.250   1.250
                                                       1.250   1.250

     Mode symmetry, O_h (m-3m)  point group:


     Atomic displacements:
     There are   1 irreducible representations

     Representation     1      3 modes -T_1u G_15  G_4-  To be done



     Alpha used in Ewald sum =   2.8000
     PHONON       :     7.17s CPU         7.67s WALL



     Representation #  1 modes #   1  2  3

     Self-consistent Calculation

     Pert. #  1: Fermi energy shift (Ry) =     2.3523E-24     1.5673E-38
     Pert. #  2: Fermi energy shift (Ry) =     4.5236E-25    -8.6203E-38
     Pert. #  3: Fermi energy shift (Ry) =    -1.0211E-24     1.4106E-37

      iter #   1 total cpu time :    14.9 secs   av.it.:   5.4
      thresh= 1.000E-02 alpha_mix =  0.700 |ddv_scf|^2 =  1.406E-06

     Pert. #  1: Fermi energy shift (Ry) =     1.0340E-25    -2.6938E-39
     Pert. #  2: Fermi energy shift (Ry) =    -1.1632E-25    -1.8367E-39
     Pert. #  3: Fermi energy shift (Ry) =     1.7664E-25    -1.2245E-39

      iter #   2 total cpu time :    23.3 secs   av.it.:   8.5
      thresh= 1.186E-04 alpha_mix =  0.700 |ddv_scf|^2 =  2.741E-08

     Pert. #  1: Fermi energy shift (Ry) =    -4.0928E-26    -3.0612E-41
     Pert. #  2: Fermi energy shift (Ry) =     0.0000E+00     1.6837E-40
     Pert. #  3: Fermi energy shift (Ry) =     2.4772E-26    -2.7551E-40

      iter #   3 total cpu time :    31.8 secs   av.it.:   8.6
      thresh= 1.655E-05 alpha_mix =  0.700 |ddv_scf|^2 =  3.086E-10

     Pert. #  1: Fermi energy shift (Ry) =    -4.3082E-27     0.0000E+00
     Pert. #  2: Fermi energy shift (Ry) =    -5.9238E-27     9.5662E-42
     Pert. #  3: Fermi energy shift (Ry) =    -2.2080E-26     3.8265E-42

      iter #   4 total cpu time :    40.5 secs   av.it.:   8.1
      thresh= 1.757E-06 alpha_mix =  0.700 |ddv_scf|^2 =  1.134E-12

     Pert. #  1: Fermi energy shift (Ry) =    -2.5849E-26    -9.5662E-43
     Pert. #  2: Fermi energy shift (Ry) =    -1.4540E-26     5.2614E-42
     Pert. #  3: Fermi energy shift (Ry) =    -1.7771E-26    -8.6096E-42

      iter #   5 total cpu time :    49.1 secs   av.it.:   8.4
      thresh= 1.065E-07 alpha_mix =  0.700 |ddv_scf|^2 =  4.153E-15

     Pert. #  1: Fermi energy shift (Ry) =    -1.7233E-26    -1.2436E-41
     Pert. #  2: Fermi energy shift (Ry) =    -4.3082E-27    -1.4349E-42
     Pert. #  3: Fermi energy shift (Ry) =     1.6156E-27    -1.2436E-41

      iter #   6 total cpu time :    57.5 secs   av.it.:   8.3
      thresh= 6.444E-09 alpha_mix =  0.700 |ddv_scf|^2 =  4.335E-17

     End of self-consistent calculation

     Convergence has been achieved 

     Number of q in the star =    1
     List of q in the star:
          1   0.000000000   0.000000000   0.000000000

     Diagonalizing the dynamical matrix

     q = (    0.000000000   0.000000000   0.000000000 ) 

 **************************************************************************
     freq (    1) =      -0.168667 [THz] =      -5.626131 [cm-1]
     freq (    2) =      -0.168667 [THz] =      -5.626131 [cm-1]
     freq (    3) =      -0.168667 [THz] =      -5.626131 [cm-1]
 **************************************************************************

     Mode symmetry, O_h (m-3m)  point group:

     freq (  1 -  3) =         -5.6  [cm-1]   --> T_1u G_15  G_4- I  

     Calculation of q =   -0.1666667   0.1666667  -0.1666667

   Info: using nr1, nr2, nr3 values from input

   Info: using nr1, nr2, nr3 values from input

     Parallelization info
     --------------------
     sticks:   dense  smooth     PW     G-vecs:    dense   smooth      PW
     Min          53      27     10                 1052      372      80
     Max          54      28     11                 1055      375      82
     Sum         859     433    163                16865     5961    1291



     bravais-lattice index     =            2
     lattice parameter (alat)  =       8.8701  a.u.
     unit-cell volume          =     174.4745 (a.u.)^3
     number of atoms/cell      =            1
     number of atomic types    =            1
     number of electrons       =         9.00
     number of Kohn-Sham states=            9
     kinetic-energy cutoff     =      40.0000  Ry
     charge density cutoff     =     320.0000  Ry
     Exchange-correlation      = SLA  PW   PBE  PBE ( 1  4  3  4 0 0)

     celldm(1)=   8.870143  celldm(2)=   0.000000  celldm(3)=   0.000000
     celldm(4)=   0.000000  celldm(5)=   0.000000  celldm(6)=   0.000000

     crystal axes: (cart. coord. in units of alat)
               a(1) = (  -0.500000   0.000000   0.500000 )  
               a(2) = (   0.000000   0.500000   0.500000 )  
               a(3) = (  -0.500000   0.500000   0.000000 )  

     reciprocal axes: (cart. coord. in units 2 pi/alat)
               b(1) = ( -1.000000 -1.000000  1.000000 )  
               b(2) = (  1.000000  1.000000  1.000000 )  
               b(3) = ( -1.000000  1.000000 -1.000000 )  


     PseudoPot. # 1 for Na read from file:
     /home/s1333534/quantum_espresso/qe-6.1/pseudo/Na_pbe_v1.uspp.F.UPF
     MD5 check sum: 76a99c7e9422403d3e93cbc85ab7bccb
     Pseudo is Ultrasoft, Zval =  9.0
     Generated by new atomic code, or converted to UPF format
     Using radial grid of  819 points,  5 beta functions with: 
                l(1) =   0
                l(2) =   0
                l(3) =   1
                l(4) =   1
                l(5) =   2
     Q(r) pseudized with  8 coefficients,  rinner =    1.250   1.250   1.250
                                                       1.250   1.250

     atomic species   valence    mass     pseudopotential
        Na             9.00    22.99000     Na( 1.00)

     48 Sym. Ops., with inversion, found



   Cartesian axes

     site n.     atom                  positions (alat units)
         1           Na  tau(   1) = (   0.0000000   0.0000000   0.0000000  )

     number of k points= 11480  Marzari-Vanderbilt smearing, width (Ry)=  0.0200

     Number of k-points >= 100: set verbosity='high' to print them.

     Dense  grid:    16865 G-vectors     FFT dimensions: (  36,  36,  36)

     Smooth grid:     5961 G-vectors     FFT dimensions: (  25,  25,  25)

     Estimated max dynamical RAM per process >       0.58MB

     Estimated total allocated dynamical RAM >      37.06MB

     The potential is recalculated from file :
     ./_ph0/na.fcc.save/charge-density.dat

     Starting wfc are    5 atomic +    4 random wfc

     Band Structure Calculation
     Davidson diagonalization with overlap

     ethr =  1.11E-10,  avg # of iterations = 17.5

     total cpu time spent up to now is      136.1 secs

     End of band structure calculation

     Number of k-points >= 100: set verbosity='high' to print the bands.

     the Fermi energy is     3.4366 ev

     Writing output data file na.fcc.save

                                                                                

     bravais-lattice index     =            2
     lattice parameter (alat)  =       8.8701  a.u.
     unit-cell volume          =     174.4745 (a.u.)^3
     number of atoms/cell      =            1
     number of atomic types    =            1
     kinetic-energy cut-off    =      40.0000  Ry
     charge density cut-off    =     320.0000  Ry
     convergence threshold     =      1.0E-16
     beta                      =       0.7000
     number of iterations used =            4
     Exchange-correlation      = SLA  PW   PBE  PBE ( 1  4  3  4 0 0)


     celldm(1)=    8.87014  celldm(2)=    0.00000  celldm(3)=    0.00000
     celldm(4)=    0.00000  celldm(5)=    0.00000  celldm(6)=    0.00000

     crystal axes: (cart. coord. in units of alat)
               a(1) = ( -0.5000  0.0000  0.5000 )  
               a(2) = (  0.0000  0.5000  0.5000 )  
               a(3) = ( -0.5000  0.5000  0.0000 )  

     reciprocal axes: (cart. coord. in units 2 pi/alat)
               b(1) = ( -1.0000 -1.0000  1.0000 )  
               b(2) = (  1.0000  1.0000  1.0000 )  
               b(3) = ( -1.0000  1.0000 -1.0000 )  


     Atoms inside the unit cell: 

     Cartesian axes

     site n.  atom      mass           positions (alat units)
        1     Na  22.9900   tau(    1) = (    0.00000    0.00000    0.00000  )

     Computing dynamical matrix for 
                    q = (  -0.1666667   0.1666667  -0.1666667 )

      6 Sym.Ops. (no q -> -q+G )


     G cutoff =  637.7515  (   1053 G-vectors)     FFT grid: ( 36, 36, 36)
     G cutoff =  318.8758  (    374 G-vectors)  smooth grid: ( 25, 25, 25)

     number of k points= 11480  Marzari-Vanderbilt smearing, width (Ry)=  0.0200

     PseudoPot. # 1 for Na read from file:
     /home/s1333534/quantum_espresso/qe-6.1/pseudo/Na_pbe_v1.uspp.F.UPF
     MD5 check sum: 76a99c7e9422403d3e93cbc85ab7bccb
     Pseudo is Ultrasoft, Zval =  9.0
     Generated by new atomic code, or converted to UPF format
     Using radial grid of  819 points,  5 beta functions with: 
                l(1) =   0
                l(2) =   0
                l(3) =   1
                l(4) =   1
                l(5) =   2
     Q(r) pseudized with  8 coefficients,  rinner =    1.250   1.250   1.250
                                                       1.250   1.250

     Mode symmetry, C_3v (3m)   point group:


     Atomic displacements:
     There are   2 irreducible representations

     Representation     1      1 modes -A_1  L_1  To be done

     Representation     2      2 modes -E    L_3  To be done



     Alpha used in Ewald sum =   2.8000
     PHONON       :  3m40.35s CPU     3m55.52s WALL



     Representation #  1 mode #   1

     Self-consistent Calculation

      iter #   1 total cpu time :   253.1 secs   av.it.:   5.7
      thresh= 1.000E-02 alpha_mix =  0.700 |ddv_scf|^2 =  4.116E-02

      iter #   2 total cpu time :   270.3 secs   av.it.:   6.7
      thresh= 1.000E-02 alpha_mix =  0.700 |ddv_scf|^2 =  5.850E+00

      iter #   3 total cpu time :   287.8 secs   av.it.:   6.8
      thresh= 1.000E-02 alpha_mix =  0.700 |ddv_scf|^2 =  6.118E-07

      iter #   4 total cpu time :   306.8 secs   av.it.:   7.7
      thresh= 7.822E-05 alpha_mix =  0.700 |ddv_scf|^2 =  9.406E-08

      iter #   5 total cpu time :   325.2 secs   av.it.:   7.5
      thresh= 3.067E-05 alpha_mix =  0.700 |ddv_scf|^2 =  5.530E-09

      iter #   6 total cpu time :   343.6 secs   av.it.:   7.4
      thresh= 7.437E-06 alpha_mix =  0.700 |ddv_scf|^2 =  6.292E-09

      iter #   7 total cpu time :   357.1 secs   av.it.:   4.9
      thresh= 7.932E-06 alpha_mix =  0.700 |ddv_scf|^2 =  3.438E-09

      iter #   8 total cpu time :   373.6 secs   av.it.:   6.5
      thresh= 5.864E-06 alpha_mix =  0.700 |ddv_scf|^2 =  4.707E-11

      iter #   9 total cpu time :   391.4 secs   av.it.:   7.3
      thresh= 6.861E-07 alpha_mix =  0.700 |ddv_scf|^2 =  1.251E-12

      iter #  10 total cpu time :   409.6 secs   av.it.:   7.3
      thresh= 1.119E-07 alpha_mix =  0.700 |ddv_scf|^2 =  1.149E-13

      iter #  11 total cpu time :   427.2 secs   av.it.:   7.2
      thresh= 3.390E-08 alpha_mix =  0.700 |ddv_scf|^2 =  5.128E-16

      iter #  12 total cpu time :   446.6 secs   av.it.:   8.0
      thresh= 2.264E-09 alpha_mix =  0.700 |ddv_scf|^2 =  4.958E-16

      iter #  13 total cpu time :   464.4 secs   av.it.:   7.1
      thresh= 2.227E-09 alpha_mix =  0.700 |ddv_scf|^2 =  7.361E-15

      iter #  14 total cpu time :   479.6 secs   av.it.:   5.6
      thresh= 8.580E-09 alpha_mix =  0.700 |ddv_scf|^2 =  9.738E-18

     End of self-consistent calculation

     Convergence has been achieved 


     Representation #  2 modes #   2  3

     Self-consistent Calculation

      iter #   1 total cpu time :   514.7 secs   av.it.:   5.6
      thresh= 1.000E-02 alpha_mix =  0.700 |ddv_scf|^2 =  3.222E-06

      iter #   2 total cpu time :   555.2 secs   av.it.:   8.4
      thresh= 1.795E-04 alpha_mix =  0.700 |ddv_scf|^2 =  6.112E-08

      iter #   3 total cpu time :   596.2 secs   av.it.:   8.6
      thresh= 2.472E-05 alpha_mix =  0.700 |ddv_scf|^2 =  8.104E-10

      iter #   4 total cpu time :   636.4 secs   av.it.:   8.3
      thresh= 2.847E-06 alpha_mix =  0.700 |ddv_scf|^2 =  2.967E-12

      iter #   5 total cpu time :   677.2 secs   av.it.:   8.5
      thresh= 1.723E-07 alpha_mix =  0.700 |ddv_scf|^2 =  9.117E-15

      iter #   6 total cpu time :   717.7 secs   av.it.:   8.2
      thresh= 9.548E-09 alpha_mix =  0.700 |ddv_scf|^2 =  1.534E-16

      iter #   7 total cpu time :   758.2 secs   av.it.:   8.6
      thresh= 1.238E-09 alpha_mix =  0.700 |ddv_scf|^2 =  1.423E-19

     End of self-consistent calculation

     Convergence has been achieved 

     Number of q in the star =    8
     List of q in the star:
          1  -0.166666667   0.166666667  -0.166666667
          2   0.166666667   0.166666667   0.166666667
          3  -0.166666667  -0.166666667  -0.166666667
          4   0.166666667  -0.166666667   0.166666667
          5   0.166666667  -0.166666667  -0.166666667
          6   0.166666667   0.166666667  -0.166666667
          7  -0.166666667  -0.166666667   0.166666667
          8  -0.166666667   0.166666667   0.166666667

     Diagonalizing the dynamical matrix

     q = (   -0.166666667   0.166666667  -0.166666667 ) 

 **************************************************************************
     freq (    1) =       1.052268 [THz] =      35.099891 [cm-1]
     freq (    2) =       1.052268 [THz] =      35.099891 [cm-1]
     freq (    3) =       3.117662 [THz] =     103.994017 [cm-1]
 **************************************************************************

     Mode symmetry, C_3v (3m)   point group:

     freq (  1 -  2) =         35.1  [cm-1]   --> E    L_3           
     freq (  3 -  3) =        104.0  [cm-1]   --> A_1  L_1           

     Calculation of q =   -0.3333333   0.3333333  -0.3333333

   Info: using nr1, nr2, nr3 values from input

   Info: using nr1, nr2, nr3 values from input

     Parallelization info
     --------------------
     sticks:   dense  smooth     PW     G-vecs:    dense   smooth      PW
     Min          53      27     10                 1052      372      87
     Max          54      28     11                 1055      375      90
     Sum         859     433    163                16865     5961    1411



     bravais-lattice index     =            2
     lattice parameter (alat)  =       8.8701  a.u.
     unit-cell volume          =     174.4745 (a.u.)^3
     number of atoms/cell      =            1
     number of atomic types    =            1
     number of electrons       =         9.00
     number of Kohn-Sham states=            9
     kinetic-energy cutoff     =      40.0000  Ry
     charge density cutoff     =     320.0000  Ry
     Exchange-correlation      = SLA  PW   PBE  PBE ( 1  4  3  4 0 0)

     celldm(1)=   8.870143  celldm(2)=   0.000000  celldm(3)=   0.000000
     celldm(4)=   0.000000  celldm(5)=   0.000000  celldm(6)=   0.000000

     crystal axes: (cart. coord. in units of alat)
               a(1) = (  -0.500000   0.000000   0.500000 )  
               a(2) = (   0.000000   0.500000   0.500000 )  
               a(3) = (  -0.500000   0.500000   0.000000 )  

     reciprocal axes: (cart. coord. in units 2 pi/alat)
               b(1) = ( -1.000000 -1.000000  1.000000 )  
               b(2) = (  1.000000  1.000000  1.000000 )  
               b(3) = ( -1.000000  1.000000 -1.000000 )  


     PseudoPot. # 1 for Na read from file:
     /home/s1333534/quantum_espresso/qe-6.1/pseudo/Na_pbe_v1.uspp.F.UPF
     MD5 check sum: 76a99c7e9422403d3e93cbc85ab7bccb
     Pseudo is Ultrasoft, Zval =  9.0
     Generated by new atomic code, or converted to UPF format
     Using radial grid of  819 points,  5 beta functions with: 
                l(1) =   0
                l(2) =   0
                l(3) =   1
                l(4) =   1
                l(5) =   2
     Q(r) pseudized with  8 coefficients,  rinner =    1.250   1.250   1.250
                                                       1.250   1.250

     atomic species   valence    mass     pseudopotential
        Na             9.00    22.99000     Na( 1.00)

     48 Sym. Ops., with inversion, found



   Cartesian axes

     site n.     atom                  positions (alat units)
         1           Na  tau(   1) = (   0.0000000   0.0000000   0.0000000  )

     number of k points= 11480  Marzari-Vanderbilt smearing, width (Ry)=  0.0200

     Number of k-points >= 100: set verbosity='high' to print them.

     Dense  grid:    16865 G-vectors     FFT dimensions: (  36,  36,  36)

     Smooth grid:     5961 G-vectors     FFT dimensions: (  25,  25,  25)

     Estimated max dynamical RAM per process >       0.58MB

     Estimated total allocated dynamical RAM >      37.06MB

     The potential is recalculated from file :
     ./_ph0/na.fcc.save/charge-density.dat

     Starting wfc are    5 atomic +    4 random wfc

     Band Structure Calculation
     Davidson diagonalization with overlap

     ethr =  1.11E-10,  avg # of iterations = 17.4

     total cpu time spent up to now is      306.0 secs

     End of band structure calculation

     Number of k-points >= 100: set verbosity='high' to print the bands.

     the Fermi energy is     3.4366 ev

     Writing output data file na.fcc.save

                                                                                

     bravais-lattice index     =            2
     lattice parameter (alat)  =       8.8701  a.u.
     unit-cell volume          =     174.4745 (a.u.)^3
     number of atoms/cell      =            1
     number of atomic types    =            1
     kinetic-energy cut-off    =      40.0000  Ry
     charge density cut-off    =     320.0000  Ry
     convergence threshold     =      1.0E-16
     beta                      =       0.7000
     number of iterations used =            4
     Exchange-correlation      = SLA  PW   PBE  PBE ( 1  4  3  4 0 0)


     celldm(1)=    8.87014  celldm(2)=    0.00000  celldm(3)=    0.00000
     celldm(4)=    0.00000  celldm(5)=    0.00000  celldm(6)=    0.00000

     crystal axes: (cart. coord. in units of alat)
               a(1) = ( -0.5000  0.0000  0.5000 )  
               a(2) = (  0.0000  0.5000  0.5000 )  
               a(3) = ( -0.5000  0.5000  0.0000 )  

     reciprocal axes: (cart. coord. in units 2 pi/alat)
               b(1) = ( -1.0000 -1.0000  1.0000 )  
               b(2) = (  1.0000  1.0000  1.0000 )  
               b(3) = ( -1.0000  1.0000 -1.0000 )  


     Atoms inside the unit cell: 

     Cartesian axes

     site n.  atom      mass           positions (alat units)
        1     Na  22.9900   tau(    1) = (    0.00000    0.00000    0.00000  )

     Computing dynamical matrix for 
                    q = (  -0.3333333   0.3333333  -0.3333333 )

      6 Sym.Ops. (no q -> -q+G )


     G cutoff =  637.7515  (   1053 G-vectors)     FFT grid: ( 36, 36, 36)
     G cutoff =  318.8758  (    374 G-vectors)  smooth grid: ( 25, 25, 25)

     number of k points= 11480  Marzari-Vanderbilt smearing, width (Ry)=  0.0200

     PseudoPot. # 1 for Na read from file:
     /home/s1333534/quantum_espresso/qe-6.1/pseudo/Na_pbe_v1.uspp.F.UPF
     MD5 check sum: 76a99c7e9422403d3e93cbc85ab7bccb
     Pseudo is Ultrasoft, Zval =  9.0
     Generated by new atomic code, or converted to UPF format
     Using radial grid of  819 points,  5 beta functions with: 
                l(1) =   0
                l(2) =   0
                l(3) =   1
                l(4) =   1
                l(5) =   2
     Q(r) pseudized with  8 coefficients,  rinner =    1.250   1.250   1.250
                                                       1.250   1.250

     Mode symmetry, C_3v (3m)   point group:


     Atomic displacements:
     There are   2 irreducible representations

     Representation     1      1 modes -A_1  L_1  To be done

     Representation     2      2 modes -E    L_3  To be done



     Alpha used in Ewald sum =   2.8000
     PHONON       : 14m14.64s CPU    15m36.29s WALL



     Representation #  1 mode #   1

     Self-consistent Calculation

      iter #   1 total cpu time :   954.3 secs   av.it.:   5.7
      thresh= 1.000E-02 alpha_mix =  0.700 |ddv_scf|^2 =  7.029E-04

      iter #   2 total cpu time :   971.7 secs   av.it.:   6.7
      thresh= 2.651E-03 alpha_mix =  0.700 |ddv_scf|^2 =  3.997E-03

      iter #   3 total cpu time :   987.8 secs   av.it.:   6.0
      thresh= 6.322E-03 alpha_mix =  0.700 |ddv_scf|^2 =  7.501E-07

      iter #   4 total cpu time :  1007.7 secs   av.it.:   7.7
      thresh= 8.661E-05 alpha_mix =  0.700 |ddv_scf|^2 =  9.744E-09

      iter #   5 total cpu time :  1028.1 secs   av.it.:   8.3
      thresh= 9.871E-06 alpha_mix =  0.700 |ddv_scf|^2 =  6.986E-10

      iter #   6 total cpu time :  1048.1 secs   av.it.:   8.0
      thresh= 2.643E-06 alpha_mix =  0.700 |ddv_scf|^2 =  1.922E-11

      iter #   7 total cpu time :  1067.4 secs   av.it.:   7.6
      thresh= 4.384E-07 alpha_mix =  0.700 |ddv_scf|^2 =  4.544E-13

      iter #   8 total cpu time :  1086.6 secs   av.it.:   7.8
      thresh= 6.741E-08 alpha_mix =  0.700 |ddv_scf|^2 =  1.113E-15

      iter #   9 total cpu time :  1105.4 secs   av.it.:   7.7
      thresh= 3.336E-09 alpha_mix =  0.700 |ddv_scf|^2 =  5.547E-16

      iter #  10 total cpu time :  1123.8 secs   av.it.:   7.2
      thresh= 2.355E-09 alpha_mix =  0.700 |ddv_scf|^2 =  8.067E-16

      iter #  11 total cpu time :  1141.3 secs   av.it.:   6.9
      thresh= 2.840E-09 alpha_mix =  0.700 |ddv_scf|^2 =  9.661E-18

     End of self-consistent calculation

     Convergence has been achieved 


     Representation #  2 modes #   2  3

     Self-consistent Calculation

      iter #   1 total cpu time :  1175.8 secs   av.it.:   5.6
      thresh= 1.000E-02 alpha_mix =  0.700 |ddv_scf|^2 =  3.331E-06

      iter #   2 total cpu time :  1218.1 secs   av.it.:   8.4
      thresh= 1.825E-04 alpha_mix =  0.700 |ddv_scf|^2 =  6.035E-08

      iter #   3 total cpu time :  1259.9 secs   av.it.:   8.6
      thresh= 2.457E-05 alpha_mix =  0.700 |ddv_scf|^2 =  1.019E-09

      iter #   4 total cpu time :  1300.5 secs   av.it.:   8.3
      thresh= 3.192E-06 alpha_mix =  0.700 |ddv_scf|^2 =  3.751E-12

      iter #   5 total cpu time :  1343.0 secs   av.it.:   8.5
      thresh= 1.937E-07 alpha_mix =  0.700 |ddv_scf|^2 =  8.928E-15

      iter #   6 total cpu time :  1382.9 secs   av.it.:   8.2
      thresh= 9.449E-09 alpha_mix =  0.700 |ddv_scf|^2 =  2.337E-16

      iter #   7 total cpu time :  1424.0 secs   av.it.:   8.6
      thresh= 1.529E-09 alpha_mix =  0.700 |ddv_scf|^2 =  2.286E-19

     End of self-consistent calculation

     Convergence has been achieved 

     Number of q in the star =    8
     List of q in the star:
          1  -0.333333333   0.333333333  -0.333333333
          2   0.333333333   0.333333333   0.333333333
          3  -0.333333333  -0.333333333  -0.333333333
          4   0.333333333  -0.333333333   0.333333333
          5   0.333333333  -0.333333333  -0.333333333
          6   0.333333333   0.333333333  -0.333333333
          7  -0.333333333  -0.333333333   0.333333333
          8  -0.333333333   0.333333333   0.333333333

     Diagonalizing the dynamical matrix

     q = (   -0.333333333   0.333333333  -0.333333333 ) 

 **************************************************************************
     freq (    1) =       1.820177 [THz] =      60.714558 [cm-1]
     freq (    2) =       1.820177 [THz] =      60.714558 [cm-1]
     freq (    3) =       5.446092 [THz] =     181.662068 [cm-1]
 **************************************************************************

     Mode symmetry, C_3v (3m)   point group:

     freq (  1 -  2) =         60.7  [cm-1]   --> E    L_3           
     freq (  3 -  3) =        181.7  [cm-1]   --> A_1  L_1           

     Calculation of q =    0.5000000  -0.5000000   0.5000000

   Info: using nr1, nr2, nr3 values from input

   Info: using nr1, nr2, nr3 values from input

     Parallelization info
     --------------------
     sticks:   dense  smooth     PW     G-vecs:    dense   smooth      PW
     Min          53      27     10                 1052      372      90
     Max          54      28     11                 1055      375      94
     Sum         859     433    163                16865     5961    1459



     bravais-lattice index     =            2
     lattice parameter (alat)  =       8.8701  a.u.
     unit-cell volume          =     174.4745 (a.u.)^3
     number of atoms/cell      =            1
     number of atomic types    =            1
     number of electrons       =         9.00
     number of Kohn-Sham states=            9
     kinetic-energy cutoff     =      40.0000  Ry
     charge density cutoff     =     320.0000  Ry
     Exchange-correlation      = SLA  PW   PBE  PBE ( 1  4  3  4 0 0)

     celldm(1)=   8.870143  celldm(2)=   0.000000  celldm(3)=   0.000000
     celldm(4)=   0.000000  celldm(5)=   0.000000  celldm(6)=   0.000000

     crystal axes: (cart. coord. in units of alat)
               a(1) = (  -0.500000   0.000000   0.500000 )  
               a(2) = (   0.000000   0.500000   0.500000 )  
               a(3) = (  -0.500000   0.500000   0.000000 )  

     reciprocal axes: (cart. coord. in units 2 pi/alat)
               b(1) = ( -1.000000 -1.000000  1.000000 )  
               b(2) = (  1.000000  1.000000  1.000000 )  
               b(3) = ( -1.000000  1.000000 -1.000000 )  


     PseudoPot. # 1 for Na read from file:
     /home/s1333534/quantum_espresso/qe-6.1/pseudo/Na_pbe_v1.uspp.F.UPF
     MD5 check sum: 76a99c7e9422403d3e93cbc85ab7bccb
     Pseudo is Ultrasoft, Zval =  9.0
     Generated by new atomic code, or converted to UPF format
     Using radial grid of  819 points,  5 beta functions with: 
                l(1) =   0
                l(2) =   0
                l(3) =   1
                l(4) =   1
                l(5) =   2
     Q(r) pseudized with  8 coefficients,  rinner =    1.250   1.250   1.250
                                                       1.250   1.250

     atomic species   valence    mass     pseudopotential
        Na             9.00    22.99000     Na( 1.00)

     48 Sym. Ops., with inversion, found



   Cartesian axes

     site n.     atom                  positions (alat units)
         1           Na  tau(   1) = (   0.0000000   0.0000000   0.0000000  )

     number of k points=  5740  Marzari-Vanderbilt smearing, width (Ry)=  0.0200

     Number of k-points >= 100: set verbosity='high' to print them.

     Dense  grid:    16865 G-vectors     FFT dimensions: (  36,  36,  36)

     Smooth grid:     5961 G-vectors     FFT dimensions: (  25,  25,  25)

     Estimated max dynamical RAM per process >       0.58MB

     Estimated total allocated dynamical RAM >      37.06MB

     The potential is recalculated from file :
     ./_ph0/na.fcc.save/charge-density.dat

     Starting wfc are    5 atomic +    4 random wfc

     Band Structure Calculation
     Davidson diagonalization with overlap

     ethr =  1.11E-10,  avg # of iterations = 17.4

     total cpu time spent up to now is      406.9 secs

     End of band structure calculation

     Number of k-points >= 100: set verbosity='high' to print the bands.

     the Fermi energy is     3.4366 ev

     Writing output data file na.fcc.save

                                                                                

     bravais-lattice index     =            2
     lattice parameter (alat)  =       8.8701  a.u.
     unit-cell volume          =     174.4745 (a.u.)^3
     number of atoms/cell      =            1
     number of atomic types    =            1
     kinetic-energy cut-off    =      40.0000  Ry
     charge density cut-off    =     320.0000  Ry
     convergence threshold     =      1.0E-16
     beta                      =       0.7000
     number of iterations used =            4
     Exchange-correlation      = SLA  PW   PBE  PBE ( 1  4  3  4 0 0)


     celldm(1)=    8.87014  celldm(2)=    0.00000  celldm(3)=    0.00000
     celldm(4)=    0.00000  celldm(5)=    0.00000  celldm(6)=    0.00000

     crystal axes: (cart. coord. in units of alat)
               a(1) = ( -0.5000  0.0000  0.5000 )  
               a(2) = (  0.0000  0.5000  0.5000 )  
               a(3) = ( -0.5000  0.5000  0.0000 )  

     reciprocal axes: (cart. coord. in units 2 pi/alat)
               b(1) = ( -1.0000 -1.0000  1.0000 )  
               b(2) = (  1.0000  1.0000  1.0000 )  
               b(3) = ( -1.0000  1.0000 -1.0000 )  


     Atoms inside the unit cell: 

     Cartesian axes

     site n.  atom      mass           positions (alat units)
        1     Na  22.9900   tau(    1) = (    0.00000    0.00000    0.00000  )

     Computing dynamical matrix for 
                    q = (   0.5000000  -0.5000000   0.5000000 )

     13 Sym.Ops. (with q -> -q+G )


     G cutoff =  637.7515  (   1053 G-vectors)     FFT grid: ( 36, 36, 36)
     G cutoff =  318.8758  (    374 G-vectors)  smooth grid: ( 25, 25, 25)

     number of k points=  5740  Marzari-Vanderbilt smearing, width (Ry)=  0.0200

     PseudoPot. # 1 for Na read from file:
     /home/s1333534/quantum_espresso/qe-6.1/pseudo/Na_pbe_v1.uspp.F.UPF
     MD5 check sum: 76a99c7e9422403d3e93cbc85ab7bccb
     Pseudo is Ultrasoft, Zval =  9.0
     Generated by new atomic code, or converted to UPF format
     Using radial grid of  819 points,  5 beta functions with: 
                l(1) =   0
                l(2) =   0
                l(3) =   1
                l(4) =   1
                l(5) =   2
     Q(r) pseudized with  8 coefficients,  rinner =    1.250   1.250   1.250
                                                       1.250   1.250

     Mode symmetry, D_3d (-3m)  point group:


     Atomic displacements:
     There are   2 irreducible representations

     Representation     1      1 modes -A_2u L_2'  To be done

     Representation     2      2 modes -E_u  L_3'  To be done



     Alpha used in Ewald sum =   2.8000
     PHONON       : 22m52.54s CPU    25m13.11s WALL



     Representation #  1 mode #   1

     Self-consistent Calculation

      iter #   1 total cpu time :  1522.0 secs   av.it.:   5.8
      thresh= 1.000E-02 alpha_mix =  0.700 |ddv_scf|^2 =  1.433E-04

      iter #   2 total cpu time :  1531.1 secs   av.it.:   6.9
      thresh= 1.197E-03 alpha_mix =  0.700 |ddv_scf|^2 =  8.200E-05

      iter #   3 total cpu time :  1540.2 secs   av.it.:   6.9
      thresh= 9.055E-04 alpha_mix =  0.700 |ddv_scf|^2 =  8.588E-08

      iter #   4 total cpu time :  1550.4 secs   av.it.:   7.9
      thresh= 2.930E-05 alpha_mix =  0.700 |ddv_scf|^2 =  3.210E-10

      iter #   5 total cpu time :  1559.4 secs   av.it.:   6.9
      thresh= 1.792E-06 alpha_mix =  0.700 |ddv_scf|^2 =  7.773E-12

      iter #   6 total cpu time :  1568.1 secs   av.it.:   6.5
      thresh= 2.788E-07 alpha_mix =  0.700 |ddv_scf|^2 =  1.583E-14

      iter #   7 total cpu time :  1577.4 secs   av.it.:   7.4
      thresh= 1.258E-08 alpha_mix =  0.700 |ddv_scf|^2 =  1.988E-17

     End of self-consistent calculation

     Convergence has been achieved 


     Representation #  2 modes #   2  3

     Self-consistent Calculation

      iter #   1 total cpu time :  1594.7 secs   av.it.:   5.5
      thresh= 1.000E-02 alpha_mix =  0.700 |ddv_scf|^2 =  3.382E-06

      iter #   2 total cpu time :  1615.3 secs   av.it.:   8.3
      thresh= 1.839E-04 alpha_mix =  0.700 |ddv_scf|^2 =  6.021E-08

      iter #   3 total cpu time :  1636.2 secs   av.it.:   8.6
      thresh= 2.454E-05 alpha_mix =  0.700 |ddv_scf|^2 =  1.110E-09

      iter #   4 total cpu time :  1656.1 secs   av.it.:   7.9
      thresh= 3.332E-06 alpha_mix =  0.700 |ddv_scf|^2 =  4.064E-12

      iter #   5 total cpu time :  1676.6 secs   av.it.:   8.2
      thresh= 2.016E-07 alpha_mix =  0.700 |ddv_scf|^2 =  8.997E-15

      iter #   6 total cpu time :  1696.2 secs   av.it.:   7.9
      thresh= 9.485E-09 alpha_mix =  0.700 |ddv_scf|^2 =  2.587E-16

      iter #   7 total cpu time :  1716.2 secs   av.it.:   8.3
      thresh= 1.608E-09 alpha_mix =  0.700 |ddv_scf|^2 =  2.172E-19

     End of self-consistent calculation

     Convergence has been achieved 

     Number of q in the star =    4
     List of q in the star:
          1   0.500000000  -0.500000000   0.500000000
          2   0.500000000   0.500000000   0.500000000
          3  -0.500000000   0.500000000   0.500000000
          4   0.500000000   0.500000000  -0.500000000

     Diagonalizing the dynamical matrix

     q = (    0.500000000  -0.500000000   0.500000000 ) 

 **************************************************************************
     freq (    1) =       2.109009 [THz] =      70.348960 [cm-1]
     freq (    2) =       2.109009 [THz] =      70.348960 [cm-1]
     freq (    3) =       6.307832 [THz] =     210.406612 [cm-1]
 **************************************************************************

     Mode symmetry, D_3d (-3m)  point group:

     freq (  1 -  2) =         70.3  [cm-1]   --> E_u  L_3'          
     freq (  3 -  3) =        210.4  [cm-1]   --> A_2u L_2'          

     Calculation of q =    0.0000000   0.3333333   0.0000000

   Info: using nr1, nr2, nr3 values from input

   Info: using nr1, nr2, nr3 values from input

     Parallelization info
     --------------------
     sticks:   dense  smooth     PW     G-vecs:    dense   smooth      PW
     Min          53      27     10                 1052      372      84
     Max          54      28     11                 1055      375      86
     Sum         859     433    163                16865     5961    1363



     bravais-lattice index     =            2
     lattice parameter (alat)  =       8.8701  a.u.
     unit-cell volume          =     174.4745 (a.u.)^3
     number of atoms/cell      =            1
     number of atomic types    =            1
     number of electrons       =         9.00
     number of Kohn-Sham states=            9
     kinetic-energy cutoff     =      40.0000  Ry
     charge density cutoff     =     320.0000  Ry
     Exchange-correlation      = SLA  PW   PBE  PBE ( 1  4  3  4 0 0)

     celldm(1)=   8.870143  celldm(2)=   0.000000  celldm(3)=   0.000000
     celldm(4)=   0.000000  celldm(5)=   0.000000  celldm(6)=   0.000000

     crystal axes: (cart. coord. in units of alat)
               a(1) = (  -0.500000   0.000000   0.500000 )  
               a(2) = (   0.000000   0.500000   0.500000 )  
               a(3) = (  -0.500000   0.500000   0.000000 )  

     reciprocal axes: (cart. coord. in units 2 pi/alat)
               b(1) = ( -1.000000 -1.000000  1.000000 )  
               b(2) = (  1.000000  1.000000  1.000000 )  
               b(3) = ( -1.000000  1.000000 -1.000000 )  


     PseudoPot. # 1 for Na read from file:
     /home/s1333534/quantum_espresso/qe-6.1/pseudo/Na_pbe_v1.uspp.F.UPF
     MD5 check sum: 76a99c7e9422403d3e93cbc85ab7bccb
     Pseudo is Ultrasoft, Zval =  9.0
     Generated by new atomic code, or converted to UPF format
     Using radial grid of  819 points,  5 beta functions with: 
                l(1) =   0
                l(2) =   0
                l(3) =   1
                l(4) =   1
                l(5) =   2
     Q(r) pseudized with  8 coefficients,  rinner =    1.250   1.250   1.250
                                                       1.250   1.250

     atomic species   valence    mass     pseudopotential
        Na             9.00    22.99000     Na( 1.00)

     48 Sym. Ops., with inversion, found



   Cartesian axes

     site n.     atom                  positions (alat units)
         1           Na  tau(   1) = (   0.0000000   0.0000000   0.0000000  )

     number of k points=  8400  Marzari-Vanderbilt smearing, width (Ry)=  0.0200

     Number of k-points >= 100: set verbosity='high' to print them.

     Dense  grid:    16865 G-vectors     FFT dimensions: (  36,  36,  36)

     Smooth grid:     5961 G-vectors     FFT dimensions: (  25,  25,  25)

     Estimated max dynamical RAM per process >       0.58MB

     Estimated total allocated dynamical RAM >      37.06MB

     The potential is recalculated from file :
     ./_ph0/na.fcc.save/charge-density.dat

     Starting wfc are    5 atomic +    4 random wfc

     Band Structure Calculation
     Davidson diagonalization with overlap

     ethr =  1.11E-10,  avg # of iterations = 17.4

     total cpu time spent up to now is      522.1 secs

     End of band structure calculation

     Number of k-points >= 100: set verbosity='high' to print the bands.

     the Fermi energy is     3.4366 ev

     Writing output data file na.fcc.save

                                                                                

     bravais-lattice index     =            2
     lattice parameter (alat)  =       8.8701  a.u.
     unit-cell volume          =     174.4745 (a.u.)^3
     number of atoms/cell      =            1
     number of atomic types    =            1
     kinetic-energy cut-off    =      40.0000  Ry
     charge density cut-off    =     320.0000  Ry
     convergence threshold     =      1.0E-16
     beta                      =       0.7000
     number of iterations used =            4
     Exchange-correlation      = SLA  PW   PBE  PBE ( 1  4  3  4 0 0)


     celldm(1)=    8.87014  celldm(2)=    0.00000  celldm(3)=    0.00000
     celldm(4)=    0.00000  celldm(5)=    0.00000  celldm(6)=    0.00000

     crystal axes: (cart. coord. in units of alat)
               a(1) = ( -0.5000  0.0000  0.5000 )  
               a(2) = (  0.0000  0.5000  0.5000 )  
               a(3) = ( -0.5000  0.5000  0.0000 )  

     reciprocal axes: (cart. coord. in units 2 pi/alat)
               b(1) = ( -1.0000 -1.0000  1.0000 )  
               b(2) = (  1.0000  1.0000  1.0000 )  
               b(3) = ( -1.0000  1.0000 -1.0000 )  


     Atoms inside the unit cell: 

     Cartesian axes

     site n.  atom      mass           positions (alat units)
        1     Na  22.9900   tau(    1) = (    0.00000    0.00000    0.00000  )

     Computing dynamical matrix for 
                    q = (   0.0000000   0.3333333   0.0000000 )

      8 Sym.Ops. (no q -> -q+G )


     G cutoff =  637.7515  (   1053 G-vectors)     FFT grid: ( 36, 36, 36)
     G cutoff =  318.8758  (    374 G-vectors)  smooth grid: ( 25, 25, 25)

     number of k points=  8400  Marzari-Vanderbilt smearing, width (Ry)=  0.0200

     PseudoPot. # 1 for Na read from file:
     /home/s1333534/quantum_espresso/qe-6.1/pseudo/Na_pbe_v1.uspp.F.UPF
     MD5 check sum: 76a99c7e9422403d3e93cbc85ab7bccb
     Pseudo is Ultrasoft, Zval =  9.0
     Generated by new atomic code, or converted to UPF format
     Using radial grid of  819 points,  5 beta functions with: 
                l(1) =   0
                l(2) =   0
                l(3) =   1
                l(4) =   1
                l(5) =   2
     Q(r) pseudized with  8 coefficients,  rinner =    1.250   1.250   1.250
                                                       1.250   1.250

     Mode symmetry, C_4v (4mm)  point group:


     Atomic displacements:
     There are   2 irreducible representations

     Representation     1      1 modes -A_1  G_1 D_1  To be done

     Representation     2      2 modes -E    G_5 D_5  To be done



     Alpha used in Ewald sum =   2.8000
     PHONON       : 27m57.63s CPU    30m46.38s WALL



     Representation #  1 mode #   1

     Self-consistent Calculation

      iter #   1 total cpu time :  1858.9 secs   av.it.:   5.7
      thresh= 1.000E-02 alpha_mix =  0.700 |ddv_scf|^2 =  1.767E-02

      iter #   2 total cpu time :  1871.5 secs   av.it.:   6.6
      thresh= 1.000E-02 alpha_mix =  0.700 |ddv_scf|^2 =  1.367E+00

      iter #   3 total cpu time :  1884.6 secs   av.it.:   6.5
      thresh= 1.000E-02 alpha_mix =  0.700 |ddv_scf|^2 =  2.905E-06

      iter #   4 total cpu time :  1898.1 secs   av.it.:   7.3
      thresh= 1.704E-04 alpha_mix =  0.700 |ddv_scf|^2 =  9.828E-08

      iter #   5 total cpu time :  1911.6 secs   av.it.:   7.4
      thresh= 3.135E-05 alpha_mix =  0.700 |ddv_scf|^2 =  1.942E-09

      iter #   6 total cpu time :  1925.4 secs   av.it.:   7.6
      thresh= 4.406E-06 alpha_mix =  0.700 |ddv_scf|^2 =  1.391E-10

      iter #   7 total cpu time :  1939.2 secs   av.it.:   7.6
      thresh= 1.179E-06 alpha_mix =  0.700 |ddv_scf|^2 =  4.715E-09

      iter #   8 total cpu time :  1950.1 secs   av.it.:   5.5
      thresh= 6.867E-06 alpha_mix =  0.700 |ddv_scf|^2 =  4.551E-11

      iter #   9 total cpu time :  1962.8 secs   av.it.:   6.8
      thresh= 6.746E-07 alpha_mix =  0.700 |ddv_scf|^2 =  1.370E-12

      iter #  10 total cpu time :  1977.3 secs   av.it.:   7.1
      thresh= 1.170E-07 alpha_mix =  0.700 |ddv_scf|^2 =  3.677E-14

      iter #  11 total cpu time :  1990.9 secs   av.it.:   7.5
      thresh= 1.918E-08 alpha_mix =  0.700 |ddv_scf|^2 =  2.502E-16

      iter #  12 total cpu time :  2005.4 secs   av.it.:   8.1
      thresh= 1.582E-09 alpha_mix =  0.700 |ddv_scf|^2 =  1.253E-16

      iter #  13 total cpu time :  2019.6 secs   av.it.:   7.6
      thresh= 1.119E-09 alpha_mix =  0.700 |ddv_scf|^2 =  4.057E-16

      iter #  14 total cpu time :  2030.3 secs   av.it.:   5.4
      thresh= 2.014E-09 alpha_mix =  0.700 |ddv_scf|^2 =  2.838E-17

     End of self-consistent calculation

     Convergence has been achieved 


     Representation #  2 modes #   2  3

     Self-consistent Calculation

      iter #   1 total cpu time :  2055.5 secs   av.it.:   5.6
      thresh= 1.000E-02 alpha_mix =  0.700 |ddv_scf|^2 =  3.414E-06

      iter #   2 total cpu time :  2086.0 secs   av.it.:   8.4
      thresh= 1.848E-04 alpha_mix =  0.700 |ddv_scf|^2 =  5.811E-08

      iter #   3 total cpu time :  2116.7 secs   av.it.:   8.6
      thresh= 2.411E-05 alpha_mix =  0.700 |ddv_scf|^2 =  1.335E-09

      iter #   4 total cpu time :  2146.0 secs   av.it.:   8.3
      thresh= 3.654E-06 alpha_mix =  0.700 |ddv_scf|^2 =  4.566E-12

      iter #   5 total cpu time :  2176.8 secs   av.it.:   8.5
      thresh= 2.137E-07 alpha_mix =  0.700 |ddv_scf|^2 =  7.654E-15

      iter #   6 total cpu time :  2205.9 secs   av.it.:   8.0
      thresh= 8.749E-09 alpha_mix =  0.700 |ddv_scf|^2 =  2.818E-16

      iter #   7 total cpu time :  2235.5 secs   av.it.:   8.3
      thresh= 1.679E-09 alpha_mix =  0.700 |ddv_scf|^2 =  2.504E-19

     End of self-consistent calculation

     Convergence has been achieved 

     Number of q in the star =    6
     List of q in the star:
          1   0.000000000   0.333333333   0.000000000
          2   0.333333333   0.000000000   0.000000000
          3   0.000000000   0.000000000   0.333333333
          4   0.000000000  -0.333333333   0.000000000
          5  -0.333333333   0.000000000   0.000000000
          6   0.000000000   0.000000000  -0.333333333

     Diagonalizing the dynamical matrix

     q = (    0.000000000   0.333333333   0.000000000 ) 

 **************************************************************************
     freq (    1) =       1.890077 [THz] =      63.046191 [cm-1]
     freq (    2) =       1.890077 [THz] =      63.046191 [cm-1]
     freq (    3) =       2.937467 [THz] =      97.983360 [cm-1]
 **************************************************************************

     Mode symmetry, C_4v (4mm)  point group:

     freq (  1 -  2) =         63.0  [cm-1]   --> E    G_5 D_5       
     freq (  3 -  3) =         98.0  [cm-1]   --> A_1  G_1 D_1       

     Calculation of q =   -0.1666667   0.5000000  -0.1666667

   Info: using nr1, nr2, nr3 values from input

   Info: using nr1, nr2, nr3 values from input

     Parallelization info
     --------------------
     sticks:   dense  smooth     PW     G-vecs:    dense   smooth      PW
     Min          53      27     10                 1052      372      87
     Max          54      28     11                 1055      375      90
     Sum         859     433    163                16865     5961    1411



     bravais-lattice index     =            2
     lattice parameter (alat)  =       8.8701  a.u.
     unit-cell volume          =     174.4745 (a.u.)^3
     number of atoms/cell      =            1
     number of atomic types    =            1
     number of electrons       =         9.00
     number of Kohn-Sham states=            9
     kinetic-energy cutoff     =      40.0000  Ry
     charge density cutoff     =     320.0000  Ry
     Exchange-correlation      = SLA  PW   PBE  PBE ( 1  4  3  4 0 0)

     celldm(1)=   8.870143  celldm(2)=   0.000000  celldm(3)=   0.000000
     celldm(4)=   0.000000  celldm(5)=   0.000000  celldm(6)=   0.000000

     crystal axes: (cart. coord. in units of alat)
               a(1) = (  -0.500000   0.000000   0.500000 )  
               a(2) = (   0.000000   0.500000   0.500000 )  
               a(3) = (  -0.500000   0.500000   0.000000 )  

     reciprocal axes: (cart. coord. in units 2 pi/alat)
               b(1) = ( -1.000000 -1.000000  1.000000 )  
               b(2) = (  1.000000  1.000000  1.000000 )  
               b(3) = ( -1.000000  1.000000 -1.000000 )  


     PseudoPot. # 1 for Na read from file:
     /home/s1333534/quantum_espresso/qe-6.1/pseudo/Na_pbe_v1.uspp.F.UPF
     MD5 check sum: 76a99c7e9422403d3e93cbc85ab7bccb
     Pseudo is Ultrasoft, Zval =  9.0
     Generated by new atomic code, or converted to UPF format
     Using radial grid of  819 points,  5 beta functions with: 
                l(1) =   0
                l(2) =   0
                l(3) =   1
                l(4) =   1
                l(5) =   2
     Q(r) pseudized with  8 coefficients,  rinner =    1.250   1.250   1.250
                                                       1.250   1.250

     atomic species   valence    mass     pseudopotential
        Na             9.00    22.99000     Na( 1.00)

     48 Sym. Ops., with inversion, found



   Cartesian axes

     site n.     atom                  positions (alat units)
         1           Na  tau(   1) = (   0.0000000   0.0000000   0.0000000  )

     number of k points= 32800  Marzari-Vanderbilt smearing, width (Ry)=  0.0200

     Number of k-points >= 100: set verbosity='high' to print them.

     Dense  grid:    16865 G-vectors     FFT dimensions: (  36,  36,  36)

     Smooth grid:     5961 G-vectors     FFT dimensions: (  25,  25,  25)

     Estimated max dynamical RAM per process >       0.58MB

     Estimated total allocated dynamical RAM >      37.06MB

     The potential is recalculated from file :
     ./_ph0/na.fcc.save/charge-density.dat

     Starting wfc are    5 atomic +    4 random wfc

     Band Structure Calculation
     Davidson diagonalization with overlap

     ethr =  1.11E-10,  avg # of iterations = 17.4

     total cpu time spent up to now is      933.8 secs

     End of band structure calculation

     Number of k-points >= 100: set verbosity='high' to print the bands.

     the Fermi energy is     3.4366 ev

     Writing output data file na.fcc.save

                                                                                

     bravais-lattice index     =            2
     lattice parameter (alat)  =       8.8701  a.u.
     unit-cell volume          =     174.4745 (a.u.)^3
     number of atoms/cell      =            1
     number of atomic types    =            1
     kinetic-energy cut-off    =      40.0000  Ry
     charge density cut-off    =     320.0000  Ry
     convergence threshold     =      1.0E-16
     beta                      =       0.7000
     number of iterations used =            4
     Exchange-correlation      = SLA  PW   PBE  PBE ( 1  4  3  4 0 0)


     celldm(1)=    8.87014  celldm(2)=    0.00000  celldm(3)=    0.00000
     celldm(4)=    0.00000  celldm(5)=    0.00000  celldm(6)=    0.00000

     crystal axes: (cart. coord. in units of alat)
               a(1) = ( -0.5000  0.0000  0.5000 )  
               a(2) = (  0.0000  0.5000  0.5000 )  
               a(3) = ( -0.5000  0.5000  0.0000 )  

     reciprocal axes: (cart. coord. in units 2 pi/alat)
               b(1) = ( -1.0000 -1.0000  1.0000 )  
               b(2) = (  1.0000  1.0000  1.0000 )  
               b(3) = ( -1.0000  1.0000 -1.0000 )  


     Atoms inside the unit cell: 

     Cartesian axes

     site n.  atom      mass           positions (alat units)
        1     Na  22.9900   tau(    1) = (    0.00000    0.00000    0.00000  )

     Computing dynamical matrix for 
                    q = (  -0.1666667   0.5000000  -0.1666667 )

      2 Sym.Ops. (no q -> -q+G )


     G cutoff =  637.7515  (   1053 G-vectors)     FFT grid: ( 36, 36, 36)
     G cutoff =  318.8758  (    374 G-vectors)  smooth grid: ( 25, 25, 25)

     number of k points= 32800  Marzari-Vanderbilt smearing, width (Ry)=  0.0200

     PseudoPot. # 1 for Na read from file:
     /home/s1333534/quantum_espresso/qe-6.1/pseudo/Na_pbe_v1.uspp.F.UPF
     MD5 check sum: 76a99c7e9422403d3e93cbc85ab7bccb
     Pseudo is Ultrasoft, Zval =  9.0
     Generated by new atomic code, or converted to UPF format
     Using radial grid of  819 points,  5 beta functions with: 
                l(1) =   0
                l(2) =   0
                l(3) =   1
                l(4) =   1
                l(5) =   2
     Q(r) pseudized with  8 coefficients,  rinner =    1.250   1.250   1.250
                                                       1.250   1.250

     Mode symmetry, C_s (m)     point group:


     Atomic displacements:
     There are   3 irreducible representations

     Representation     1      1 modes -A'  To be done

     Representation     2      1 modes -A'  To be done

     Representation     3      1 modes -A''  To be done



     Alpha used in Ewald sum =   2.8000
     PHONON       : 41m46.04s CPU    45m43.71s WALL



     Representation #  1 mode #   1

     Self-consistent Calculation

      iter #   1 total cpu time :  2795.4 secs   av.it.:   5.8
      thresh= 1.000E-02 alpha_mix =  0.700 |ddv_scf|^2 =  7.813E-04

      iter #   2 total cpu time :  2847.2 secs   av.it.:   6.9
      thresh= 2.795E-03 alpha_mix =  0.700 |ddv_scf|^2 =  5.648E-03

      iter #   3 total cpu time :  2892.8 secs   av.it.:   5.8
      thresh= 7.516E-03 alpha_mix =  0.700 |ddv_scf|^2 =  8.229E-07

      iter #   4 total cpu time :  2948.8 secs   av.it.:   7.8
      thresh= 9.072E-05 alpha_mix =  0.700 |ddv_scf|^2 =  5.094E-09

      iter #   5 total cpu time :  3007.6 secs   av.it.:   8.4
      thresh= 7.137E-06 alpha_mix =  0.700 |ddv_scf|^2 =  8.262E-10

      iter #   6 total cpu time :  3064.8 secs   av.it.:   8.0
      thresh= 2.874E-06 alpha_mix =  0.700 |ddv_scf|^2 =  1.910E-11

      iter #   7 total cpu time :  3121.2 secs   av.it.:   7.8
      thresh= 4.371E-07 alpha_mix =  0.700 |ddv_scf|^2 =  2.238E-11

      iter #   8 total cpu time :  3171.5 secs   av.it.:   6.7
      thresh= 4.731E-07 alpha_mix =  0.700 |ddv_scf|^2 =  4.487E-12

      iter #   9 total cpu time :  3225.3 secs   av.it.:   7.3
      thresh= 2.118E-07 alpha_mix =  0.700 |ddv_scf|^2 =  6.913E-13

      iter #  10 total cpu time :  3278.8 secs   av.it.:   7.0
      thresh= 8.315E-08 alpha_mix =  0.700 |ddv_scf|^2 =  6.453E-15

      iter #  11 total cpu time :  3338.3 secs   av.it.:   8.4
      thresh= 8.033E-09 alpha_mix =  0.700 |ddv_scf|^2 =  3.293E-16

      iter #  12 total cpu time :  3397.1 secs   av.it.:   8.2
      thresh= 1.815E-09 alpha_mix =  0.700 |ddv_scf|^2 =  5.167E-17

     End of self-consistent calculation

     Convergence has been achieved 


     Representation #  2 mode #   2

     Self-consistent Calculation

      iter #   1 total cpu time :  3451.0 secs   av.it.:   5.8
      thresh= 1.000E-02 alpha_mix =  0.700 |ddv_scf|^2 =  1.320E-04

      iter #   2 total cpu time :  3506.6 secs   av.it.:   7.4
      thresh= 1.149E-03 alpha_mix =  0.700 |ddv_scf|^2 =  8.565E-04

      iter #   3 total cpu time :  3552.9 secs   av.it.:   5.8
      thresh= 2.927E-03 alpha_mix =  0.700 |ddv_scf|^2 =  2.313E-07

      iter #   4 total cpu time :  3611.9 secs   av.it.:   8.2
      thresh= 4.810E-05 alpha_mix =  0.700 |ddv_scf|^2 =  6.462E-09

      iter #   5 total cpu time :  3670.8 secs   av.it.:   8.2
      thresh= 8.039E-06 alpha_mix =  0.700 |ddv_scf|^2 =  2.512E-10

      iter #   6 total cpu time :  3729.6 secs   av.it.:   8.3
      thresh= 1.585E-06 alpha_mix =  0.700 |ddv_scf|^2 =  1.744E-11

      iter #   7 total cpu time :  3786.9 secs   av.it.:   7.9
      thresh= 4.177E-07 alpha_mix =  0.700 |ddv_scf|^2 =  7.996E-13

      iter #   8 total cpu time :  3843.2 secs   av.it.:   7.7
      thresh= 8.942E-08 alpha_mix =  0.700 |ddv_scf|^2 =  4.560E-13

      iter #   9 total cpu time :  3891.3 secs   av.it.:   6.1
      thresh= 6.753E-08 alpha_mix =  0.700 |ddv_scf|^2 =  2.295E-14

      iter #  10 total cpu time :  3945.2 secs   av.it.:   7.4
      thresh= 1.515E-08 alpha_mix =  0.700 |ddv_scf|^2 =  2.806E-14

      iter #  11 total cpu time :  3992.0 secs   av.it.:   6.1
      thresh= 1.675E-08 alpha_mix =  0.700 |ddv_scf|^2 =  1.389E-16

      iter #  12 total cpu time :  4049.1 secs   av.it.:   7.9
      thresh= 1.179E-09 alpha_mix =  0.700 |ddv_scf|^2 =  3.493E-18

     End of self-consistent calculation

     Convergence has been achieved 


     Representation #  3 mode #   3

     Self-consistent Calculation

      iter #   1 total cpu time :  4100.0 secs   av.it.:   5.5
      thresh= 1.000E-02 alpha_mix =  0.700 |ddv_scf|^2 =  1.450E-05

      iter #   2 total cpu time :  4156.1 secs   av.it.:   7.8
      thresh= 3.807E-04 alpha_mix =  0.700 |ddv_scf|^2 =  2.224E-07

      iter #   3 total cpu time :  4213.7 secs   av.it.:   8.0
      thresh= 4.716E-05 alpha_mix =  0.700 |ddv_scf|^2 =  7.633E-09

      iter #   4 total cpu time :  4268.4 secs   av.it.:   7.6
      thresh= 8.737E-06 alpha_mix =  0.700 |ddv_scf|^2 =  2.648E-11

      iter #   5 total cpu time :  4325.5 secs   av.it.:   7.8
      thresh= 5.146E-07 alpha_mix =  0.700 |ddv_scf|^2 =  2.978E-14

      iter #   6 total cpu time :  4378.7 secs   av.it.:   7.2
      thresh= 1.726E-08 alpha_mix =  0.700 |ddv_scf|^2 =  1.581E-15

      iter #   7 total cpu time :  4434.3 secs   av.it.:   7.6
      thresh= 3.976E-09 alpha_mix =  0.700 |ddv_scf|^2 =  1.448E-18

     End of self-consistent calculation

     Convergence has been achieved 

     Number of q in the star =   24
     List of q in the star:
          1  -0.166666667   0.500000000  -0.166666667
          2   0.166666667   0.500000000   0.166666667
          3  -0.166666667   0.500000000   0.166666667
          4   0.166666667   0.500000000  -0.166666667
          5   0.500000000  -0.166666667   0.166666667
          6   0.166666667  -0.166666667   0.500000000
          7  -0.166666667  -0.500000000  -0.166666667
          8   0.166666667  -0.500000000  -0.166666667
          9  -0.166666667  -0.500000000   0.166666667
         10   0.500000000  -0.166666667  -0.166666667
         11  -0.500000000  -0.166666667   0.166666667
         12   0.500000000   0.166666667   0.166666667
         13  -0.166666667   0.166666667  -0.500000000
         14  -0.166666667  -0.166666667   0.500000000
         15   0.166666667   0.166666667   0.500000000
         16   0.166666667  -0.166666667  -0.500000000
         17  -0.500000000   0.166666667  -0.166666667
         18  -0.500000000  -0.166666667  -0.166666667
         19   0.166666667  -0.500000000   0.166666667
         20   0.500000000   0.166666667  -0.166666667
         21   0.166666667   0.166666667  -0.500000000
         22  -0.166666667  -0.166666667  -0.500000000
         23  -0.500000000   0.166666667   0.166666667
         24  -0.166666667   0.166666667   0.500000000

     Diagonalizing the dynamical matrix

     q = (   -0.166666667   0.500000000  -0.166666667 ) 

 **************************************************************************
     freq (    1) =       2.556346 [THz] =      85.270539 [cm-1]
     freq (    2) =       2.589016 [THz] =      86.360284 [cm-1]
     freq (    3) =       4.858379 [THz] =     162.058073 [cm-1]
 **************************************************************************

     Mode symmetry, C_s (m)     point group:

     freq (  1 -  1) =         85.3  [cm-1]   --> A''                
     freq (  2 -  2) =         86.4  [cm-1]   --> A'                 
     freq (  3 -  3) =        162.1  [cm-1]   --> A'                 

     Calculation of q =    0.6666667  -0.3333333   0.6666667

   Info: using nr1, nr2, nr3 values from input

   Info: using nr1, nr2, nr3 values from input

     Parallelization info
     --------------------
     sticks:   dense  smooth     PW     G-vecs:    dense   smooth      PW
     Min          53      27     10                 1052      372      91
     Max          54      28     11                 1055      375      94
     Sum         859     433    169                16865     5961    1471



     bravais-lattice index     =            2
     lattice parameter (alat)  =       8.8701  a.u.
     unit-cell volume          =     174.4745 (a.u.)^3
     number of atoms/cell      =            1
     number of atomic types    =            1
     number of electrons       =         9.00
     number of Kohn-Sham states=            9
     kinetic-energy cutoff     =      40.0000  Ry
     charge density cutoff     =     320.0000  Ry
     Exchange-correlation      = SLA  PW   PBE  PBE ( 1  4  3  4 0 0)

     celldm(1)=   8.870143  celldm(2)=   0.000000  celldm(3)=   0.000000
     celldm(4)=   0.000000  celldm(5)=   0.000000  celldm(6)=   0.000000

     crystal axes: (cart. coord. in units of alat)
               a(1) = (  -0.500000   0.000000   0.500000 )  
               a(2) = (   0.000000   0.500000   0.500000 )  
               a(3) = (  -0.500000   0.500000   0.000000 )  

     reciprocal axes: (cart. coord. in units 2 pi/alat)
               b(1) = ( -1.000000 -1.000000  1.000000 )  
               b(2) = (  1.000000  1.000000  1.000000 )  
               b(3) = ( -1.000000  1.000000 -1.000000 )  


     PseudoPot. # 1 for Na read from file:
     /home/s1333534/quantum_espresso/qe-6.1/pseudo/Na_pbe_v1.uspp.F.UPF
     MD5 check sum: 76a99c7e9422403d3e93cbc85ab7bccb
     Pseudo is Ultrasoft, Zval =  9.0
     Generated by new atomic code, or converted to UPF format
     Using radial grid of  819 points,  5 beta functions with: 
                l(1) =   0
                l(2) =   0
                l(3) =   1
                l(4) =   1
                l(5) =   2
     Q(r) pseudized with  8 coefficients,  rinner =    1.250   1.250   1.250
                                                       1.250   1.250

     atomic species   valence    mass     pseudopotential
        Na             9.00    22.99000     Na( 1.00)

     48 Sym. Ops., with inversion, found



   Cartesian axes

     site n.     atom                  positions (alat units)
         1           Na  tau(   1) = (   0.0000000   0.0000000   0.0000000  )

     number of k points= 32800  Marzari-Vanderbilt smearing, width (Ry)=  0.0200

     Number of k-points >= 100: set verbosity='high' to print them.

     Dense  grid:    16865 G-vectors     FFT dimensions: (  36,  36,  36)

     Smooth grid:     5961 G-vectors     FFT dimensions: (  25,  25,  25)

     Estimated max dynamical RAM per process >       0.58MB

     Estimated total allocated dynamical RAM >      37.06MB

     The potential is recalculated from file :
     ./_ph0/na.fcc.save/charge-density.dat

     Starting wfc are    5 atomic +    4 random wfc

     Band Structure Calculation
     Davidson diagonalization with overlap

     ethr =  1.11E-10,  avg # of iterations = 17.4

     total cpu time spent up to now is     1419.9 secs

     End of band structure calculation

     Number of k-points >= 100: set verbosity='high' to print the bands.

     the Fermi energy is     3.4366 ev

     Writing output data file na.fcc.save

                                                                                

     bravais-lattice index     =            2
     lattice parameter (alat)  =       8.8701  a.u.
     unit-cell volume          =     174.4745 (a.u.)^3
     number of atoms/cell      =            1
     number of atomic types    =            1
     kinetic-energy cut-off    =      40.0000  Ry
     charge density cut-off    =     320.0000  Ry
     convergence threshold     =      1.0E-16
     beta                      =       0.7000
     number of iterations used =            4
     Exchange-correlation      = SLA  PW   PBE  PBE ( 1  4  3  4 0 0)


     celldm(1)=    8.87014  celldm(2)=    0.00000  celldm(3)=    0.00000
     celldm(4)=    0.00000  celldm(5)=    0.00000  celldm(6)=    0.00000

     crystal axes: (cart. coord. in units of alat)
               a(1) = ( -0.5000  0.0000  0.5000 )  
               a(2) = (  0.0000  0.5000  0.5000 )  
               a(3) = ( -0.5000  0.5000  0.0000 )  

     reciprocal axes: (cart. coord. in units 2 pi/alat)
               b(1) = ( -1.0000 -1.0000  1.0000 )  
               b(2) = (  1.0000  1.0000  1.0000 )  
               b(3) = ( -1.0000  1.0000 -1.0000 )  


     Atoms inside the unit cell: 

     Cartesian axes

     site n.  atom      mass           positions (alat units)
        1     Na  22.9900   tau(    1) = (    0.00000    0.00000    0.00000  )

     Computing dynamical matrix for 
                    q = (   0.6666667  -0.3333333   0.6666667 )

      2 Sym.Ops. (no q -> -q+G )


     G cutoff =  637.7515  (   1053 G-vectors)     FFT grid: ( 36, 36, 36)
     G cutoff =  318.8758  (    374 G-vectors)  smooth grid: ( 25, 25, 25)

     number of k points= 32800  Marzari-Vanderbilt smearing, width (Ry)=  0.0200

     PseudoPot. # 1 for Na read from file:
     /home/s1333534/quantum_espresso/qe-6.1/pseudo/Na_pbe_v1.uspp.F.UPF
     MD5 check sum: 76a99c7e9422403d3e93cbc85ab7bccb
     Pseudo is Ultrasoft, Zval =  9.0
     Generated by new atomic code, or converted to UPF format
     Using radial grid of  819 points,  5 beta functions with: 
                l(1) =   0
                l(2) =   0
                l(3) =   1
                l(4) =   1
                l(5) =   2
     Q(r) pseudized with  8 coefficients,  rinner =    1.250   1.250   1.250
                                                       1.250   1.250

     Mode symmetry, C_s (m)     point group:


     Atomic displacements:
     There are   3 irreducible representations

     Representation     1      1 modes -A'  To be done

     Representation     2      1 modes -A'  To be done

     Representation     3      1 modes -A''  To be done



     Alpha used in Ewald sum =   2.8000
     PHONON       :     1h15m CPU        1h22m WALL



     Representation #  1 mode #   1

     Self-consistent Calculation

      iter #   1 total cpu time :  5004.6 secs   av.it.:   5.8
      thresh= 1.000E-02 alpha_mix =  0.700 |ddv_scf|^2 =  9.629E-05

      iter #   2 total cpu time :  5063.0 secs   av.it.:   7.4
      thresh= 9.813E-04 alpha_mix =  0.700 |ddv_scf|^2 =  6.287E-05

      iter #   3 total cpu time :  5118.7 secs   av.it.:   7.1
      thresh= 7.929E-04 alpha_mix =  0.700 |ddv_scf|^2 =  1.271E-07

      iter #   4 total cpu time :  5182.3 secs   av.it.:   8.2
      thresh= 3.565E-05 alpha_mix =  0.700 |ddv_scf|^2 =  9.349E-09

      iter #   5 total cpu time :  5243.9 secs   av.it.:   8.1
      thresh= 9.669E-06 alpha_mix =  0.700 |ddv_scf|^2 =  5.048E-10

      iter #   6 total cpu time :  5303.7 secs   av.it.:   7.9
      thresh= 2.247E-06 alpha_mix =  0.700 |ddv_scf|^2 =  8.768E-12

      iter #   7 total cpu time :  5364.5 secs   av.it.:   8.2
      thresh= 2.961E-07 alpha_mix =  0.700 |ddv_scf|^2 =  3.375E-13

      iter #   8 total cpu time :  5426.5 secs   av.it.:   8.3
      thresh= 5.809E-08 alpha_mix =  0.700 |ddv_scf|^2 =  2.618E-14

      iter #   9 total cpu time :  5486.4 secs   av.it.:   7.9
      thresh= 1.618E-08 alpha_mix =  0.700 |ddv_scf|^2 =  1.823E-15

      iter #  10 total cpu time :  5544.1 secs   av.it.:   7.4
      thresh= 4.270E-09 alpha_mix =  0.700 |ddv_scf|^2 =  6.608E-17

     End of self-consistent calculation

     Convergence has been achieved 


     Representation #  2 mode #   2

     Self-consistent Calculation

      iter #   1 total cpu time :  5600.0 secs   av.it.:   5.8
      thresh= 1.000E-02 alpha_mix =  0.700 |ddv_scf|^2 =  5.002E-05

      iter #   2 total cpu time :  5658.9 secs   av.it.:   7.7
      thresh= 7.072E-04 alpha_mix =  0.700 |ddv_scf|^2 =  2.007E-05

      iter #   3 total cpu time :  5716.6 secs   av.it.:   7.3
      thresh= 4.480E-04 alpha_mix =  0.700 |ddv_scf|^2 =  5.232E-07

      iter #   4 total cpu time :  5775.1 secs   av.it.:   7.6
      thresh= 7.233E-05 alpha_mix =  0.700 |ddv_scf|^2 =  1.416E-08

      iter #   5 total cpu time :  5837.4 secs   av.it.:   8.1
      thresh= 1.190E-05 alpha_mix =  0.700 |ddv_scf|^2 =  3.608E-10

      iter #   6 total cpu time :  5898.0 secs   av.it.:   8.1
      thresh= 1.899E-06 alpha_mix =  0.700 |ddv_scf|^2 =  2.394E-11

      iter #   7 total cpu time :  5959.1 secs   av.it.:   8.2
      thresh= 4.893E-07 alpha_mix =  0.700 |ddv_scf|^2 =  1.136E-12

      iter #   8 total cpu time :  6021.6 secs   av.it.:   8.3
      thresh= 1.066E-07 alpha_mix =  0.700 |ddv_scf|^2 =  3.283E-14

      iter #   9 total cpu time :  6081.0 secs   av.it.:   7.9
      thresh= 1.812E-08 alpha_mix =  0.700 |ddv_scf|^2 =  7.283E-15

      iter #  10 total cpu time :  6138.3 secs   av.it.:   7.5
      thresh= 8.534E-09 alpha_mix =  0.700 |ddv_scf|^2 =  1.354E-16

      iter #  11 total cpu time :  6199.6 secs   av.it.:   8.1
      thresh= 1.164E-09 alpha_mix =  0.700 |ddv_scf|^2 =  3.465E-18

     End of self-consistent calculation

     Convergence has been achieved 


     Representation #  3 mode #   3

     Self-consistent Calculation

      iter #   1 total cpu time :  6254.4 secs   av.it.:   5.5
      thresh= 1.000E-02 alpha_mix =  0.700 |ddv_scf|^2 =  1.447E-05

      iter #   2 total cpu time :  6314.2 secs   av.it.:   7.8
      thresh= 3.804E-04 alpha_mix =  0.700 |ddv_scf|^2 =  2.252E-07

      iter #   3 total cpu time :  6375.1 secs   av.it.:   8.0
      thresh= 4.746E-05 alpha_mix =  0.700 |ddv_scf|^2 =  7.401E-09

      iter #   4 total cpu time :  6432.7 secs   av.it.:   7.6
      thresh= 8.603E-06 alpha_mix =  0.700 |ddv_scf|^2 =  2.648E-11

      iter #   5 total cpu time :  6492.9 secs   av.it.:   7.8
      thresh= 5.146E-07 alpha_mix =  0.700 |ddv_scf|^2 =  3.108E-14

      iter #   6 total cpu time :  6548.7 secs   av.it.:   7.2
      thresh= 1.763E-08 alpha_mix =  0.700 |ddv_scf|^2 =  1.594E-15

      iter #   7 total cpu time :  6606.9 secs   av.it.:   7.7
      thresh= 3.993E-09 alpha_mix =  0.700 |ddv_scf|^2 =  1.367E-18

     End of self-consistent calculation

     Convergence has been achieved 

     Number of q in the star =   24
     List of q in the star:
          1   0.666666667  -0.333333333   0.666666667
          2  -0.666666667  -0.333333333  -0.666666667
          3   0.666666667  -0.333333333  -0.666666667
          4  -0.666666667  -0.333333333   0.666666667
          5  -0.333333333   0.666666667  -0.666666667
          6  -0.666666667   0.666666667  -0.333333333
          7   0.666666667   0.333333333   0.666666667
          8  -0.666666667   0.333333333   0.666666667
          9   0.666666667   0.333333333  -0.666666667
         10  -0.333333333   0.666666667   0.666666667
         11   0.333333333   0.666666667  -0.666666667
         12  -0.333333333  -0.666666667  -0.666666667
         13   0.666666667  -0.666666667   0.333333333
         14   0.666666667   0.666666667  -0.333333333
         15  -0.666666667  -0.666666667  -0.333333333
         16  -0.666666667   0.666666667   0.333333333
         17   0.333333333  -0.666666667   0.666666667
         18   0.333333333   0.666666667   0.666666667
         19  -0.666666667   0.333333333  -0.666666667
         20  -0.333333333  -0.666666667   0.666666667
         21  -0.666666667  -0.666666667   0.333333333
         22   0.666666667   0.666666667   0.333333333
         23   0.333333333  -0.666666667  -0.666666667
         24   0.666666667  -0.666666667  -0.333333333

     Diagonalizing the dynamical matrix

     q = (    0.666666667  -0.333333333   0.666666667 ) 

 **************************************************************************
     freq (    1) =       2.660327 [THz] =      88.738942 [cm-1]
     freq (    2) =       3.355567 [THz] =     111.929667 [cm-1]
     freq (    3) =       6.013442 [THz] =     200.586820 [cm-1]
 **************************************************************************

     Mode symmetry, C_s (m)     point group:

     freq (  1 -  1) =         88.7  [cm-1]   --> A''                
     freq (  2 -  2) =        111.9  [cm-1]   --> A'                 
     freq (  3 -  3) =        200.6  [cm-1]   --> A'                 

     Calculation of q =    0.5000000  -0.1666667   0.5000000

   Info: using nr1, nr2, nr3 values from input

   Info: using nr1, nr2, nr3 values from input

     Parallelization info
     --------------------
     sticks:   dense  smooth     PW     G-vecs:    dense   smooth      PW
     Min          53      27     10                 1052      372      90
     Max          54      28     11                 1055      375      94
     Sum         859     433    163                16865     5961    1459



     bravais-lattice index     =            2
     lattice parameter (alat)  =       8.8701  a.u.
     unit-cell volume          =     174.4745 (a.u.)^3
     number of atoms/cell      =            1
     number of atomic types    =            1
     number of electrons       =         9.00
     number of Kohn-Sham states=            9
     kinetic-energy cutoff     =      40.0000  Ry
     charge density cutoff     =     320.0000  Ry
     Exchange-correlation      = SLA  PW   PBE  PBE ( 1  4  3  4 0 0)

     celldm(1)=   8.870143  celldm(2)=   0.000000  celldm(3)=   0.000000
     celldm(4)=   0.000000  celldm(5)=   0.000000  celldm(6)=   0.000000

     crystal axes: (cart. coord. in units of alat)
               a(1) = (  -0.500000   0.000000   0.500000 )  
               a(2) = (   0.000000   0.500000   0.500000 )  
               a(3) = (  -0.500000   0.500000   0.000000 )  

     reciprocal axes: (cart. coord. in units 2 pi/alat)
               b(1) = ( -1.000000 -1.000000  1.000000 )  
               b(2) = (  1.000000  1.000000  1.000000 )  
               b(3) = ( -1.000000  1.000000 -1.000000 )  


     PseudoPot. # 1 for Na read from file:
     /home/s1333534/quantum_espresso/qe-6.1/pseudo/Na_pbe_v1.uspp.F.UPF
     MD5 check sum: 76a99c7e9422403d3e93cbc85ab7bccb
     Pseudo is Ultrasoft, Zval =  9.0
     Generated by new atomic code, or converted to UPF format
     Using radial grid of  819 points,  5 beta functions with: 
                l(1) =   0
                l(2) =   0
                l(3) =   1
                l(4) =   1
                l(5) =   2
     Q(r) pseudized with  8 coefficients,  rinner =    1.250   1.250   1.250
                                                       1.250   1.250

     atomic species   valence    mass     pseudopotential
        Na             9.00    22.99000     Na( 1.00)

     48 Sym. Ops., with inversion, found



   Cartesian axes

     site n.     atom                  positions (alat units)
         1           Na  tau(   1) = (   0.0000000   0.0000000   0.0000000  )

     number of k points= 32800  Marzari-Vanderbilt smearing, width (Ry)=  0.0200

     Number of k-points >= 100: set verbosity='high' to print them.

     Dense  grid:    16865 G-vectors     FFT dimensions: (  36,  36,  36)

     Smooth grid:     5961 G-vectors     FFT dimensions: (  25,  25,  25)

     Estimated max dynamical RAM per process >       0.58MB

     Estimated total allocated dynamical RAM >      37.06MB

     The potential is recalculated from file :
     ./_ph0/na.fcc.save/charge-density.dat

     Starting wfc are    5 atomic +    4 random wfc

     Band Structure Calculation
     Davidson diagonalization with overlap

     ethr =  1.11E-10,  avg # of iterations = 17.4

     total cpu time spent up to now is     1928.6 secs

     End of band structure calculation

     Number of k-points >= 100: set verbosity='high' to print the bands.

     the Fermi energy is     3.4366 ev

     Writing output data file na.fcc.save

                                                                                

     bravais-lattice index     =            2
     lattice parameter (alat)  =       8.8701  a.u.
     unit-cell volume          =     174.4745 (a.u.)^3
     number of atoms/cell      =            1
     number of atomic types    =            1
     kinetic-energy cut-off    =      40.0000  Ry
     charge density cut-off    =     320.0000  Ry
     convergence threshold     =      1.0E-16
     beta                      =       0.7000
     number of iterations used =            4
     Exchange-correlation      = SLA  PW   PBE  PBE ( 1  4  3  4 0 0)


     celldm(1)=    8.87014  celldm(2)=    0.00000  celldm(3)=    0.00000
     celldm(4)=    0.00000  celldm(5)=    0.00000  celldm(6)=    0.00000

     crystal axes: (cart. coord. in units of alat)
               a(1) = ( -0.5000  0.0000  0.5000 )  
               a(2) = (  0.0000  0.5000  0.5000 )  
               a(3) = ( -0.5000  0.5000  0.0000 )  

     reciprocal axes: (cart. coord. in units 2 pi/alat)
               b(1) = ( -1.0000 -1.0000  1.0000 )  
               b(2) = (  1.0000  1.0000  1.0000 )  
               b(3) = ( -1.0000  1.0000 -1.0000 )  


     Atoms inside the unit cell: 

     Cartesian axes

     site n.  atom      mass           positions (alat units)
        1     Na  22.9900   tau(    1) = (    0.00000    0.00000    0.00000  )

     Computing dynamical matrix for 
                    q = (   0.5000000  -0.1666667   0.5000000 )

      2 Sym.Ops. (no q -> -q+G )


     G cutoff =  637.7515  (   1053 G-vectors)     FFT grid: ( 36, 36, 36)
     G cutoff =  318.8758  (    374 G-vectors)  smooth grid: ( 25, 25, 25)

     number of k points= 32800  Marzari-Vanderbilt smearing, width (Ry)=  0.0200

     PseudoPot. # 1 for Na read from file:
     /home/s1333534/quantum_espresso/qe-6.1/pseudo/Na_pbe_v1.uspp.F.UPF
     MD5 check sum: 76a99c7e9422403d3e93cbc85ab7bccb
     Pseudo is Ultrasoft, Zval =  9.0
     Generated by new atomic code, or converted to UPF format
     Using radial grid of  819 points,  5 beta functions with: 
                l(1) =   0
                l(2) =   0
                l(3) =   1
                l(4) =   1
                l(5) =   2
     Q(r) pseudized with  8 coefficients,  rinner =    1.250   1.250   1.250
                                                       1.250   1.250

     Mode symmetry, C_s (m)     point group:


     Atomic displacements:
     There are   3 irreducible representations

     Representation     1      1 modes -A'  To be done

     Representation     2      1 modes -A'  To be done

     Representation     3      1 modes -A''  To be done



     Alpha used in Ewald sum =   2.8000
     PHONON       :     1h48m CPU        1h58m WALL



     Representation #  1 mode #   1

     Self-consistent Calculation

      iter #   1 total cpu time :  7191.9 secs   av.it.:   5.8
[...]

      iter #   4 total cpu time : 17642.8 secs   av.it.:   8.2
      thresh= 2.046E-05 alpha_mix =  0.700 |ddv_scf|^2 =  9.995E-10

      iter #   5 total cpu time : 17707.3 secs   av.it.:   7.8
      thresh= 3.161E-06 alpha_mix =  0.700 |ddv_scf|^2 =  3.194E-11

      iter #   6 total cpu time : 17769.5 secs   av.it.:   7.6
      thresh= 5.651E-07 alpha_mix =  0.700 |ddv_scf|^2 =  6.051E-14

      iter #   7 total cpu time : 17833.4 secs   av.it.:   7.9
      thresh= 2.460E-08 alpha_mix =  0.700 |ddv_scf|^2 =  4.413E-15

      iter #   8 total cpu time : 17897.5 secs   av.it.:   7.9
      thresh= 6.643E-09 alpha_mix =  0.700 |ddv_scf|^2 =  1.338E-17

     End of self-consistent calculation

     Convergence has been achieved 

     Number of q in the star =   24
     List of q in the star:
          1   0.500000000  -0.166666667   0.833333333
          2   0.833333333   0.166666667   0.500000000
          3   0.500000000   0.166666667   0.833333333
          4  -0.833333333  -0.166666667   0.500000000
          5  -0.833333333  -0.166666667  -0.500000000
          6  -0.500000000  -0.166666667  -0.833333333
          7   0.833333333  -0.166666667   0.500000000
          8  -0.500000000  -0.166666667   0.833333333
          9  -0.833333333   0.166666667   0.500000000
         10   0.833333333   0.166666667  -0.500000000
         11   0.833333333  -0.166666667  -0.500000000
         12   0.500000000   0.166666667  -0.833333333
         13  -0.500000000   0.166666667   0.833333333
         14  -0.500000000   0.166666667  -0.833333333
         15  -0.833333333   0.166666667  -0.500000000
         16   0.833333333  -0.500000000   0.166666667
         17   0.833333333   0.500000000  -0.166666667
         18  -0.833333333  -0.500000000  -0.166666667
         19  -0.833333333   0.500000000   0.166666667
         20   0.166666667  -0.500000000   0.833333333
         21  -0.166666667   0.500000000   0.833333333
         22   0.166666667   0.500000000  -0.833333333
         23  -0.166666667  -0.500000000  -0.833333333
         24  -0.500000000   0.833333333   0.166666667

     Diagonalizing the dynamical matrix

     q = (    0.500000000  -0.166666667   0.833333333 ) 

 **************************************************************************
     freq (    1) =       3.296211 [THz] =     109.949776 [cm-1]
     freq (    2) =       4.697669 [THz] =     156.697363 [cm-1]
     freq (    3) =       5.662629 [THz] =     188.884955 [cm-1]
 **************************************************************************

     Mode symmetry, C_2  (2)    point group:

     freq (  1 -  1) =        109.9  [cm-1]   --> B                  
     freq (  2 -  2) =        156.7  [cm-1]   --> A                  
     freq (  3 -  3) =        188.9  [cm-1]   --> B                  

     Calculation of q =   -0.3333333  -1.0000000   0.0000000

   Info: using nr1, nr2, nr3 values from input

   Info: using nr1, nr2, nr3 values from input

     Parallelization info
     --------------------
     sticks:   dense  smooth     PW     G-vecs:    dense   smooth      PW
     Min          53      27     11                 1052      372     101
     Max          54      28     12                 1055      375     103
     Sum         859     433    187                16865     5961    1639



     bravais-lattice index     =            2
     lattice parameter (alat)  =       8.8701  a.u.
     unit-cell volume          =     174.4745 (a.u.)^3
     number of atoms/cell      =            1
     number of atomic types    =            1
     number of electrons       =         9.00
     number of Kohn-Sham states=            9
     kinetic-energy cutoff     =      40.0000  Ry
     charge density cutoff     =     320.0000  Ry
     Exchange-correlation      = SLA  PW   PBE  PBE ( 1  4  3  4 0 0)

     celldm(1)=   8.870143  celldm(2)=   0.000000  celldm(3)=   0.000000
     celldm(4)=   0.000000  celldm(5)=   0.000000  celldm(6)=   0.000000

     crystal axes: (cart. coord. in units of alat)
               a(1) = (  -0.500000   0.000000   0.500000 )  
               a(2) = (   0.000000   0.500000   0.500000 )  
               a(3) = (  -0.500000   0.500000   0.000000 )  

     reciprocal axes: (cart. coord. in units 2 pi/alat)
               b(1) = ( -1.000000 -1.000000  1.000000 )  
               b(2) = (  1.000000  1.000000  1.000000 )  
               b(3) = ( -1.000000  1.000000 -1.000000 )  


     PseudoPot. # 1 for Na read from file:
     /home/s1333534/quantum_espresso/qe-6.1/pseudo/Na_pbe_v1.uspp.F.UPF
     MD5 check sum: 76a99c7e9422403d3e93cbc85ab7bccb
     Pseudo is Ultrasoft, Zval =  9.0
     Generated by new atomic code, or converted to UPF format
     Using radial grid of  819 points,  5 beta functions with: 
                l(1) =   0
                l(2) =   0
                l(3) =   1
                l(4) =   1
                l(5) =   2
     Q(r) pseudized with  8 coefficients,  rinner =    1.250   1.250   1.250
                                                       1.250   1.250

     atomic species   valence    mass     pseudopotential
        Na             9.00    22.99000     Na( 1.00)

     48 Sym. Ops., with inversion, found



   Cartesian axes

     site n.     atom                  positions (alat units)
         1           Na  tau(   1) = (   0.0000000   0.0000000   0.0000000  )

     number of k points= 16000  Marzari-Vanderbilt smearing, width (Ry)=  0.0200

     Number of k-points >= 100: set verbosity='high' to print them.

     Dense  grid:    16865 G-vectors     FFT dimensions: (  36,  36,  36)

     Smooth grid:     5961 G-vectors     FFT dimensions: (  25,  25,  25)

     Estimated max dynamical RAM per process >       0.58MB

     Estimated total allocated dynamical RAM >      37.06MB

     The potential is recalculated from file :
     ./_ph0/na.fcc.save/charge-density.dat

     Starting wfc are    5 atomic +    4 random wfc

     Band Structure Calculation
     Davidson diagonalization with overlap

     ethr =  1.11E-10,  avg # of iterations = 17.3

     total cpu time spent up to now is     4448.6 secs

     End of band structure calculation

     Number of k-points >= 100: set verbosity='high' to print the bands.

     the Fermi energy is     3.4366 ev

     Writing output data file na.fcc.save

                                                                                

     bravais-lattice index     =            2
     lattice parameter (alat)  =       8.8701  a.u.
     unit-cell volume          =     174.4745 (a.u.)^3
     number of atoms/cell      =            1
     number of atomic types    =            1
     kinetic-energy cut-off    =      40.0000  Ry
     charge density cut-off    =     320.0000  Ry
     convergence threshold     =      1.0E-16
     beta                      =       0.7000
     number of iterations used =            4
     Exchange-correlation      = SLA  PW   PBE  PBE ( 1  4  3  4 0 0)


     celldm(1)=    8.87014  celldm(2)=    0.00000  celldm(3)=    0.00000
     celldm(4)=    0.00000  celldm(5)=    0.00000  celldm(6)=    0.00000

     crystal axes: (cart. coord. in units of alat)
               a(1) = ( -0.5000  0.0000  0.5000 )  
               a(2) = (  0.0000  0.5000  0.5000 )  
               a(3) = ( -0.5000  0.5000  0.0000 )  

     reciprocal axes: (cart. coord. in units 2 pi/alat)
               b(1) = ( -1.0000 -1.0000  1.0000 )  
               b(2) = (  1.0000  1.0000  1.0000 )  
               b(3) = ( -1.0000  1.0000 -1.0000 )  


     Atoms inside the unit cell: 

     Cartesian axes

     site n.  atom      mass           positions (alat units)
        1     Na  22.9900   tau(    1) = (    0.00000    0.00000    0.00000  )

     Computing dynamical matrix for 
                    q = (  -0.3333333  -1.0000000   0.0000000 )

      4 Sym.Ops. (no q -> -q+G )


     G cutoff =  637.7515  (   1053 G-vectors)     FFT grid: ( 36, 36, 36)
     G cutoff =  318.8758  (    374 G-vectors)  smooth grid: ( 25, 25, 25)

     number of k points= 16000  Marzari-Vanderbilt smearing, width (Ry)=  0.0200

     PseudoPot. # 1 for Na read from file:
     /home/s1333534/quantum_espresso/qe-6.1/pseudo/Na_pbe_v1.uspp.F.UPF
     MD5 check sum: 76a99c7e9422403d3e93cbc85ab7bccb
     Pseudo is Ultrasoft, Zval =  9.0
     Generated by new atomic code, or converted to UPF format
     Using radial grid of  819 points,  5 beta functions with: 
                l(1) =   0
                l(2) =   0
                l(3) =   1
                l(4) =   1
                l(5) =   2
     Q(r) pseudized with  8 coefficients,  rinner =    1.250   1.250   1.250
                                                       1.250   1.250

     Mode symmetry, C_2v (mm2)  point group:


     Atomic displacements:
     There are   3 irreducible representations

     Representation     1      1 modes -A_1  D_1  S_1  To be done

     Representation     2      1 modes -B_1  D_3  S_3  To be done

     Representation     3      1 modes -B_2  D_4  S_4  To be done



     Alpha used in Ewald sum =   2.8000
     PHONON       :     4h35m CPU        5h 2m WALL



     Representation #  1 mode #   1

     Self-consistent Calculation

      iter #   1 total cpu time : 18190.0 secs   av.it.:   5.6
      thresh= 1.000E-02 alpha_mix =  0.700 |ddv_scf|^2 =  2.219E-05

      iter #   2 total cpu time : 18220.2 secs   av.it.:   7.9
      thresh= 4.711E-04 alpha_mix =  0.700 |ddv_scf|^2 =  7.054E-07

      iter #   3 total cpu time : 18249.7 secs   av.it.:   7.7
      thresh= 8.399E-05 alpha_mix =  0.700 |ddv_scf|^2 =  2.106E-08

      iter #   4 total cpu time : 18280.7 secs   av.it.:   8.1
      thresh= 1.451E-05 alpha_mix =  0.700 |ddv_scf|^2 =  8.363E-10

      iter #   5 total cpu time : 18311.2 secs   av.it.:   8.0
      thresh= 2.892E-06 alpha_mix =  0.700 |ddv_scf|^2 =  5.576E-11

      iter #   6 total cpu time : 18342.4 secs   av.it.:   8.1
      thresh= 7.467E-07 alpha_mix =  0.700 |ddv_scf|^2 =  3.889E-12

      iter #   7 total cpu time : 18372.8 secs   av.it.:   7.9
      thresh= 1.972E-07 alpha_mix =  0.700 |ddv_scf|^2 =  1.007E-13

      iter #   8 total cpu time : 18403.3 secs   av.it.:   7.8
      thresh= 3.173E-08 alpha_mix =  0.700 |ddv_scf|^2 =  5.480E-16

      iter #   9 total cpu time : 18434.0 secs   av.it.:   8.1
      thresh= 2.341E-09 alpha_mix =  0.700 |ddv_scf|^2 =  3.964E-17

     End of self-consistent calculation

     Convergence has been achieved 


     Representation #  2 mode #   2

     Self-consistent Calculation

      iter #   1 total cpu time : 18460.9 secs   av.it.:   5.6
      thresh= 1.000E-02 alpha_mix =  0.700 |ddv_scf|^2 =  2.454E-05

      iter #   2 total cpu time : 18490.7 secs   av.it.:   7.7
      thresh= 4.954E-04 alpha_mix =  0.700 |ddv_scf|^2 =  4.230E-07

      iter #   3 total cpu time : 18520.4 secs   av.it.:   7.7
      thresh= 6.504E-05 alpha_mix =  0.700 |ddv_scf|^2 =  2.140E-08

      iter #   4 total cpu time : 18551.0 secs   av.it.:   8.0
      thresh= 1.463E-05 alpha_mix =  0.700 |ddv_scf|^2 =  2.040E-10

      iter #   5 total cpu time : 18579.3 secs   av.it.:   7.3
      thresh= 1.428E-06 alpha_mix =  0.700 |ddv_scf|^2 =  1.669E-13

      iter #   6 total cpu time : 18608.2 secs   av.it.:   7.7
      thresh= 4.085E-08 alpha_mix =  0.700 |ddv_scf|^2 =  5.029E-15

      iter #   7 total cpu time : 18637.1 secs   av.it.:   7.6
      thresh= 7.092E-09 alpha_mix =  0.700 |ddv_scf|^2 =  4.163E-17

     End of self-consistent calculation

     Convergence has been achieved 


     Representation #  3 mode #   3

     Self-consistent Calculation

      iter #   1 total cpu time : 18665.0 secs   av.it.:   5.7
      thresh= 1.000E-02 alpha_mix =  0.700 |ddv_scf|^2 =  4.827E-05

      iter #   2 total cpu time : 18695.2 secs   av.it.:   7.5
      thresh= 6.947E-04 alpha_mix =  0.700 |ddv_scf|^2 =  4.319E-06

      iter #   3 total cpu time : 18724.2 secs   av.it.:   7.3
      thresh= 2.078E-04 alpha_mix =  0.700 |ddv_scf|^2 =  4.317E-08

      iter #   4 total cpu time : 18754.8 secs   av.it.:   8.1
      thresh= 2.078E-05 alpha_mix =  0.700 |ddv_scf|^2 =  1.781E-10

      iter #   5 total cpu time : 18783.2 secs   av.it.:   7.3
      thresh= 1.334E-06 alpha_mix =  0.700 |ddv_scf|^2 =  2.043E-13

      iter #   6 total cpu time : 18812.7 secs   av.it.:   7.6
      thresh= 4.520E-08 alpha_mix =  0.700 |ddv_scf|^2 =  8.204E-15

      iter #   7 total cpu time : 18840.9 secs   av.it.:   7.2
      thresh= 9.058E-09 alpha_mix =  0.700 |ddv_scf|^2 =  1.189E-17

     End of self-consistent calculation

     Convergence has been achieved 

     Number of q in the star =   12
     List of q in the star:
          1  -0.333333333  -1.000000000   0.000000000
          2   0.000000000  -1.000000000  -0.333333333
          3   0.000000000  -1.000000000   0.333333333
          4   0.333333333  -1.000000000   0.000000000
          5  -1.000000000   0.000000000  -0.333333333
          6   1.000000000   0.000000000   0.333333333
          7   0.000000000   0.333333333   1.000000000
          8   0.000000000  -0.333333333  -1.000000000
          9  -1.000000000  -0.333333333   0.000000000
         10   1.000000000   0.333333333   0.000000000
         11  -0.333333333   0.000000000   1.000000000
         12   0.333333333   0.000000000   1.000000000

     Diagonalizing the dynamical matrix

     q = (   -0.333333333  -1.000000000   0.000000000 ) 

 **************************************************************************
     freq (    1) =       3.833293 [THz] =     127.864881 [cm-1]
     freq (    2) =       4.639213 [THz] =     154.747493 [cm-1]
     freq (    3) =       5.822159 [THz] =     194.206329 [cm-1]
 **************************************************************************

     Mode symmetry, C_2v (mm2)  point group:

     freq (  1 -  1) =        127.9  [cm-1]   --> A_1  D_1  S_1      
     freq (  2 -  2) =        154.7  [cm-1]   --> B_1  D_3  S_3      
     freq (  3 -  3) =        194.2  [cm-1]   --> B_2  D_4  S_4      

     init_run     :      2.79s CPU      2.95s WALL (      15 calls)
     electrons    :   3377.98s CPU   3610.69s WALL (      15 calls)

     Called by init_run:
     wfcinit      :      0.00s CPU      0.00s WALL (      15 calls)
     potinit      :      0.33s CPU      0.34s WALL (      15 calls)

     Called by electrons:
     c_bands      :   3376.85s CPU   3609.54s WALL (      15 calls)
     v_of_rho     :      0.14s CPU      0.15s WALL (      16 calls)
     newd         :      0.12s CPU      0.13s WALL (      16 calls)

     Called by c_bands:
     init_us_2    :     74.38s CPU     82.19s WALL ( 1263394 calls)
     cegterg      :   2697.74s CPU   2910.97s WALL (   88069 calls)

     Called by sum_band:

     Called by *egterg:
     h_psi        :   9385.58s CPU  10337.24s WALL (11493843 calls)
     s_psi        :    307.81s CPU    346.82s WALL (22482971 calls)
     g_psi        :      8.72s CPU      9.54s WALL ( 1327252 calls)
     cdiaghg      :    841.42s CPU    900.73s WALL ( 1400678 calls)

     Called by h_psi:
     h_psi:pot    :   9306.26s CPU  10246.66s WALL (11493843 calls)
     h_psi:calbec :    688.84s CPU    754.57s WALL (11493843 calls)
     vloc_psi     :   8327.22s CPU   9172.26s WALL (11493843 calls)
     add_vuspsi   :    166.13s CPU    186.62s WALL (11493843 calls)

     General routines
     calbec       :   1316.18s CPU   1446.22s WALL (24536698 calls)
     fft          :      3.73s CPU      4.29s WALL (    6466 calls)
     ffts         :     12.46s CPU     13.74s WALL (  112702 calls)
     fftw         :   9049.24s CPU  10021.94s WALL (******** calls)
     interpolate  :      0.60s CPU      0.75s WALL (     886 calls)
     davcio       :    118.85s CPU    190.58s WALL ( 5126614 calls)

     Parallel routines
     fft_scatter  :   5150.14s CPU   5692.56s WALL (******** calls)

     PHONON       :     4h45m CPU        5h14m WALL

     INITIALIZATION: 
     phq_setup    :      0.57s CPU      0.62s WALL (      16 calls)
     phq_init     :    203.12s CPU    216.82s WALL (      16 calls)

     phq_init     :    203.12s CPU    216.82s WALL (      16 calls)
     init_vloc    :      0.12s CPU      0.12s WALL (      16 calls)
     init_us_1    :      1.30s CPU      1.41s WALL (      16 calls)
     newd         :      0.12s CPU      0.13s WALL (      16 calls)
     dvanqq       :      0.49s CPU      0.50s WALL (      16 calls)
     drho         :    151.86s CPU    162.64s WALL (      16 calls)

     DYNAMICAL MATRIX:
     dynmat0      :     33.79s CPU     35.32s WALL (      16 calls)
     phqscf       :  12669.03s CPU  14121.29s WALL (      16 calls)
     dynmatrix    :      0.12s CPU      0.13s WALL (      16 calls)

     phqscf       :  12669.03s CPU  14121.29s WALL (      16 calls)
     solve_linter :  12613.44s CPU  14062.08s WALL (      40 calls)
     drhodv       :     55.34s CPU     58.83s WALL (      40 calls)

     dynmat0      :     33.79s CPU     35.32s WALL (      16 calls)
     dynmat_us    :     33.74s CPU     35.26s WALL (      16 calls)
     d2ionq       :      0.01s CPU      0.01s WALL (      16 calls)

     dynmat_us    :     33.74s CPU     35.26s WALL (      16 calls)
     addusdynmat  :      0.00s CPU      0.00s WALL (      16 calls)

     phqscf       :  12669.03s CPU  14121.29s WALL (      16 calls)
     solve_linter :  12613.44s CPU  14062.08s WALL (      40 calls)

     solve_linter :  12613.44s CPU  14062.08s WALL (      40 calls)
     dvqpsi_us    :    242.20s CPU    264.16s WALL (  110718 calls)
     ortho        :    195.87s CPU    213.51s WALL (  984032 calls)
     cgsolve      :  10014.42s CPU  11091.27s WALL (  984032 calls)
     incdrhoscf   :    905.19s CPU   1064.78s WALL (  984032 calls)
     addusddens   :      3.56s CPU      3.69s WALL (     389 calls)
     vpsifft      :    730.84s CPU    812.07s WALL (  873314 calls)
     dv_of_drho   :      2.80s CPU      3.15s WALL (     403 calls)
     mix_pot      :      0.61s CPU      2.34s WALL (     349 calls)
     ef_shift     :      0.03s CPU      0.12s WALL (       7 calls)
     localdos     :      0.24s CPU      0.25s WALL (       1 calls)
     psymdvscf    :     18.56s CPU     19.06s WALL (     349 calls)
     newdq        :      3.64s CPU      3.70s WALL (     349 calls)
     adddvscf     :     50.62s CPU     55.82s WALL (  873314 calls)
     drhodvus     :      0.01s CPU      0.01s WALL (      40 calls)

     dvqpsi_us    :    242.20s CPU    264.16s WALL (  110718 calls)
     dvqpsi_us_on :     51.11s CPU     54.53s WALL (  110718 calls)

     cgsolve      :  10014.42s CPU  11091.27s WALL (  984032 calls)
     ch_psi       :   9324.43s CPU  10322.28s WALL (10005096 calls)

     ch_psi       :   9324.43s CPU  10322.28s WALL (10005096 calls)
     h_psi        :   9385.58s CPU  10337.24s WALL (11493843 calls)
     last         :   1191.52s CPU   1321.80s WALL (10005096 calls)

     h_psi        :   9385.58s CPU  10337.24s WALL (11493843 calls)
     add_vuspsi   :    166.13s CPU    186.62s WALL (11493843 calls)

     incdrhoscf   :    905.19s CPU   1064.78s WALL (  984032 calls)
     addusdbec    :     94.54s CPU    103.81s WALL ( 1094750 calls)

     drhodvus     :      0.01s CPU      0.01s WALL (      40 calls)

      General routines
     calbec       :   1316.18s CPU   1446.22s WALL (24536698 calls)
     fft          :      3.73s CPU      4.29s WALL (    6466 calls)
     ffts         :     12.46s CPU     13.74s WALL (  112702 calls)
     fftw         :   9049.24s CPU  10021.94s WALL (******** calls)
     davcio       :    118.85s CPU    190.58s WALL ( 5126614 calls)
     write_rec    :      1.47s CPU      3.27s WALL (     389 calls)


     PHONON       :     4h45m CPU        5h14m WALL


   This run was terminated on:   4:59:40  29Jan2018            

=------------------------------------------------------------------------------=
   JOB DONE.
=------------------------------------------------------------------------------=
