
     Program PHONON v.5.2.0 starts on 19Aug2016 at 12:14:30 

     This program is part of the open-source Quantum ESPRESSO suite
     for quantum simulation of materials; please cite
         "P. Giannozzi et al., J. Phys.:Condens. Matter 21 395502 (2009);
          URL http://www.quantum-espresso.org", 
     in publications or presentations arising from this work. More details at
     http://www.quantum-espresso.org/quote

     Parallel version (MPI), running on   192 processors
     K-points division:     npool     =     192

     Reading data from directory:
     ./tmp/li-bcc.save

   Info: using nr1, nr2, nr3 values from input

   Info: using nr1, nr2, nr3 values from input

     IMPORTANT: XC functional enforced from input :
     Exchange-correlation      =  SLA  PW   PBX  PBC ( 1  4  3  4 0 0)
     Any further DFT definition will be discarded
     Please, verify this is what you really want

 
     G-vector sticks info
     --------------------
     sticks:   dense  smooth     PW     G-vecs:    dense   smooth      PW
     Sum         969     483    155                19141     6819    1205
 


     Dynamical matrices for (10,10,10)  uniform grid of q-points
     (  47q-points):
       N         xq(1)         xq(2)         xq(3) 
       1   0.000000000   0.000000000   0.000000000
       2   0.000000000  -0.100000000   0.100000000
       3   0.000000000  -0.200000000   0.200000000
       4   0.000000000  -0.300000000   0.300000000
       5   0.000000000  -0.400000000   0.400000000
       6   0.000000000   0.500000000  -0.500000000
       7  -0.100000000  -0.100000000   0.200000000
       8  -0.100000000  -0.200000000   0.300000000
       9  -0.100000000  -0.300000000   0.400000000
      10  -0.100000000   0.600000000  -0.500000000
      11  -0.200000000  -0.200000000   0.400000000
      12  -0.200000000   0.700000000  -0.500000000
      13  -0.200000000   0.600000000  -0.400000000
      14  -0.300000000   0.700000000  -0.400000000
      15   0.000000000   0.000000000   0.200000000
      16   0.000000000  -0.100000000   0.300000000
      17   0.000000000  -0.200000000   0.400000000
      18   0.000000000  -0.300000000   0.500000000
      19   0.000000000   0.600000000  -0.400000000
      20  -0.100000000  -0.100000000   0.400000000
      21  -0.100000000  -0.200000000   0.500000000
      22  -0.100000000   0.700000000  -0.400000000
      23  -0.200000000   0.200000000   0.200000000
      24  -0.200000000   0.800000000  -0.400000000
      25  -0.200000000   0.700000000  -0.300000000
      26  -0.300000000   0.300000000   0.200000000
      27   0.600000000  -0.600000000   0.200000000
      28   0.600000000  -0.700000000   0.300000000
      29   0.500000000  -0.500000000   0.200000000
      30   0.500000000  -0.600000000   0.300000000
      31   0.400000000  -0.600000000   0.400000000
      32   0.000000000   0.000000000   0.400000000
      33   0.000000000  -0.100000000   0.500000000
      34   0.000000000  -0.200000000   0.600000000
      35   0.000000000   0.700000000  -0.300000000
      36  -0.100000000  -0.100000000   0.600000000
      37  -0.100000000   0.800000000  -0.300000000
      38  -0.200000000   0.800000000  -0.200000000
      39   0.600000000  -0.600000000   0.400000000
      40   0.500000000  -0.500000000   0.400000000
      41   0.000000000   0.000000000   0.600000000
      42   0.000000000  -0.100000000   0.700000000
      43   0.000000000   0.800000000  -0.200000000
      44  -0.100000000   0.900000000  -0.200000000
      45   0.000000000   0.000000000   0.800000000
      46   0.000000000   0.900000000  -0.100000000
      47   0.000000000   0.000000000  -1.000000000

     Calculation of q =    0.0000000  -0.1000000   0.1000000
 
     G-vector sticks info
     --------------------
     sticks:   dense  smooth     PW     G-vecs:    dense   smooth      PW
     Sum         969     483    165                19141     6819    1289
 


     bravais-lattice index     =            3
     lattice parameter (alat)  =       5.9909  a.u.
     unit-cell volume          =     107.5096 (a.u.)^3
     number of atoms/cell      =            1
     number of atomic types    =            1
     number of electrons       =         3.00
     number of Kohn-Sham states=            6
     kinetic-energy cutoff     =      60.0000  Ry
     charge density cutoff     =     480.0000  Ry
     Exchange-correlation      =  SLA  PW   PBX  PBC ( 1  4  3  4 0 0)

     celldm(1)=   5.990904  celldm(2)=   0.000000  celldm(3)=   0.000000
     celldm(4)=   0.000000  celldm(5)=   0.000000  celldm(6)=   0.000000

     crystal axes: (cart. coord. in units of alat)
               a(1) = (   0.500000   0.500000   0.500000 )  
               a(2) = (  -0.500000   0.500000   0.500000 )  
               a(3) = (  -0.500000  -0.500000   0.500000 )  

     reciprocal axes: (cart. coord. in units 2 pi/alat)
               b(1) = (  1.000000  0.000000  1.000000 )  
               b(2) = ( -1.000000  1.000000  0.000000 )  
               b(3) = (  0.000000 -1.000000  1.000000 )  


     PseudoPot. # 1 for Li read from file:
     ../Li.pbe-s-gbrv14.UPF
     MD5 check sum: 7ca33c4f951f001da2db5c8738379802
     Pseudo is Ultrasoft, Zval =  3.0
     Generated by new atomic code, or converted to UPF format
     Using radial grid of  751 points,  5 beta functions with: 
                l(1) =   0
                l(2) =   0
                l(3) =   0
                l(4) =   1
                l(5) =   1
     Q(r) pseudized with 10 coefficients,  rinner =    1.150   1.150   1.150


     atomic species   valence    mass     pseudopotential
        Li             3.00     6.94100     Li( 1.00)

     48 Sym. Ops., with inversion, found



   Cartesian axes

     site n.     atom                  positions (alat units)
         1           Li  tau(   1) = (   0.0000000   0.0000000   0.0000000  )

     number of k points= 14400  Marzari-Vanderbilt smearing, width (Ry)=  0.0200

     Number of k-points >= 100: set verbosity='high' to print them.

     Dense  grid:    19141 G-vectors     FFT dimensions: (  40,  40,  40)

     Smooth grid:     6819 G-vectors     FFT dimensions: (  25,  25,  25)

     Largest allocated arrays     est. size (Mb)     dimensions
        Kohn-Sham Wavefunctions         0.08 Mb     (     887,    6)
        NL pseudopotentials             0.12 Mb     (     887,    9)
        Each V/rho on FFT grid          0.98 Mb     (   64000)
        Each G-vector array             0.15 Mb     (   19141)
        G-vector shells                 0.00 Mb     (     203)
     Largest temporary arrays     est. size (Mb)     dimensions
        Auxiliary wavefunctions         0.32 Mb     (     887,   24)
        Each subspace H/S matrix        0.01 Mb     (      24,   24)
        Each <psi_i|beta_j> matrix      0.00 Mb     (       9,    6)

     The potential is recalculated from file :
     ./tmp/_ph0/li-bcc.save/charge-density.dat

     Starting wfc are    5 atomic +    1 random wfc

     Band Structure Calculation
     Davidson diagonalization with overlap

     ethr =  3.33E-10,  avg # of iterations = 16.4

     total cpu time spent up to now is        8.0 secs

     End of band structure calculation

     Number of k-points >= 100: set verbosity='high' to print the bands.

     the Fermi energy is     1.7963 ev

                                                                                

     bravais-lattice index     =            3
     lattice parameter (alat)  =       5.9909  a.u.
     unit-cell volume          =     107.5096 (a.u.)^3
     number of atoms/cell      =            1
     number of atomic types    =            1
     kinetic-energy cut-off    =      60.0000  Ry
     charge density cut-off    =     480.0000  Ry
     convergence threshold     =      1.0E-18
     beta                      =       0.7000
     number of iterations used =            4
     Exchange-correlation      =  SLA  PW   PBX  PBC ( 1  4  3  4 0 0)


     celldm(1)=    5.99090  celldm(2)=    0.00000  celldm(3)=    0.00000
     celldm(4)=    0.00000  celldm(5)=    0.00000  celldm(6)=    0.00000

     crystal axes: (cart. coord. in units of alat)
               a(1) = (  0.5000  0.5000  0.5000 )  
               a(2) = ( -0.5000  0.5000  0.5000 )  
               a(3) = ( -0.5000 -0.5000  0.5000 )  

     reciprocal axes: (cart. coord. in units 2 pi/alat)
               b(1) = (  1.0000  0.0000  1.0000 )  
               b(2) = ( -1.0000  1.0000  0.0000 )  
               b(3) = (  0.0000 -1.0000  1.0000 )  


     Atoms inside the unit cell: 

     Cartesian axes

     site n.  atom      mass           positions (alat units)
        1     Li   6.9410   tau(    1) = (    0.00000    0.00000    0.00000  )

     Computing dynamical matrix for 
                    q = (   0.0000000  -0.1000000   0.1000000 )
 
      4 Sym.Ops. (no q -> -q+G )


     G cutoff =  436.3814  (  19141 G-vectors)     FFT grid: ( 40, 40, 40)
     G cutoff =  218.1907  (   6819 G-vectors)  smooth grid: ( 25, 25, 25)

     number of k points= 14400  Marzari-Vanderbilt smearing, width (Ry)=  0.0200

     PseudoPot. # 1 for Li read from file:
     ../Li.pbe-s-gbrv14.UPF
     MD5 check sum: 7ca33c4f951f001da2db5c8738379802
     Pseudo is Ultrasoft, Zval =  3.0
     Generated by new atomic code, or converted to UPF format
     Using radial grid of  751 points,  5 beta functions with: 
                l(1) =   0
                l(2) =   0
                l(3) =   0
                l(4) =   1
                l(5) =   1
     Q(r) pseudized with 10 coefficients,  rinner =    1.150   1.150   1.150


     Mode symmetry, C_2v (mm2)  point group:


     Atomic displacements:
     There are   3 irreducible representations

     Representation     1      1 modes -A_1  D_1  S_1  To be done

     Representation     2      1 modes -B_1  D_3  S_3  To be done

     Representation     3      1 modes -B_2  D_4  S_4  To be done



     Alpha used in Ewald sum =   2.8000
     PHONON       :    18.62s CPU        24.51s WALL



     Representation #  1 mode #   1

     Self-consistent Calculation

      iter #   1 total cpu time :    25.3 secs   av.it.:   6.5
      thresh= 1.000E-02 alpha_mix =  0.700 |ddv_scf|^2 =  3.630E-01

      iter #   2 total cpu time :    26.3 secs   av.it.:   8.3
      thresh= 1.000E-02 alpha_mix =  0.700 |ddv_scf|^2 =  7.251E+02

      iter #   3 total cpu time :    27.2 secs   av.it.:   8.3
      thresh= 1.000E-02 alpha_mix =  0.700 |ddv_scf|^2 =  1.418E-02

      iter #   4 total cpu time :    27.9 secs   av.it.:   3.6
      thresh= 1.000E-02 alpha_mix =  0.700 |ddv_scf|^2 =  1.883E-07

      iter #   5 total cpu time :    28.7 secs   av.it.:   7.8
      thresh= 4.339E-05 alpha_mix =  0.700 |ddv_scf|^2 =  1.241E-08

      iter #   6 total cpu time :    29.7 secs   av.it.:   7.5
      thresh= 1.114E-05 alpha_mix =  0.700 |ddv_scf|^2 =  1.797E-09

      iter #   7 total cpu time :    30.3 secs   av.it.:   3.6
      thresh= 4.239E-06 alpha_mix =  0.700 |ddv_scf|^2 =  1.520E-09

      iter #   8 total cpu time :    30.9 secs   av.it.:   5.7
      thresh= 3.898E-06 alpha_mix =  0.700 |ddv_scf|^2 =  5.180E-11

      iter #   9 total cpu time :    31.6 secs   av.it.:   5.8
      thresh= 7.197E-07 alpha_mix =  0.700 |ddv_scf|^2 =  1.422E-12

      iter #  10 total cpu time :    32.4 secs   av.it.:   6.4
      thresh= 1.192E-07 alpha_mix =  0.700 |ddv_scf|^2 =  1.296E-15

      iter #  11 total cpu time :    33.1 secs   av.it.:   7.3
      thresh= 3.601E-09 alpha_mix =  0.700 |ddv_scf|^2 =  6.695E-17

      iter #  12 total cpu time :    33.9 secs   av.it.:   7.0
      thresh= 8.182E-10 alpha_mix =  0.700 |ddv_scf|^2 =  1.622E-18

      iter #  13 total cpu time :    34.7 secs   av.it.:   7.2
      thresh= 1.273E-10 alpha_mix =  0.700 |ddv_scf|^2 =  7.810E-17

      iter #  14 total cpu time :    35.3 secs   av.it.:   5.2
      thresh= 8.837E-10 alpha_mix =  0.700 |ddv_scf|^2 =  2.293E-21

     End of self-consistent calculation

     Convergence has been achieved 


     Representation #  2 mode #   2

     Self-consistent Calculation

      iter #   1 total cpu time :    51.9 secs   av.it.:   5.5
      thresh= 1.000E-02 alpha_mix =  0.700 |ddv_scf|^2 =  1.188E-06

      iter #   2 total cpu time :    52.8 secs   av.it.:   8.5
      thresh= 1.090E-04 alpha_mix =  0.700 |ddv_scf|^2 =  7.222E-08

      iter #   3 total cpu time :    53.6 secs   av.it.:   8.8
      thresh= 2.687E-05 alpha_mix =  0.700 |ddv_scf|^2 =  3.500E-10

      iter #   4 total cpu time :    54.5 secs   av.it.:   8.4
      thresh= 1.871E-06 alpha_mix =  0.700 |ddv_scf|^2 =  9.355E-13

      iter #   5 total cpu time :    56.3 secs   av.it.:   7.7
      thresh= 9.672E-08 alpha_mix =  0.700 |ddv_scf|^2 =  2.019E-14

      iter #   6 total cpu time :    62.6 secs   av.it.:   7.4
      thresh= 1.421E-08 alpha_mix =  0.700 |ddv_scf|^2 =  5.252E-18

      iter #   7 total cpu time :    70.1 secs   av.it.:   8.5
      thresh= 2.292E-10 alpha_mix =  0.700 |ddv_scf|^2 =  1.980E-20

     End of self-consistent calculation

     Convergence has been achieved 


     Representation #  3 mode #   3

     Self-consistent Calculation

      iter #   1 total cpu time :    71.8 secs   av.it.:   5.4
      thresh= 1.000E-02 alpha_mix =  0.700 |ddv_scf|^2 =  1.203E-06

      iter #   2 total cpu time :    72.7 secs   av.it.:   8.5
      thresh= 1.097E-04 alpha_mix =  0.700 |ddv_scf|^2 =  7.299E-08

      iter #   3 total cpu time :    74.0 secs   av.it.:   8.8
      thresh= 2.702E-05 alpha_mix =  0.700 |ddv_scf|^2 =  4.063E-10

      iter #   4 total cpu time :    74.8 secs   av.it.:   8.2
      thresh= 2.016E-06 alpha_mix =  0.700 |ddv_scf|^2 =  9.214E-13

      iter #   5 total cpu time :    76.4 secs   av.it.:   7.8
      thresh= 9.599E-08 alpha_mix =  0.700 |ddv_scf|^2 =  1.936E-14

      iter #   6 total cpu time :    77.2 secs   av.it.:   7.7
      thresh= 1.391E-08 alpha_mix =  0.700 |ddv_scf|^2 =  4.793E-18

      iter #   7 total cpu time :    78.6 secs   av.it.:   8.5
      thresh= 2.189E-10 alpha_mix =  0.700 |ddv_scf|^2 =  1.562E-20

     End of self-consistent calculation

     Convergence has been achieved 
 
     Number of q in the star =   12
     List of q in the star:
          1   0.000000000  -0.100000000   0.100000000
          2  -0.100000000   0.000000000   0.100000000
          3   0.100000000   0.000000000   0.100000000
          4   0.000000000   0.100000000   0.100000000
          5   0.100000000   0.100000000   0.000000000
          6  -0.100000000   0.100000000   0.000000000
          7   0.100000000  -0.100000000   0.000000000
          8  -0.100000000  -0.100000000   0.000000000
          9  -0.100000000   0.000000000  -0.100000000
         10   0.000000000   0.100000000  -0.100000000
         11   0.000000000  -0.100000000  -0.100000000
         12   0.100000000   0.000000000  -0.100000000

     Diagonalizing the dynamical matrix

     q = (    0.000000000  -0.100000000   0.100000000 ) 

 **************************************************************************
     freq (    1) =       0.232349 [THz] =       7.750319 [cm-1]
     freq (    2) =       1.839572 [THz] =      61.361508 [cm-1]
     freq (    3) =       3.378227 [THz] =     112.685528 [cm-1]
 **************************************************************************

     Mode symmetry, C_2v (mm2)  point group:

     freq (  1 -  1) =          7.8  [cm-1]   --> B_1  D_3  S_3      
     freq (  2 -  2) =         61.4  [cm-1]   --> B_2  D_4  S_4      
     freq (  3 -  3) =        112.7  [cm-1]   --> A_1  D_1  S_1      

     Calculation of q =    0.0000000  -0.2000000   0.2000000
 
     G-vector sticks info
     --------------------
     sticks:   dense  smooth     PW     G-vecs:    dense   smooth      PW
     Sum         969     483    169                19141     6819    1409
 


     bravais-lattice index     =            3
     lattice parameter (alat)  =       5.9909  a.u.
     unit-cell volume          =     107.5096 (a.u.)^3
     number of atoms/cell      =            1
     number of atomic types    =            1
     number of electrons       =         3.00
     number of Kohn-Sham states=            6
     kinetic-energy cutoff     =      60.0000  Ry
     charge density cutoff     =     480.0000  Ry
     Exchange-correlation      =  SLA  PW   PBX  PBC ( 1  4  3  4 0 0)

     celldm(1)=   5.990904  celldm(2)=   0.000000  celldm(3)=   0.000000
     celldm(4)=   0.000000  celldm(5)=   0.000000  celldm(6)=   0.000000

     crystal axes: (cart. coord. in units of alat)
               a(1) = (   0.500000   0.500000   0.500000 )  
               a(2) = (  -0.500000   0.500000   0.500000 )  
               a(3) = (  -0.500000  -0.500000   0.500000 )  

     reciprocal axes: (cart. coord. in units 2 pi/alat)
               b(1) = (  1.000000  0.000000  1.000000 )  
               b(2) = ( -1.000000  1.000000  0.000000 )  
               b(3) = (  0.000000 -1.000000  1.000000 )  


     PseudoPot. # 1 for Li read from file:
     ../Li.pbe-s-gbrv14.UPF
     MD5 check sum: 7ca33c4f951f001da2db5c8738379802
     Pseudo is Ultrasoft, Zval =  3.0
     Generated by new atomic code, or converted to UPF format
     Using radial grid of  751 points,  5 beta functions with: 
                l(1) =   0
                l(2) =   0
                l(3) =   0
                l(4) =   1
                l(5) =   1
     Q(r) pseudized with 10 coefficients,  rinner =    1.150   1.150   1.150


     atomic species   valence    mass     pseudopotential
        Li             3.00     6.94100     Li( 1.00)

     48 Sym. Ops., with inversion, found



   Cartesian axes

     site n.     atom                  positions (alat units)
         1           Li  tau(   1) = (   0.0000000   0.0000000   0.0000000  )

     number of k points= 14400  Marzari-Vanderbilt smearing, width (Ry)=  0.0200

     Number of k-points >= 100: set verbosity='high' to print them.

     Dense  grid:    19141 G-vectors     FFT dimensions: (  40,  40,  40)

     Smooth grid:     6819 G-vectors     FFT dimensions: (  25,  25,  25)

     Largest allocated arrays     est. size (Mb)     dimensions
        Kohn-Sham Wavefunctions         0.08 Mb     (     887,    6)
        NL pseudopotentials             0.12 Mb     (     887,    9)
        Each V/rho on FFT grid          0.98 Mb     (   64000)
        Each G-vector array             0.15 Mb     (   19141)
        G-vector shells                 0.00 Mb     (     203)
     Largest temporary arrays     est. size (Mb)     dimensions
        Auxiliary wavefunctions         0.32 Mb     (     887,   24)
        Each subspace H/S matrix        0.01 Mb     (      24,   24)
        Each <psi_i|beta_j> matrix      0.00 Mb     (       9,    6)

     The potential is recalculated from file :
     ./tmp/_ph0/li-bcc.save/charge-density.dat

     Starting wfc are    5 atomic +    1 random wfc

     Band Structure Calculation
     Davidson diagonalization with overlap

     ethr =  3.33E-10,  avg # of iterations = 16.5

     total cpu time spent up to now is       18.8 secs

     End of band structure calculation

     Number of k-points >= 100: set verbosity='high' to print the bands.

     the Fermi energy is     1.7963 ev

                                                                                

     bravais-lattice index     =            3
     lattice parameter (alat)  =       5.9909  a.u.
     unit-cell volume          =     107.5096 (a.u.)^3
     number of atoms/cell      =            1
     number of atomic types    =            1
     kinetic-energy cut-off    =      60.0000  Ry
     charge density cut-off    =     480.0000  Ry
     convergence threshold     =      1.0E-18
     beta                      =       0.7000
     number of iterations used =            4
     Exchange-correlation      =  SLA  PW   PBX  PBC ( 1  4  3  4 0 0)


     celldm(1)=    5.99090  celldm(2)=    0.00000  celldm(3)=    0.00000
     celldm(4)=    0.00000  celldm(5)=    0.00000  celldm(6)=    0.00000

     crystal axes: (cart. coord. in units of alat)
               a(1) = (  0.5000  0.5000  0.5000 )  
               a(2) = ( -0.5000  0.5000  0.5000 )  
               a(3) = ( -0.5000 -0.5000  0.5000 )  

     reciprocal axes: (cart. coord. in units 2 pi/alat)
               b(1) = (  1.0000  0.0000  1.0000 )  
               b(2) = ( -1.0000  1.0000  0.0000 )  
               b(3) = (  0.0000 -1.0000  1.0000 )  


     Atoms inside the unit cell: 

     Cartesian axes

     site n.  atom      mass           positions (alat units)
        1     Li   6.9410   tau(    1) = (    0.00000    0.00000    0.00000  )

     Computing dynamical matrix for 
                    q = (   0.0000000  -0.2000000   0.2000000 )
 
      4 Sym.Ops. (no q -> -q+G )


     G cutoff =  436.3814  (  19141 G-vectors)     FFT grid: ( 40, 40, 40)
     G cutoff =  218.1907  (   6819 G-vectors)  smooth grid: ( 25, 25, 25)

     number of k points= 14400  Marzari-Vanderbilt smearing, width (Ry)=  0.0200

     PseudoPot. # 1 for Li read from file:
     ../Li.pbe-s-gbrv14.UPF
     MD5 check sum: 7ca33c4f951f001da2db5c8738379802
     Pseudo is Ultrasoft, Zval =  3.0
     Generated by new atomic code, or converted to UPF format
     Using radial grid of  751 points,  5 beta functions with: 
                l(1) =   0
                l(2) =   0
                l(3) =   0
                l(4) =   1
                l(5) =   1
     Q(r) pseudized with 10 coefficients,  rinner =    1.150   1.150   1.150


     Mode symmetry, C_2v (mm2)  point group:


     Atomic displacements:
     There are   3 irreducible representations

     Representation     1      1 modes -A_1  D_1  S_1  To be done

     Representation     2      1 modes -B_1  D_3  S_3  To be done

     Representation     3      1 modes -B_2  D_4  S_4  To be done



     Alpha used in Ewald sum =   2.8000
     PHONON       :  1m 9.56s CPU     1m28.39s WALL



     Representation #  1 mode #   1

     Self-consistent Calculation

      iter #   1 total cpu time :    89.2 secs   av.it.:   6.5
      thresh= 1.000E-02 alpha_mix =  0.700 |ddv_scf|^2 =  4.749E-03

      iter #   2 total cpu time :    92.6 secs   av.it.:   7.5
      thresh= 6.891E-03 alpha_mix =  0.700 |ddv_scf|^2 =  4.611E-01

      iter #   3 total cpu time :    93.4 secs   av.it.:   7.0
      thresh= 1.000E-02 alpha_mix =  0.700 |ddv_scf|^2 =  7.907E-08

      iter #   4 total cpu time :    94.5 secs   av.it.:   9.0
      thresh= 2.812E-05 alpha_mix =  0.700 |ddv_scf|^2 =  1.075E-08

      iter #   5 total cpu time :    95.4 secs   av.it.:   8.6
      thresh= 1.037E-05 alpha_mix =  0.700 |ddv_scf|^2 =  2.234E-10

      iter #   6 total cpu time :    96.2 secs   av.it.:   7.9
      thresh= 1.495E-06 alpha_mix =  0.700 |ddv_scf|^2 =  1.534E-13

      iter #   7 total cpu time :    98.4 secs   av.it.:   9.4
      thresh= 3.916E-08 alpha_mix =  0.700 |ddv_scf|^2 =  2.296E-13

      iter #   8 total cpu time :    99.2 secs   av.it.:   6.9
      thresh= 4.791E-08 alpha_mix =  0.700 |ddv_scf|^2 =  1.760E-12

      iter #   9 total cpu time :   100.6 secs   av.it.:   6.5
      thresh= 1.327E-07 alpha_mix =  0.700 |ddv_scf|^2 =  2.790E-14

      iter #  10 total cpu time :   101.8 secs   av.it.:   6.8
      thresh= 1.670E-08 alpha_mix =  0.700 |ddv_scf|^2 =  1.969E-17

      iter #  11 total cpu time :   102.7 secs   av.it.:   9.4
      thresh= 4.437E-10 alpha_mix =  0.700 |ddv_scf|^2 =  4.990E-18

      iter #  12 total cpu time :   103.5 secs   av.it.:   8.2
      thresh= 2.234E-10 alpha_mix =  0.700 |ddv_scf|^2 =  4.712E-21

     End of self-consistent calculation

     Convergence has been achieved 


     Representation #  2 mode #   2

     Self-consistent Calculation

      iter #   1 total cpu time :   105.2 secs   av.it.:   5.5
      thresh= 1.000E-02 alpha_mix =  0.700 |ddv_scf|^2 =  1.200E-06

      iter #   2 total cpu time :   107.5 secs   av.it.:   8.5
      thresh= 1.095E-04 alpha_mix =  0.700 |ddv_scf|^2 =  7.245E-08

      iter #   3 total cpu time :   109.6 secs   av.it.:   8.8
      thresh= 2.692E-05 alpha_mix =  0.700 |ddv_scf|^2 =  4.041E-10

      iter #   4 total cpu time :   112.2 secs   av.it.:   8.4
      thresh= 2.010E-06 alpha_mix =  0.700 |ddv_scf|^2 =  8.498E-13

      iter #   5 total cpu time :   114.3 secs   av.it.:   8.1
      thresh= 9.219E-08 alpha_mix =  0.700 |ddv_scf|^2 =  1.859E-14

      iter #   6 total cpu time :   115.2 secs   av.it.:   7.6
      thresh= 1.364E-08 alpha_mix =  0.700 |ddv_scf|^2 =  5.597E-18

      iter #   7 total cpu time :   116.9 secs   av.it.:   8.6
      thresh= 2.366E-10 alpha_mix =  0.700 |ddv_scf|^2 =  1.744E-20

     End of self-consistent calculation

     Convergence has been achieved 


     Representation #  3 mode #   3

     Self-consistent Calculation

      iter #   1 total cpu time :   126.7 secs   av.it.:   5.4
      thresh= 1.000E-02 alpha_mix =  0.700 |ddv_scf|^2 =  1.255E-06

      iter #   2 total cpu time :   127.5 secs   av.it.:   8.5
      thresh= 1.120E-04 alpha_mix =  0.700 |ddv_scf|^2 =  7.526E-08

      iter #   3 total cpu time :   128.4 secs   av.it.:   8.8
      thresh= 2.743E-05 alpha_mix =  0.700 |ddv_scf|^2 =  6.199E-10

      iter #   4 total cpu time :   129.2 secs   av.it.:   8.2
      thresh= 2.490E-06 alpha_mix =  0.700 |ddv_scf|^2 =  9.010E-13

      iter #   5 total cpu time :   130.0 secs   av.it.:   8.2
      thresh= 9.492E-08 alpha_mix =  0.700 |ddv_scf|^2 =  1.840E-14

      iter #   6 total cpu time :   130.8 secs   av.it.:   7.1
      thresh= 1.356E-08 alpha_mix =  0.700 |ddv_scf|^2 =  4.179E-18

      iter #   7 total cpu time :   131.6 secs   av.it.:   8.6
      thresh= 2.044E-10 alpha_mix =  0.700 |ddv_scf|^2 =  1.145E-20

     End of self-consistent calculation

     Convergence has been achieved 
 
     Number of q in the star =   12
     List of q in the star:
          1   0.000000000  -0.200000000   0.200000000
          2  -0.200000000   0.000000000   0.200000000
          3   0.200000000   0.000000000   0.200000000
          4   0.000000000   0.200000000   0.200000000
          5   0.200000000   0.200000000   0.000000000
          6  -0.200000000   0.200000000   0.000000000
          7   0.200000000  -0.200000000   0.000000000
          8  -0.200000000  -0.200000000   0.000000000
          9  -0.200000000   0.000000000  -0.200000000
         10   0.000000000   0.200000000  -0.200000000
         11   0.000000000  -0.200000000  -0.200000000
         12   0.200000000   0.000000000  -0.200000000

     Diagonalizing the dynamical matrix

     q = (    0.000000000  -0.200000000   0.200000000 ) 

 **************************************************************************
     freq (    1) =       0.455551 [THz] =      15.195556 [cm-1]
     freq (    2) =       3.460654 [THz] =     115.435002 [cm-1]
     freq (    3) =       7.090319 [THz] =     236.507598 [cm-1]
 **************************************************************************

     Mode symmetry, C_2v (mm2)  point group:

     freq (  1 -  1) =         15.2  [cm-1]   --> B_1  D_3  S_3      
     freq (  2 -  2) =        115.4  [cm-1]   --> B_2  D_4  S_4      
     freq (  3 -  3) =        236.5  [cm-1]   --> A_1  D_1  S_1      

     Calculation of q =    0.0000000  -0.3000000   0.3000000
 
     G-vector sticks info
     --------------------
     sticks:   dense  smooth     PW     G-vecs:    dense   smooth      PW
     Sum         969     483    173                19141     6819    1433
 


     bravais-lattice index     =            3
     lattice parameter (alat)  =       5.9909  a.u.
     unit-cell volume          =     107.5096 (a.u.)^3
     number of atoms/cell      =            1
     number of atomic types    =            1
     number of electrons       =         3.00
     number of Kohn-Sham states=            6
     kinetic-energy cutoff     =      60.0000  Ry
     charge density cutoff     =     480.0000  Ry
     Exchange-correlation      =  SLA  PW   PBX  PBC ( 1  4  3  4 0 0)

     celldm(1)=   5.990904  celldm(2)=   0.000000  celldm(3)=   0.000000
     celldm(4)=   0.000000  celldm(5)=   0.000000  celldm(6)=   0.000000

     crystal axes: (cart. coord. in units of alat)
               a(1) = (   0.500000   0.500000   0.500000 )  
               a(2) = (  -0.500000   0.500000   0.500000 )  
               a(3) = (  -0.500000  -0.500000   0.500000 )  

     reciprocal axes: (cart. coord. in units 2 pi/alat)
               b(1) = (  1.000000  0.000000  1.000000 )  
               b(2) = ( -1.000000  1.000000  0.000000 )  
               b(3) = (  0.000000 -1.000000  1.000000 )  


     PseudoPot. # 1 for Li read from file:
     ../Li.pbe-s-gbrv14.UPF
     MD5 check sum: 7ca33c4f951f001da2db5c8738379802
     Pseudo is Ultrasoft, Zval =  3.0
     Generated by new atomic code, or converted to UPF format
     Using radial grid of  751 points,  5 beta functions with: 
                l(1) =   0
                l(2) =   0
                l(3) =   0
                l(4) =   1
                l(5) =   1
     Q(r) pseudized with 10 coefficients,  rinner =    1.150   1.150   1.150


     atomic species   valence    mass     pseudopotential
        Li             3.00     6.94100     Li( 1.00)

     48 Sym. Ops., with inversion, found



   Cartesian axes

     site n.     atom                  positions (alat units)
         1           Li  tau(   1) = (   0.0000000   0.0000000   0.0000000  )

     number of k points= 14400  Marzari-Vanderbilt smearing, width (Ry)=  0.0200

     Number of k-points >= 100: set verbosity='high' to print them.

     Dense  grid:    19141 G-vectors     FFT dimensions: (  40,  40,  40)

     Smooth grid:     6819 G-vectors     FFT dimensions: (  25,  25,  25)

     Largest allocated arrays     est. size (Mb)     dimensions
        Kohn-Sham Wavefunctions         0.08 Mb     (     887,    6)
        NL pseudopotentials             0.12 Mb     (     887,    9)
        Each V/rho on FFT grid          0.98 Mb     (   64000)
        Each G-vector array             0.15 Mb     (   19141)
        G-vector shells                 0.00 Mb     (     203)
     Largest temporary arrays     est. size (Mb)     dimensions
        Auxiliary wavefunctions         0.32 Mb     (     887,   24)
        Each subspace H/S matrix        0.01 Mb     (      24,   24)
        Each <psi_i|beta_j> matrix      0.00 Mb     (       9,    6)

     The potential is recalculated from file :
     ./tmp/_ph0/li-bcc.save/charge-density.dat

     Starting wfc are    5 atomic +    1 random wfc

     Band Structure Calculation
     Davidson diagonalization with overlap

     ethr =  3.33E-10,  avg # of iterations = 16.4

     total cpu time spent up to now is       26.2 secs

     End of band structure calculation

     Number of k-points >= 100: set verbosity='high' to print the bands.

     the Fermi energy is     1.7963 ev

                                                                                

     bravais-lattice index     =            3
     lattice parameter (alat)  =       5.9909  a.u.
     unit-cell volume          =     107.5096 (a.u.)^3
     number of atoms/cell      =            1
     number of atomic types    =            1
     kinetic-energy cut-off    =      60.0000  Ry
     charge density cut-off    =     480.0000  Ry
     convergence threshold     =      1.0E-18
     beta                      =       0.7000
     number of iterations used =            4
     Exchange-correlation      =  SLA  PW   PBX  PBC ( 1  4  3  4 0 0)


     celldm(1)=    5.99090  celldm(2)=    0.00000  celldm(3)=    0.00000
     celldm(4)=    0.00000  celldm(5)=    0.00000  celldm(6)=    0.00000

     crystal axes: (cart. coord. in units of alat)
               a(1) = (  0.5000  0.5000  0.5000 )  
               a(2) = ( -0.5000  0.5000  0.5000 )  
               a(3) = ( -0.5000 -0.5000  0.5000 )  

     reciprocal axes: (cart. coord. in units 2 pi/alat)
               b(1) = (  1.0000  0.0000  1.0000 )  
               b(2) = ( -1.0000  1.0000  0.0000 )  
               b(3) = (  0.0000 -1.0000  1.0000 )  


     Atoms inside the unit cell: 

     Cartesian axes

     site n.  atom      mass           positions (alat units)
        1     Li   6.9410   tau(    1) = (    0.00000    0.00000    0.00000  )

     Computing dynamical matrix for 
                    q = (   0.0000000  -0.3000000   0.3000000 )
 
      4 Sym.Ops. (no q -> -q+G )


     G cutoff =  436.3814  (  19141 G-vectors)     FFT grid: ( 40, 40, 40)
     G cutoff =  218.1907  (   6819 G-vectors)  smooth grid: ( 25, 25, 25)

     number of k points= 14400  Marzari-Vanderbilt smearing, width (Ry)=  0.0200

     PseudoPot. # 1 for Li read from file:
     ../Li.pbe-s-gbrv14.UPF
     MD5 check sum: 7ca33c4f951f001da2db5c8738379802
     Pseudo is Ultrasoft, Zval =  3.0
     Generated by new atomic code, or converted to UPF format
     Using radial grid of  751 points,  5 beta functions with: 
                l(1) =   0
                l(2) =   0
                l(3) =   0
                l(4) =   1
                l(5) =   1
     Q(r) pseudized with 10 coefficients,  rinner =    1.150   1.150   1.150


     Mode symmetry, C_2v (mm2)  point group:


     Atomic displacements:
     There are   3 irreducible representations

     Representation     1      1 modes -A_1  D_1  S_1  To be done

     Representation     2      1 modes -B_1  D_3  S_3  To be done

     Representation     3      1 modes -B_2  D_4  S_4  To be done



     Alpha used in Ewald sum =   2.8000
     PHONON       :  1m56.06s CPU     2m20.70s WALL



     Representation #  1 mode #   1

     Self-consistent Calculation

      iter #   1 total cpu time :   141.5 secs   av.it.:   6.5
      thresh= 1.000E-02 alpha_mix =  0.700 |ddv_scf|^2 =  3.286E-04

      iter #   2 total cpu time :   143.3 secs   av.it.:   8.0
      thresh= 1.813E-03 alpha_mix =  0.700 |ddv_scf|^2 =  4.203E-03

      iter #   3 total cpu time :   144.1 secs   av.it.:   6.4
      thresh= 6.483E-03 alpha_mix =  0.700 |ddv_scf|^2 =  7.966E-08

      iter #   4 total cpu time :   144.9 secs   av.it.:   8.8
      thresh= 2.822E-05 alpha_mix =  0.700 |ddv_scf|^2 =  2.825E-09

      iter #   5 total cpu time :   145.8 secs   av.it.:   8.8
      thresh= 5.315E-06 alpha_mix =  0.700 |ddv_scf|^2 =  1.983E-11

      iter #   6 total cpu time :   146.8 secs   av.it.:   8.7
      thresh= 4.454E-07 alpha_mix =  0.700 |ddv_scf|^2 =  2.882E-13

      iter #   7 total cpu time :   147.6 secs   av.it.:   9.4
      thresh= 5.369E-08 alpha_mix =  0.700 |ddv_scf|^2 =  6.413E-16

      iter #   8 total cpu time :   148.7 secs   av.it.:   9.4
      thresh= 2.532E-09 alpha_mix =  0.700 |ddv_scf|^2 =  1.945E-16

      iter #   9 total cpu time :   149.6 secs   av.it.:   8.2
      thresh= 1.395E-09 alpha_mix =  0.700 |ddv_scf|^2 =  1.823E-16

      iter #  10 total cpu time :   151.3 secs   av.it.:   7.5
      thresh= 1.350E-09 alpha_mix =  0.700 |ddv_scf|^2 =  8.903E-17

      iter #  11 total cpu time :   153.1 secs   av.it.:   6.6
      thresh= 9.436E-10 alpha_mix =  0.700 |ddv_scf|^2 =  1.189E-18

      iter #  12 total cpu time :   154.2 secs   av.it.:   8.5
      thresh= 1.090E-10 alpha_mix =  0.700 |ddv_scf|^2 =  1.810E-21

     End of self-consistent calculation

     Convergence has been achieved 


     Representation #  2 mode #   2

     Self-consistent Calculation

      iter #   1 total cpu time :   155.5 secs   av.it.:   5.5
      thresh= 1.000E-02 alpha_mix =  0.700 |ddv_scf|^2 =  1.217E-06

      iter #   2 total cpu time :   156.3 secs   av.it.:   8.5
      thresh= 1.103E-04 alpha_mix =  0.700 |ddv_scf|^2 =  7.267E-08

      iter #   3 total cpu time :   157.2 secs   av.it.:   8.9
      thresh= 2.696E-05 alpha_mix =  0.700 |ddv_scf|^2 =  4.905E-10

      iter #   4 total cpu time :   158.0 secs   av.it.:   8.2
      thresh= 2.215E-06 alpha_mix =  0.700 |ddv_scf|^2 =  7.482E-13

      iter #   5 total cpu time :   158.8 secs   av.it.:   8.4
      thresh= 8.650E-08 alpha_mix =  0.700 |ddv_scf|^2 =  1.800E-14

      iter #   6 total cpu time :   159.6 secs   av.it.:   7.0
      thresh= 1.341E-08 alpha_mix =  0.700 |ddv_scf|^2 =  5.875E-18

      iter #   7 total cpu time :   161.1 secs   av.it.:   8.5
      thresh= 2.424E-10 alpha_mix =  0.700 |ddv_scf|^2 =  1.277E-20

     End of self-consistent calculation

     Convergence has been achieved 


     Representation #  3 mode #   3

     Self-consistent Calculation

      iter #   1 total cpu time :   163.1 secs   av.it.:   5.5
      thresh= 1.000E-02 alpha_mix =  0.700 |ddv_scf|^2 =  1.323E-06

      iter #   2 total cpu time :   164.0 secs   av.it.:   8.5
      thresh= 1.150E-04 alpha_mix =  0.700 |ddv_scf|^2 =  7.812E-08

      iter #   3 total cpu time :   164.8 secs   av.it.:   8.8
      thresh= 2.795E-05 alpha_mix =  0.700 |ddv_scf|^2 =  9.299E-10

      iter #   4 total cpu time :   166.2 secs   av.it.:   8.2
      thresh= 3.049E-06 alpha_mix =  0.700 |ddv_scf|^2 =  9.890E-13

      iter #   5 total cpu time :   167.1 secs   av.it.:   8.3
      thresh= 9.945E-08 alpha_mix =  0.700 |ddv_scf|^2 =  2.057E-14

      iter #   6 total cpu time :   167.9 secs   av.it.:   7.3
      thresh= 1.434E-08 alpha_mix =  0.700 |ddv_scf|^2 =  3.697E-18

      iter #   7 total cpu time :   176.6 secs   av.it.:   8.8
      thresh= 1.923E-10 alpha_mix =  0.700 |ddv_scf|^2 =  1.470E-20

     End of self-consistent calculation

     Convergence has been achieved 
 
     Number of q in the star =   12
     List of q in the star:
          1   0.000000000  -0.300000000   0.300000000
          2  -0.300000000   0.000000000   0.300000000
          3   0.300000000   0.000000000   0.300000000
          4   0.000000000   0.300000000   0.300000000
          5   0.300000000   0.300000000   0.000000000
          6  -0.300000000   0.300000000   0.000000000
          7   0.300000000  -0.300000000   0.000000000
          8  -0.300000000  -0.300000000   0.000000000
          9  -0.300000000   0.000000000  -0.300000000
         10   0.000000000   0.300000000  -0.300000000
         11   0.000000000  -0.300000000  -0.300000000
         12   0.300000000   0.000000000  -0.300000000

     Diagonalizing the dynamical matrix

     q = (    0.000000000  -0.300000000   0.300000000 ) 

 **************************************************************************
     freq (    1) =       0.727889 [THz] =      24.279756 [cm-1]
     freq (    2) =       4.713831 [THz] =     157.236485 [cm-1]
     freq (    3) =      10.279535 [THz] =     342.888378 [cm-1]
 **************************************************************************

     Mode symmetry, C_2v (mm2)  point group:

     freq (  1 -  1) =         24.3  [cm-1]   --> B_1  D_3  S_3      
     freq (  2 -  2) =        157.2  [cm-1]   --> B_2  D_4  S_4      
     freq (  3 -  3) =        342.9  [cm-1]   --> A_1  D_1  S_1      

     Calculation of q =    0.0000000  -0.4000000   0.4000000
 
     G-vector sticks info
     --------------------
     sticks:   dense  smooth     PW     G-vecs:    dense   smooth      PW
     Sum         969     483    173                19141     6819    1481
 


     bravais-lattice index     =            3
     lattice parameter (alat)  =       5.9909  a.u.
     unit-cell volume          =     107.5096 (a.u.)^3
     number of atoms/cell      =            1
     number of atomic types    =            1
     number of electrons       =         3.00
     number of Kohn-Sham states=            6
     kinetic-energy cutoff     =      60.0000  Ry
     charge density cutoff     =     480.0000  Ry
     Exchange-correlation      =  SLA  PW   PBX  PBC ( 1  4  3  4 0 0)

     celldm(1)=   5.990904  celldm(2)=   0.000000  celldm(3)=   0.000000
     celldm(4)=   0.000000  celldm(5)=   0.000000  celldm(6)=   0.000000

     crystal axes: (cart. coord. in units of alat)
               a(1) = (   0.500000   0.500000   0.500000 )  
               a(2) = (  -0.500000   0.500000   0.500000 )  
               a(3) = (  -0.500000  -0.500000   0.500000 )  

     reciprocal axes: (cart. coord. in units 2 pi/alat)
               b(1) = (  1.000000  0.000000  1.000000 )  
               b(2) = ( -1.000000  1.000000  0.000000 )  
               b(3) = (  0.000000 -1.000000  1.000000 )  


     PseudoPot. # 1 for Li read from file:
     ../Li.pbe-s-gbrv14.UPF
     MD5 check sum: 7ca33c4f951f001da2db5c8738379802
     Pseudo is Ultrasoft, Zval =  3.0
     Generated by new atomic code, or converted to UPF format
     Using radial grid of  751 points,  5 beta functions with: 
                l(1) =   0
                l(2) =   0
                l(3) =   0
                l(4) =   1
                l(5) =   1
     Q(r) pseudized with 10 coefficients,  rinner =    1.150   1.150   1.150


     atomic species   valence    mass     pseudopotential
        Li             3.00     6.94100     Li( 1.00)

     48 Sym. Ops., with inversion, found



   Cartesian axes

     site n.     atom                  positions (alat units)
         1           Li  tau(   1) = (   0.0000000   0.0000000   0.0000000  )

     number of k points= 14400  Marzari-Vanderbilt smearing, width (Ry)=  0.0200

     Number of k-points >= 100: set verbosity='high' to print them.

     Dense  grid:    19141 G-vectors     FFT dimensions: (  40,  40,  40)

     Smooth grid:     6819 G-vectors     FFT dimensions: (  25,  25,  25)

     Largest allocated arrays     est. size (Mb)     dimensions
        Kohn-Sham Wavefunctions         0.08 Mb     (     887,    6)
        NL pseudopotentials             0.12 Mb     (     887,    9)
        Each V/rho on FFT grid          0.98 Mb     (   64000)
        Each G-vector array             0.15 Mb     (   19141)
        G-vector shells                 0.00 Mb     (     203)
     Largest temporary arrays     est. size (Mb)     dimensions
        Auxiliary wavefunctions         0.32 Mb     (     887,   24)
        Each subspace H/S matrix        0.01 Mb     (      24,   24)
        Each <psi_i|beta_j> matrix      0.00 Mb     (       9,    6)

     The potential is recalculated from file :
     ./tmp/_ph0/li-bcc.save/charge-density.dat

     Starting wfc are    5 atomic +    1 random wfc

     Band Structure Calculation
     Davidson diagonalization with overlap

     ethr =  3.33E-10,  avg # of iterations = 16.4

     total cpu time spent up to now is       33.9 secs

     End of band structure calculation

     Number of k-points >= 100: set verbosity='high' to print the bands.

     the Fermi energy is     1.7963 ev

                                                                                

     bravais-lattice index     =            3
     lattice parameter (alat)  =       5.9909  a.u.
     unit-cell volume          =     107.5096 (a.u.)^3
     number of atoms/cell      =            1
     number of atomic types    =            1
     kinetic-energy cut-off    =      60.0000  Ry
     charge density cut-off    =     480.0000  Ry
     convergence threshold     =      1.0E-18
     beta                      =       0.7000
     number of iterations used =            4
     Exchange-correlation      =  SLA  PW   PBX  PBC ( 1  4  3  4 0 0)


     celldm(1)=    5.99090  celldm(2)=    0.00000  celldm(3)=    0.00000
     celldm(4)=    0.00000  celldm(5)=    0.00000  celldm(6)=    0.00000

     crystal axes: (cart. coord. in units of alat)
               a(1) = (  0.5000  0.5000  0.5000 )  
               a(2) = ( -0.5000  0.5000  0.5000 )  
               a(3) = ( -0.5000 -0.5000  0.5000 )  

     reciprocal axes: (cart. coord. in units 2 pi/alat)
               b(1) = (  1.0000  0.0000  1.0000 )  
               b(2) = ( -1.0000  1.0000  0.0000 )  
               b(3) = (  0.0000 -1.0000  1.0000 )  


     Atoms inside the unit cell: 

     Cartesian axes

     site n.  atom      mass           positions (alat units)
        1     Li   6.9410   tau(    1) = (    0.00000    0.00000    0.00000  )

     Computing dynamical matrix for 
                    q = (   0.0000000  -0.4000000   0.4000000 )
 
      4 Sym.Ops. (no q -> -q+G )


     G cutoff =  436.3814  (  19141 G-vectors)     FFT grid: ( 40, 40, 40)
     G cutoff =  218.1907  (   6819 G-vectors)  smooth grid: ( 25, 25, 25)

     number of k points= 14400  Marzari-Vanderbilt smearing, width (Ry)=  0.0200

     PseudoPot. # 1 for Li read from file:
     ../Li.pbe-s-gbrv14.UPF
     MD5 check sum: 7ca33c4f951f001da2db5c8738379802
     Pseudo is Ultrasoft, Zval =  3.0
     Generated by new atomic code, or converted to UPF format
     Using radial grid of  751 points,  5 beta functions with: 
                l(1) =   0
                l(2) =   0
                l(3) =   0
                l(4) =   1
                l(5) =   1
     Q(r) pseudized with 10 coefficients,  rinner =    1.150   1.150   1.150


     Mode symmetry, C_2v (mm2)  point group:


     Atomic displacements:
     There are   3 irreducible representations

     Representation     1      1 modes -A_1  D_1  S_1  To be done

     Representation     2      1 modes -B_1  D_3  S_3  To be done

     Representation     3      1 modes -B_2  D_4  S_4  To be done



     Alpha used in Ewald sum =   2.8000
     PHONON       :  2m45.20s CPU     3m13.84s WALL



     Representation #  1 mode #   1

     Self-consistent Calculation

      iter #   1 total cpu time :   194.7 secs   av.it.:   6.5
      thresh= 1.000E-02 alpha_mix =  0.700 |ddv_scf|^2 =  4.682E-05

      iter #   2 total cpu time :   196.6 secs   av.it.:   8.5
      thresh= 6.842E-04 alpha_mix =  0.700 |ddv_scf|^2 =  9.937E-05

      iter #   3 total cpu time :   198.0 secs   av.it.:   7.3
      thresh= 9.968E-04 alpha_mix =  0.700 |ddv_scf|^2 =  7.346E-08

      iter #   4 total cpu time :   199.3 secs   av.it.:   8.6
      thresh= 2.710E-05 alpha_mix =  0.700 |ddv_scf|^2 =  3.827E-09

      iter #   5 total cpu time :   201.7 secs   av.it.:   8.7
      thresh= 6.186E-06 alpha_mix =  0.700 |ddv_scf|^2 =  4.443E-12

      iter #   6 total cpu time :   202.7 secs   av.it.:   8.9
      thresh= 2.108E-07 alpha_mix =  0.700 |ddv_scf|^2 =  2.171E-13

      iter #   7 total cpu time :   203.5 secs   av.it.:   8.8
      thresh= 4.660E-08 alpha_mix =  0.700 |ddv_scf|^2 =  7.829E-16

      iter #   8 total cpu time :   204.8 secs   av.it.:   9.3
      thresh= 2.798E-09 alpha_mix =  0.700 |ddv_scf|^2 =  3.098E-17

      iter #   9 total cpu time :   207.1 secs   av.it.:   8.9
      thresh= 5.566E-10 alpha_mix =  0.700 |ddv_scf|^2 =  2.770E-17

      iter #  10 total cpu time :   208.4 secs   av.it.:   7.6
      thresh= 5.263E-10 alpha_mix =  0.700 |ddv_scf|^2 =  4.601E-20

     End of self-consistent calculation

     Convergence has been achieved 


     Representation #  2 mode #   2

     Self-consistent Calculation

      iter #   1 total cpu time :   209.7 secs   av.it.:   5.6
      thresh= 1.000E-02 alpha_mix =  0.700 |ddv_scf|^2 =  1.232E-06

      iter #   2 total cpu time :   211.3 secs   av.it.:   8.6
      thresh= 1.110E-04 alpha_mix =  0.700 |ddv_scf|^2 =  7.286E-08

      iter #   3 total cpu time :   212.3 secs   av.it.:   8.9
      thresh= 2.699E-05 alpha_mix =  0.700 |ddv_scf|^2 =  5.797E-10

      iter #   4 total cpu time :   213.7 secs   av.it.:   8.1
      thresh= 2.408E-06 alpha_mix =  0.700 |ddv_scf|^2 =  6.860E-13

      iter #   5 total cpu time :   214.9 secs   av.it.:   8.4
      thresh= 8.283E-08 alpha_mix =  0.700 |ddv_scf|^2 =  1.819E-14

      iter #   6 total cpu time :   216.5 secs   av.it.:   7.5
      thresh= 1.349E-08 alpha_mix =  0.700 |ddv_scf|^2 =  5.719E-18

      iter #   7 total cpu time :   218.8 secs   av.it.:   8.6
      thresh= 2.392E-10 alpha_mix =  0.700 |ddv_scf|^2 =  1.132E-20

     End of self-consistent calculation

     Convergence has been achieved 


     Representation #  3 mode #   3

     Self-consistent Calculation

      iter #   1 total cpu time :   225.3 secs   av.it.:   5.6
      thresh= 1.000E-02 alpha_mix =  0.700 |ddv_scf|^2 =  1.381E-06

      iter #   2 total cpu time :   226.3 secs   av.it.:   8.5
      thresh= 1.175E-04 alpha_mix =  0.700 |ddv_scf|^2 =  8.048E-08

      iter #   3 total cpu time :   229.4 secs   av.it.:   8.8
      thresh= 2.837E-05 alpha_mix =  0.700 |ddv_scf|^2 =  1.221E-09

      iter #   4 total cpu time :   230.4 secs   av.it.:   8.2
      thresh= 3.494E-06 alpha_mix =  0.700 |ddv_scf|^2 =  1.101E-12

      iter #   5 total cpu time :   231.2 secs   av.it.:   8.4
      thresh= 1.050E-07 alpha_mix =  0.700 |ddv_scf|^2 =  2.276E-14

      iter #   6 total cpu time :   232.9 secs   av.it.:   7.6
      thresh= 1.509E-08 alpha_mix =  0.700 |ddv_scf|^2 =  3.405E-18

      iter #   7 total cpu time :   233.8 secs   av.it.:   8.9
      thresh= 1.845E-10 alpha_mix =  0.700 |ddv_scf|^2 =  1.868E-20

     End of self-consistent calculation

     Convergence has been achieved 
 
     Number of q in the star =   12
     List of q in the star:
          1   0.000000000  -0.400000000   0.400000000
          2  -0.400000000   0.000000000   0.400000000
          3   0.400000000   0.000000000   0.400000000
          4   0.000000000   0.400000000   0.400000000
          5   0.400000000   0.400000000   0.000000000
          6  -0.400000000   0.400000000   0.000000000
          7   0.400000000  -0.400000000   0.000000000
          8  -0.400000000  -0.400000000   0.000000000
          9  -0.400000000   0.000000000  -0.400000000
         10   0.000000000   0.400000000  -0.400000000
         11   0.000000000  -0.400000000  -0.400000000
         12   0.400000000   0.000000000  -0.400000000

     Diagonalizing the dynamical matrix

     q = (    0.000000000  -0.400000000   0.400000000 ) 

 **************************************************************************
     freq (    1) =       1.003806 [THz] =      33.483360 [cm-1]
     freq (    2) =       5.513605 [THz] =     183.914068 [cm-1]
     freq (    3) =      12.264263 [THz] =     409.091792 [cm-1]
 **************************************************************************

     Mode symmetry, C_2v (mm2)  point group:

     freq (  1 -  1) =         33.5  [cm-1]   --> B_1  D_3  S_3      
     freq (  2 -  2) =        183.9  [cm-1]   --> B_2  D_4  S_4      
     freq (  3 -  3) =        409.1  [cm-1]   --> A_1  D_1  S_1      
 
     init_run     :      1.83s CPU      2.19s WALL (       4 calls)
     electrons    :     27.25s CPU     27.67s WALL (       4 calls)

     Called by init_run:
     wfcinit      :      0.00s CPU      0.03s WALL (       4 calls)
     potinit      :      1.08s CPU      1.11s WALL (       4 calls)

     Called by electrons:
     c_bands      :     27.23s CPU     27.64s WALL (       4 calls)
     v_of_rho     :      0.20s CPU      0.21s WALL (       5 calls)
     newd         :      0.06s CPU      0.08s WALL (       5 calls)

     Called by c_bands:
     init_us_2    :      0.73s CPU      0.82s WALL (    5320 calls)
     cegterg      :     16.85s CPU     17.08s WALL (     414 calls)

     Called by sum_band:

     Called by *egterg:
     h_psi        :     15.92s CPU     16.19s WALL (    6510 calls)
     s_psi        :      0.99s CPU      1.03s WALL (   76368 calls)
     g_psi        :      0.13s CPU      0.12s WALL (    5792 calls)
     cdiaghg      :      0.81s CPU      0.81s WALL (    6096 calls)

     Called by h_psi:
     add_vuspsi   :      0.58s CPU      0.62s WALL (   39463 calls)

     General routines
     calbec       :      1.42s CPU      1.46s WALL (   84728 calls)
     fft          :      2.74s CPU      2.73s WALL (    1667 calls)
     ffts         :      0.38s CPU      0.35s WALL (     732 calls)
     fftw         :     60.51s CPU     61.17s WALL (  204378 calls)
     interpolate  :      0.02s CPU      0.02s WALL (       8 calls)
     davcio       :      0.03s CPU      0.09s WALL (     912 calls)
 
     Parallel routines
     fft_scatter  :      3.19s CPU      3.24s WALL (  206777 calls)
 
     PHONON       :  3m21.33s CPU     3m54.21s WALL

     INITIALIZATION: 
     phq_setup    :      0.42s CPU      0.62s WALL (       4 calls)
     phq_init     :     10.32s CPU     11.04s WALL (       4 calls)
 
     phq_init     :     10.32s CPU     11.04s WALL (       4 calls)
     init_vloc    :      0.00s CPU      0.01s WALL (       5 calls)
     init_us_1    :      0.61s CPU      0.62s WALL (       5 calls)
     newd         :      0.06s CPU      0.08s WALL (       5 calls)
     dvanqq       :      0.35s CPU      0.36s WALL (       4 calls)
     drho         :      9.38s CPU      9.43s WALL (       4 calls)
 
     DYNAMICAL MATRIX:
     dynmat0      :      0.12s CPU      0.74s WALL (       4 calls)
     phqscf       :    150.23s CPU    174.73s WALL (       4 calls)
     dynmatrix    :      0.90s CPU      0.96s WALL (       4 calls)
 
     phqscf       :    150.23s CPU    174.73s WALL (       4 calls)
     solve_linter :    149.97s CPU    170.86s WALL (      12 calls)
     drhodv       :      0.20s CPU      0.22s WALL (      12 calls)
 
     dynmat0      :      0.12s CPU      0.74s WALL (       4 calls)
     dynmat_us    :      0.10s CPU      0.10s WALL (       4 calls)
     d2ionq       :      0.01s CPU      0.01s WALL (       4 calls)
 
     dynmat_us    :      0.10s CPU      0.10s WALL (       4 calls)
     addusdynmat  :      0.00s CPU      0.00s WALL (       4 calls)
 
     phqscf       :    150.23s CPU    174.73s WALL (       4 calls)
     solve_linter :    149.97s CPU    170.86s WALL (      12 calls)
 
     solve_linter :    149.97s CPU    170.86s WALL (      12 calls)
     dvqpsi_us    :      2.09s CPU      2.09s WALL (     456 calls)
     ortho        :      0.40s CPU      0.41s WALL (    3952 calls)
     cgsolve      :     44.76s CPU     45.30s WALL (    3952 calls)
     incdrhoscf   :      5.66s CPU      5.65s WALL (    3952 calls)
     addusddens   :      2.18s CPU      2.20s WALL (     116 calls)
     vpsifft      :      4.40s CPU      4.66s WALL (    3496 calls)
     dv_of_drho   :      3.92s CPU      3.95s WALL (     104 calls)
     mix_pot      :      0.53s CPU      0.54s WALL (     104 calls)
     psymdvscf    :      1.63s CPU      1.63s WALL (     104 calls)
     newdq        :      1.86s CPU      1.92s WALL (     104 calls)
     adddvscf     :      0.15s CPU      0.16s WALL (    3496 calls)
     drhodvus     :      0.02s CPU      0.03s WALL (      12 calls)
 
     dvqpsi_us    :      2.09s CPU      2.09s WALL (     456 calls)
     dvqpsi_us_on :      0.10s CPU      0.09s WALL (     456 calls)
 
     cgsolve      :     44.76s CPU     45.30s WALL (    3952 calls)
     ch_psi       :     44.10s CPU     44.71s WALL (   32953 calls)
 
     ch_psi       :     44.10s CPU     44.71s WALL (   32953 calls)
     h_psiq       :     42.45s CPU     43.08s WALL (   32953 calls)
     last         :      1.47s CPU      1.43s WALL (   32953 calls)
 
     h_psiq       :     42.45s CPU     43.08s WALL (   32953 calls)
     firstfft     :     21.96s CPU     22.35s WALL (   60541 calls)
     secondfft    :     17.70s CPU     17.88s WALL (   60541 calls)
     add_vuspsi   :      0.58s CPU      0.62s WALL (   39463 calls)
 
     incdrhoscf   :      5.66s CPU      5.65s WALL (    3952 calls)
     addusdbec    :      0.12s CPU      0.18s WALL (    4408 calls)
 
     drhodvus     :      0.02s CPU      0.03s WALL (      12 calls)
 
      General routines
     calbec       :      1.42s CPU      1.46s WALL (   84728 calls)
     fft          :      2.74s CPU      2.73s WALL (    1667 calls)
     ffts         :      0.38s CPU      0.35s WALL (     732 calls)
     fftw         :     60.51s CPU     61.17s WALL (  204378 calls)
     cinterpolate :      0.56s CPU      0.52s WALL (     220 calls)
     davcio       :      0.03s CPU      0.09s WALL (     912 calls)
     write_rec    :      0.31s CPU     23.42s WALL (     116 calls)
 
 
     PHONON       :  3m21.33s CPU     3m54.21s WALL

 
   This run was terminated on:  12:18:25  19Aug2016            

=------------------------------------------------------------------------------=
   JOB DONE.
=------------------------------------------------------------------------------=
Application 22836224 resources: utime ~42538s, stime ~347s, Rss ~90260, inblocks ~23902755, outblocks ~70332566

     Program PHONON v.5.2.0 starts on 19Dec2016 at 11: 9:36 

     This program is part of the open-source Quantum ESPRESSO suite
     for quantum simulation of materials; please cite
         "P. Giannozzi et al., J. Phys.:Condens. Matter 21 395502 (2009);
          URL http://www.quantum-espresso.org", 
     in publications or presentations arising from this work. More details at
     http://www.quantum-espresso.org/quote

     Parallel version (MPI), running on   192 processors
     K-points division:     npool     =     192

     Reading data from directory:
     ./tmp/li-bcc.save

   Info: using nr1, nr2, nr3 values from input

   Info: using nr1, nr2, nr3 values from input

     IMPORTANT: XC functional enforced from input :
     Exchange-correlation      =  SLA  PW   PBX  PBC ( 1  4  3  4 0 0)
     Any further DFT definition will be discarded
     Please, verify this is what you really want

 
     G-vector sticks info
     --------------------
     sticks:   dense  smooth     PW     G-vecs:    dense   smooth      PW
     Sum         969     483    155                19141     6819    1205
 


     Dynamical matrices for (10,10,10)  uniform grid of q-points
     (  47q-points):
       N         xq(1)         xq(2)         xq(3) 
       1   0.000000000   0.000000000   0.000000000
       2   0.000000000  -0.100000000   0.100000000
       3   0.000000000  -0.200000000   0.200000000
       4   0.000000000  -0.300000000   0.300000000
       5   0.000000000  -0.400000000   0.400000000
       6   0.000000000   0.500000000  -0.500000000
       7  -0.100000000  -0.100000000   0.200000000
       8  -0.100000000  -0.200000000   0.300000000
       9  -0.100000000  -0.300000000   0.400000000
      10  -0.100000000   0.600000000  -0.500000000
      11  -0.200000000  -0.200000000   0.400000000
      12  -0.200000000   0.700000000  -0.500000000
      13  -0.200000000   0.600000000  -0.400000000
      14  -0.300000000   0.700000000  -0.400000000
      15   0.000000000   0.000000000   0.200000000
      16   0.000000000  -0.100000000   0.300000000
      17   0.000000000  -0.200000000   0.400000000
      18   0.000000000  -0.300000000   0.500000000
      19   0.000000000   0.600000000  -0.400000000
      20  -0.100000000  -0.100000000   0.400000000
      21  -0.100000000  -0.200000000   0.500000000
      22  -0.100000000   0.700000000  -0.400000000
      23  -0.200000000   0.200000000   0.200000000
      24  -0.200000000   0.800000000  -0.400000000
      25  -0.200000000   0.700000000  -0.300000000
      26  -0.300000000   0.300000000   0.200000000
      27   0.600000000  -0.600000000   0.200000000
      28   0.600000000  -0.700000000   0.300000000
      29   0.500000000  -0.500000000   0.200000000
      30   0.500000000  -0.600000000   0.300000000
      31   0.400000000  -0.600000000   0.400000000
      32   0.000000000   0.000000000   0.400000000
      33   0.000000000  -0.100000000   0.500000000
      34   0.000000000  -0.200000000   0.600000000
      35   0.000000000   0.700000000  -0.300000000
      36  -0.100000000  -0.100000000   0.600000000
      37  -0.100000000   0.800000000  -0.300000000
      38  -0.200000000   0.800000000  -0.200000000
      39   0.600000000  -0.600000000   0.400000000
      40   0.500000000  -0.500000000   0.400000000
      41   0.000000000   0.000000000   0.600000000
      42   0.000000000  -0.100000000   0.700000000
      43   0.000000000   0.800000000  -0.200000000
      44  -0.100000000   0.900000000  -0.200000000
      45   0.000000000   0.000000000   0.800000000
      46   0.000000000   0.900000000  -0.100000000
      47   0.000000000   0.000000000  -1.000000000

     Calculation of q =    0.0000000  -0.1000000   0.1000000
 
     G-vector sticks info
     --------------------
     sticks:   dense  smooth     PW     G-vecs:    dense   smooth      PW
     Sum         969     483    165                19141     6819    1289
 


     bravais-lattice index     =            3
     lattice parameter (alat)  =       5.9909  a.u.
     unit-cell volume          =     107.5096 (a.u.)^3
     number of atoms/cell      =            1
     number of atomic types    =            1
     number of electrons       =         3.00
     number of Kohn-Sham states=            6
     kinetic-energy cutoff     =      60.0000  Ry
     charge density cutoff     =     480.0000  Ry
     Exchange-correlation      =  SLA  PW   PBX  PBC ( 1  4  3  4 0 0)

     celldm(1)=   5.990904  celldm(2)=   0.000000  celldm(3)=   0.000000
     celldm(4)=   0.000000  celldm(5)=   0.000000  celldm(6)=   0.000000

     crystal axes: (cart. coord. in units of alat)
               a(1) = (   0.500000   0.500000   0.500000 )  
               a(2) = (  -0.500000   0.500000   0.500000 )  
               a(3) = (  -0.500000  -0.500000   0.500000 )  

     reciprocal axes: (cart. coord. in units 2 pi/alat)
               b(1) = (  1.000000  0.000000  1.000000 )  
               b(2) = ( -1.000000  1.000000  0.000000 )  
               b(3) = (  0.000000 -1.000000  1.000000 )  


     PseudoPot. # 1 for Li read from file:
     ../Li.pbe-s-gbrv14.UPF
     MD5 check sum: 7ca33c4f951f001da2db5c8738379802
     Pseudo is Ultrasoft, Zval =  3.0
     Generated by new atomic code, or converted to UPF format
     Using radial grid of  751 points,  5 beta functions with: 
                l(1) =   0
                l(2) =   0
                l(3) =   0
                l(4) =   1
                l(5) =   1
     Q(r) pseudized with 10 coefficients,  rinner =    1.150   1.150   1.150


     atomic species   valence    mass     pseudopotential
        Li             3.00     6.94100     Li( 1.00)

     48 Sym. Ops., with inversion, found



   Cartesian axes

     site n.     atom                  positions (alat units)
         1           Li  tau(   1) = (   0.0000000   0.0000000   0.0000000  )

     number of k points= 33600  Marzari-Vanderbilt smearing, width (Ry)=  0.0200

     Number of k-points >= 100: set verbosity='high' to print them.

     Dense  grid:    19141 G-vectors     FFT dimensions: (  40,  40,  40)

     Smooth grid:     6819 G-vectors     FFT dimensions: (  25,  25,  25)

     Largest allocated arrays     est. size (Mb)     dimensions
        Kohn-Sham Wavefunctions         0.08 Mb     (     887,    6)
        NL pseudopotentials             0.12 Mb     (     887,    9)
        Each V/rho on FFT grid          0.98 Mb     (   64000)
        Each G-vector array             0.15 Mb     (   19141)
        G-vector shells                 0.00 Mb     (     203)
     Largest temporary arrays     est. size (Mb)     dimensions
        Auxiliary wavefunctions         0.32 Mb     (     887,   24)
        Each subspace H/S matrix        0.01 Mb     (      24,   24)
        Each <psi_i|beta_j> matrix      0.00 Mb     (       9,    6)

     The potential is recalculated from file :
     ./tmp/_ph0/li-bcc.save/charge-density.dat

     Starting wfc are    5 atomic +    1 random wfc

     Band Structure Calculation
     Davidson diagonalization with overlap

     ethr =  3.33E-10,  avg # of iterations = 16.5

     total cpu time spent up to now is       17.3 secs

     End of band structure calculation

     Number of k-points >= 100: set verbosity='high' to print the bands.

     the Fermi energy is     1.7962 ev

                                                                                

     bravais-lattice index     =            3
     lattice parameter (alat)  =       5.9909  a.u.
     unit-cell volume          =     107.5096 (a.u.)^3
     number of atoms/cell      =            1
     number of atomic types    =            1
     kinetic-energy cut-off    =      60.0000  Ry
     charge density cut-off    =     480.0000  Ry
     convergence threshold     =      1.0E-18
     beta                      =       0.7000
     number of iterations used =            4
     Exchange-correlation      =  SLA  PW   PBX  PBC ( 1  4  3  4 0 0)


     celldm(1)=    5.99090  celldm(2)=    0.00000  celldm(3)=    0.00000
     celldm(4)=    0.00000  celldm(5)=    0.00000  celldm(6)=    0.00000

     crystal axes: (cart. coord. in units of alat)
               a(1) = (  0.5000  0.5000  0.5000 )  
               a(2) = ( -0.5000  0.5000  0.5000 )  
               a(3) = ( -0.5000 -0.5000  0.5000 )  

     reciprocal axes: (cart. coord. in units 2 pi/alat)
               b(1) = (  1.0000  0.0000  1.0000 )  
               b(2) = ( -1.0000  1.0000  0.0000 )  
               b(3) = (  0.0000 -1.0000  1.0000 )  


     Atoms inside the unit cell: 

     Cartesian axes

     site n.  atom      mass           positions (alat units)
        1     Li   6.9410   tau(    1) = (    0.00000    0.00000    0.00000  )

     Computing dynamical matrix for 
                    q = (   0.0000000  -0.1000000   0.1000000 )
 
      4 Sym.Ops. (no q -> -q+G )


     G cutoff =  436.3814  (  19141 G-vectors)     FFT grid: ( 40, 40, 40)
     G cutoff =  218.1907  (   6819 G-vectors)  smooth grid: ( 25, 25, 25)

     number of k points= 33600  Marzari-Vanderbilt smearing, width (Ry)=  0.0200

     PseudoPot. # 1 for Li read from file:
     ../Li.pbe-s-gbrv14.UPF
     MD5 check sum: 7ca33c4f951f001da2db5c8738379802
     Pseudo is Ultrasoft, Zval =  3.0
     Generated by new atomic code, or converted to UPF format
     Using radial grid of  751 points,  5 beta functions with: 
                l(1) =   0
                l(2) =   0
                l(3) =   0
                l(4) =   1
                l(5) =   1
     Q(r) pseudized with 10 coefficients,  rinner =    1.150   1.150   1.150


     Mode symmetry, C_2v (mm2)  point group:


     Atomic displacements:
     There are   3 irreducible representations

     Representation     1      1 modes -A_1  D_1  S_1  To be done

     Representation     2      1 modes -B_1  D_3  S_3  To be done

     Representation     3      1 modes -B_2  D_4  S_4  To be done



     Alpha used in Ewald sum =   2.8000
     PHONON       :    29.98s CPU        37.95s WALL



     Representation #  1 mode #   1

     Self-consistent Calculation

      iter #   1 total cpu time :    39.8 secs   av.it.:   6.5
      thresh= 1.000E-02 alpha_mix =  0.700 |ddv_scf|^2 =  3.605E-01

      iter #   2 total cpu time :    42.4 secs   av.it.:   8.3
      thresh= 1.000E-02 alpha_mix =  0.700 |ddv_scf|^2 =  7.153E+02

      iter #   3 total cpu time :    45.2 secs   av.it.:   8.3
      thresh= 1.000E-02 alpha_mix =  0.700 |ddv_scf|^2 =  1.389E-02

      iter #   4 total cpu time :    50.4 secs   av.it.:   3.6
      thresh= 1.000E-02 alpha_mix =  0.700 |ddv_scf|^2 =  1.725E-07

      iter #   5 total cpu time :    57.7 secs   av.it.:   7.8
      thresh= 4.153E-05 alpha_mix =  0.700 |ddv_scf|^2 =  1.610E-08

      iter #   6 total cpu time :    59.5 secs   av.it.:   7.4
      thresh= 1.269E-05 alpha_mix =  0.700 |ddv_scf|^2 =  2.989E-09

      iter #   7 total cpu time :    60.7 secs   av.it.:   3.5
      thresh= 5.467E-06 alpha_mix =  0.700 |ddv_scf|^2 =  1.583E-09

      iter #   8 total cpu time :    62.3 secs   av.it.:   5.7
      thresh= 3.979E-06 alpha_mix =  0.700 |ddv_scf|^2 =  6.830E-11

      iter #   9 total cpu time :    63.7 secs   av.it.:   5.8
      thresh= 8.265E-07 alpha_mix =  0.700 |ddv_scf|^2 =  2.513E-12

      iter #  10 total cpu time :    65.1 secs   av.it.:   6.1
      thresh= 1.585E-07 alpha_mix =  0.700 |ddv_scf|^2 =  1.180E-15

      iter #  11 total cpu time :    66.7 secs   av.it.:   7.4
      thresh= 3.435E-09 alpha_mix =  0.700 |ddv_scf|^2 =  4.969E-17

      iter #  12 total cpu time :    68.3 secs   av.it.:   6.6
      thresh= 7.049E-10 alpha_mix =  0.700 |ddv_scf|^2 =  1.117E-18

      iter #  13 total cpu time :    69.9 secs   av.it.:   7.4
      thresh= 1.057E-10 alpha_mix =  0.700 |ddv_scf|^2 =  3.552E-17

      iter #  14 total cpu time :    71.3 secs   av.it.:   5.7
      thresh= 5.960E-10 alpha_mix =  0.700 |ddv_scf|^2 =  1.031E-21

     End of self-consistent calculation

     Convergence has been achieved 


     Representation #  2 mode #   2

     Self-consistent Calculation

      iter #   1 total cpu time :    74.4 secs   av.it.:   5.5
      thresh= 1.000E-02 alpha_mix =  0.700 |ddv_scf|^2 =  1.188E-06

      iter #   2 total cpu time :    77.0 secs   av.it.:   8.5
      thresh= 1.090E-04 alpha_mix =  0.700 |ddv_scf|^2 =  7.222E-08

      iter #   3 total cpu time :    87.0 secs   av.it.:   8.8
      thresh= 2.687E-05 alpha_mix =  0.700 |ddv_scf|^2 =  3.500E-10

      iter #   4 total cpu time :    90.9 secs   av.it.:   8.4
      thresh= 1.871E-06 alpha_mix =  0.700 |ddv_scf|^2 =  9.334E-13

      iter #   5 total cpu time :    92.6 secs   av.it.:   7.7
      thresh= 9.661E-08 alpha_mix =  0.700 |ddv_scf|^2 =  2.012E-14

      iter #   6 total cpu time :    94.3 secs   av.it.:   7.5
      thresh= 1.418E-08 alpha_mix =  0.700 |ddv_scf|^2 =  5.248E-18

      iter #   7 total cpu time :    96.0 secs   av.it.:   8.6
      thresh= 2.291E-10 alpha_mix =  0.700 |ddv_scf|^2 =  1.964E-20

     End of self-consistent calculation

     Convergence has been achieved 


     Representation #  3 mode #   3

     Self-consistent Calculation

      iter #   1 total cpu time :    97.8 secs   av.it.:   5.4
      thresh= 1.000E-02 alpha_mix =  0.700 |ddv_scf|^2 =  1.203E-06

      iter #   2 total cpu time :    99.9 secs   av.it.:   8.5
      thresh= 1.097E-04 alpha_mix =  0.700 |ddv_scf|^2 =  7.298E-08

      iter #   3 total cpu time :   101.7 secs   av.it.:   8.8
      thresh= 2.702E-05 alpha_mix =  0.700 |ddv_scf|^2 =  4.062E-10

      iter #   4 total cpu time :   103.5 secs   av.it.:   8.3
      thresh= 2.015E-06 alpha_mix =  0.700 |ddv_scf|^2 =  9.195E-13

      iter #   5 total cpu time :   105.1 secs   av.it.:   7.9
      thresh= 9.589E-08 alpha_mix =  0.700 |ddv_scf|^2 =  1.929E-14

      iter #   6 total cpu time :   106.8 secs   av.it.:   7.7
      thresh= 1.389E-08 alpha_mix =  0.700 |ddv_scf|^2 =  4.794E-18

      iter #   7 total cpu time :   108.9 secs   av.it.:   8.5
      thresh= 2.190E-10 alpha_mix =  0.700 |ddv_scf|^2 =  1.552E-20

     End of self-consistent calculation

     Convergence has been achieved 
 
     Number of q in the star =   12
     List of q in the star:
          1   0.000000000  -0.100000000   0.100000000
          2  -0.100000000   0.000000000   0.100000000
          3   0.100000000   0.000000000   0.100000000
          4   0.000000000   0.100000000   0.100000000
          5   0.100000000   0.100000000   0.000000000
          6  -0.100000000   0.100000000   0.000000000
          7   0.100000000  -0.100000000   0.000000000
          8  -0.100000000  -0.100000000   0.000000000
          9  -0.100000000   0.000000000  -0.100000000
         10   0.000000000   0.100000000  -0.100000000
         11   0.000000000  -0.100000000  -0.100000000
         12   0.100000000   0.000000000  -0.100000000

     Diagonalizing the dynamical matrix

     q = (    0.000000000  -0.100000000   0.100000000 ) 

 **************************************************************************
     freq (    1) =       0.233046 [THz] =       7.773579 [cm-1]
     freq (    2) =       1.840299 [THz] =      61.385767 [cm-1]
     freq (    3) =       3.381515 [THz] =     112.795191 [cm-1]
 **************************************************************************

     Mode symmetry, C_2v (mm2)  point group:

     freq (  1 -  1) =          7.8  [cm-1]   --> B_1  D_3  S_3      
     freq (  2 -  2) =         61.4  [cm-1]   --> B_2  D_4  S_4      
     freq (  3 -  3) =        112.8  [cm-1]   --> A_1  D_1  S_1      

     Calculation of q =    0.0000000  -0.2000000   0.2000000
 
     G-vector sticks info
     --------------------
     sticks:   dense  smooth     PW     G-vecs:    dense   smooth      PW
     Sum         969     483    169                19141     6819    1409
 


     bravais-lattice index     =            3
     lattice parameter (alat)  =       5.9909  a.u.
     unit-cell volume          =     107.5096 (a.u.)^3
     number of atoms/cell      =            1
     number of atomic types    =            1
     number of electrons       =         3.00
     number of Kohn-Sham states=            6
     kinetic-energy cutoff     =      60.0000  Ry
     charge density cutoff     =     480.0000  Ry
     Exchange-correlation      =  SLA  PW   PBX  PBC ( 1  4  3  4 0 0)

     celldm(1)=   5.990904  celldm(2)=   0.000000  celldm(3)=   0.000000
     celldm(4)=   0.000000  celldm(5)=   0.000000  celldm(6)=   0.000000

     crystal axes: (cart. coord. in units of alat)
               a(1) = (   0.500000   0.500000   0.500000 )  
               a(2) = (  -0.500000   0.500000   0.500000 )  
               a(3) = (  -0.500000  -0.500000   0.500000 )  

     reciprocal axes: (cart. coord. in units 2 pi/alat)
               b(1) = (  1.000000  0.000000  1.000000 )  
               b(2) = ( -1.000000  1.000000  0.000000 )  
               b(3) = (  0.000000 -1.000000  1.000000 )  


     PseudoPot. # 1 for Li read from file:
     ../Li.pbe-s-gbrv14.UPF
     MD5 check sum: 7ca33c4f951f001da2db5c8738379802
     Pseudo is Ultrasoft, Zval =  3.0
     Generated by new atomic code, or converted to UPF format
     Using radial grid of  751 points,  5 beta functions with: 
                l(1) =   0
                l(2) =   0
                l(3) =   0
                l(4) =   1
                l(5) =   1
     Q(r) pseudized with 10 coefficients,  rinner =    1.150   1.150   1.150


     atomic species   valence    mass     pseudopotential
        Li             3.00     6.94100     Li( 1.00)

     48 Sym. Ops., with inversion, found



   Cartesian axes

     site n.     atom                  positions (alat units)
         1           Li  tau(   1) = (   0.0000000   0.0000000   0.0000000  )

     number of k points= 33600  Marzari-Vanderbilt smearing, width (Ry)=  0.0200

     Number of k-points >= 100: set verbosity='high' to print them.

     Dense  grid:    19141 G-vectors     FFT dimensions: (  40,  40,  40)

     Smooth grid:     6819 G-vectors     FFT dimensions: (  25,  25,  25)

     Largest allocated arrays     est. size (Mb)     dimensions
        Kohn-Sham Wavefunctions         0.08 Mb     (     887,    6)
        NL pseudopotentials             0.12 Mb     (     887,    9)
        Each V/rho on FFT grid          0.98 Mb     (   64000)
        Each G-vector array             0.15 Mb     (   19141)
        G-vector shells                 0.00 Mb     (     203)
     Largest temporary arrays     est. size (Mb)     dimensions
        Auxiliary wavefunctions         0.32 Mb     (     887,   24)
        Each subspace H/S matrix        0.01 Mb     (      24,   24)
        Each <psi_i|beta_j> matrix      0.00 Mb     (       9,    6)

     The potential is recalculated from file :
     ./tmp/_ph0/li-bcc.save/charge-density.dat

     Starting wfc are    5 atomic +    1 random wfc

     Band Structure Calculation
     Davidson diagonalization with overlap

     ethr =  3.33E-10,  avg # of iterations = 16.4

     total cpu time spent up to now is       34.9 secs

     End of band structure calculation

     Number of k-points >= 100: set verbosity='high' to print the bands.

     the Fermi energy is     1.7962 ev

                                                                                

     bravais-lattice index     =            3
     lattice parameter (alat)  =       5.9909  a.u.
     unit-cell volume          =     107.5096 (a.u.)^3
     number of atoms/cell      =            1
     number of atomic types    =            1
     kinetic-energy cut-off    =      60.0000  Ry
     charge density cut-off    =     480.0000  Ry
     convergence threshold     =      1.0E-18
     beta                      =       0.7000
     number of iterations used =            4
     Exchange-correlation      =  SLA  PW   PBX  PBC ( 1  4  3  4 0 0)


     celldm(1)=    5.99090  celldm(2)=    0.00000  celldm(3)=    0.00000
     celldm(4)=    0.00000  celldm(5)=    0.00000  celldm(6)=    0.00000

     crystal axes: (cart. coord. in units of alat)
               a(1) = (  0.5000  0.5000  0.5000 )  
               a(2) = ( -0.5000  0.5000  0.5000 )  
               a(3) = ( -0.5000 -0.5000  0.5000 )  

     reciprocal axes: (cart. coord. in units 2 pi/alat)
               b(1) = (  1.0000  0.0000  1.0000 )  
               b(2) = ( -1.0000  1.0000  0.0000 )  
               b(3) = (  0.0000 -1.0000  1.0000 )  


     Atoms inside the unit cell: 

     Cartesian axes

     site n.  atom      mass           positions (alat units)
        1     Li   6.9410   tau(    1) = (    0.00000    0.00000    0.00000  )

     Computing dynamical matrix for 
                    q = (   0.0000000  -0.2000000   0.2000000 )
 
      4 Sym.Ops. (no q -> -q+G )


     G cutoff =  436.3814  (  19141 G-vectors)     FFT grid: ( 40, 40, 40)
     G cutoff =  218.1907  (   6819 G-vectors)  smooth grid: ( 25, 25, 25)

     number of k points= 33600  Marzari-Vanderbilt smearing, width (Ry)=  0.0200

     PseudoPot. # 1 for Li read from file:
     ../Li.pbe-s-gbrv14.UPF
     MD5 check sum: 7ca33c4f951f001da2db5c8738379802
     Pseudo is Ultrasoft, Zval =  3.0
     Generated by new atomic code, or converted to UPF format
     Using radial grid of  751 points,  5 beta functions with: 
                l(1) =   0
                l(2) =   0
                l(3) =   0
                l(4) =   1
                l(5) =   1
     Q(r) pseudized with 10 coefficients,  rinner =    1.150   1.150   1.150


     Mode symmetry, C_2v (mm2)  point group:


     Atomic displacements:
     There are   3 irreducible representations

     Representation     1      1 modes -A_1  D_1  S_1  To be done

     Representation     2      1 modes -B_1  D_3  S_3  To be done

     Representation     3      1 modes -B_2  D_4  S_4  To be done



     Alpha used in Ewald sum =   2.8000
     PHONON       :  1m56.82s CPU     2m 8.76s WALL



     Representation #  1 mode #   1

     Self-consistent Calculation

      iter #   1 total cpu time :   130.5 secs   av.it.:   6.5
      thresh= 1.000E-02 alpha_mix =  0.700 |ddv_scf|^2 =  4.745E-03

      iter #   2 total cpu time :   132.8 secs   av.it.:   7.5
      thresh= 6.889E-03 alpha_mix =  0.700 |ddv_scf|^2 =  4.602E-01

      iter #   3 total cpu time :   135.1 secs   av.it.:   7.0
      thresh= 1.000E-02 alpha_mix =  0.700 |ddv_scf|^2 =  7.774E-08

      iter #   4 total cpu time :   136.9 secs   av.it.:   9.0
      thresh= 2.788E-05 alpha_mix =  0.700 |ddv_scf|^2 =  1.073E-08

      iter #   5 total cpu time :   138.7 secs   av.it.:   8.6
      thresh= 1.036E-05 alpha_mix =  0.700 |ddv_scf|^2 =  2.230E-10

      iter #   6 total cpu time :   140.5 secs   av.it.:   7.9
      thresh= 1.493E-06 alpha_mix =  0.700 |ddv_scf|^2 =  1.528E-13

      iter #   7 total cpu time :   142.3 secs   av.it.:   9.4
      thresh= 3.909E-08 alpha_mix =  0.700 |ddv_scf|^2 =  4.523E-14

      iter #   8 total cpu time :   144.2 secs   av.it.:   8.3
      thresh= 2.127E-08 alpha_mix =  0.700 |ddv_scf|^2 =  6.774E-13

      iter #   9 total cpu time :   150.4 secs   av.it.:   5.6
      thresh= 8.230E-08 alpha_mix =  0.700 |ddv_scf|^2 =  3.185E-14

      iter #  10 total cpu time :   152.0 secs   av.it.:   6.6
      thresh= 1.785E-08 alpha_mix =  0.700 |ddv_scf|^2 =  1.360E-17

      iter #  11 total cpu time :   158.3 secs   av.it.:   9.6
      thresh= 3.687E-10 alpha_mix =  0.700 |ddv_scf|^2 =  4.976E-18

      iter #  12 total cpu time :   160.3 secs   av.it.:   8.2
      thresh= 2.231E-10 alpha_mix =  0.700 |ddv_scf|^2 =  6.369E-21

     End of self-consistent calculation

     Convergence has been achieved 


     Representation #  2 mode #   2

     Self-consistent Calculation

[...]
      thresh= 2.424E-10 alpha_mix =  0.700 |ddv_scf|^2 =  1.272E-20

     End of self-consistent calculation

     Convergence has been achieved 


     Representation #  3 mode #   3

     Self-consistent Calculation

      iter #   1 total cpu time :   255.6 secs   av.it.:   5.5
      thresh= 1.000E-02 alpha_mix =  0.700 |ddv_scf|^2 =  1.323E-06

      iter #   2 total cpu time :   257.4 secs   av.it.:   8.6
      thresh= 1.150E-04 alpha_mix =  0.700 |ddv_scf|^2 =  7.812E-08

      iter #   3 total cpu time :   259.2 secs   av.it.:   8.8
      thresh= 2.795E-05 alpha_mix =  0.700 |ddv_scf|^2 =  9.295E-10

      iter #   4 total cpu time :   261.4 secs   av.it.:   8.2
      thresh= 3.049E-06 alpha_mix =  0.700 |ddv_scf|^2 =  9.888E-13

      iter #   5 total cpu time :   263.1 secs   av.it.:   8.4
      thresh= 9.944E-08 alpha_mix =  0.700 |ddv_scf|^2 =  2.054E-14

      iter #   6 total cpu time :   264.7 secs   av.it.:   7.3
      thresh= 1.433E-08 alpha_mix =  0.700 |ddv_scf|^2 =  3.698E-18

      iter #   7 total cpu time :   266.5 secs   av.it.:   8.8
      thresh= 1.923E-10 alpha_mix =  0.700 |ddv_scf|^2 =  1.466E-20

     End of self-consistent calculation

     Convergence has been achieved 
 
     Number of q in the star =   12
     List of q in the star:
          1   0.000000000  -0.300000000   0.300000000
          2  -0.300000000   0.000000000   0.300000000
          3   0.300000000   0.000000000   0.300000000
          4   0.000000000   0.300000000   0.300000000
          5   0.300000000   0.300000000   0.000000000
          6  -0.300000000   0.300000000   0.000000000
          7   0.300000000  -0.300000000   0.000000000
          8  -0.300000000  -0.300000000   0.000000000
          9  -0.300000000   0.000000000  -0.300000000
         10   0.000000000   0.300000000  -0.300000000
         11   0.000000000  -0.300000000  -0.300000000
         12   0.300000000   0.000000000  -0.300000000

     Diagonalizing the dynamical matrix

     q = (    0.000000000  -0.300000000   0.300000000 ) 

 **************************************************************************
     freq (    1) =       0.734281 [THz] =      24.492978 [cm-1]
     freq (    2) =       4.716833 [THz] =     157.336628 [cm-1]
     freq (    3) =      10.279541 [THz] =     342.888574 [cm-1]
 **************************************************************************

     Mode symmetry, C_2v (mm2)  point group:

     freq (  1 -  1) =         24.5  [cm-1]   --> B_1  D_3  S_3      
     freq (  2 -  2) =        157.3  [cm-1]   --> B_2  D_4  S_4      
     freq (  3 -  3) =        342.9  [cm-1]   --> A_1  D_1  S_1      

     Calculation of q =    0.0000000  -0.4000000   0.4000000
 
     G-vector sticks info
     --------------------
     sticks:   dense  smooth     PW     G-vecs:    dense   smooth      PW
     Sum         969     483    173                19141     6819    1481
 


     bravais-lattice index     =            3
     lattice parameter (alat)  =       5.9909  a.u.
     unit-cell volume          =     107.5096 (a.u.)^3
     number of atoms/cell      =            1
     number of atomic types    =            1
     number of electrons       =         3.00
     number of Kohn-Sham states=            6
     kinetic-energy cutoff     =      60.0000  Ry
     charge density cutoff     =     480.0000  Ry
     Exchange-correlation      =  SLA  PW   PBX  PBC ( 1  4  3  4 0 0)

     celldm(1)=   5.990904  celldm(2)=   0.000000  celldm(3)=   0.000000
     celldm(4)=   0.000000  celldm(5)=   0.000000  celldm(6)=   0.000000

     crystal axes: (cart. coord. in units of alat)
               a(1) = (   0.500000   0.500000   0.500000 )  
               a(2) = (  -0.500000   0.500000   0.500000 )  
               a(3) = (  -0.500000  -0.500000   0.500000 )  

     reciprocal axes: (cart. coord. in units 2 pi/alat)
               b(1) = (  1.000000  0.000000  1.000000 )  
               b(2) = ( -1.000000  1.000000  0.000000 )  
               b(3) = (  0.000000 -1.000000  1.000000 )  


     PseudoPot. # 1 for Li read from file:
     ../Li.pbe-s-gbrv14.UPF
     MD5 check sum: 7ca33c4f951f001da2db5c8738379802
     Pseudo is Ultrasoft, Zval =  3.0
     Generated by new atomic code, or converted to UPF format
     Using radial grid of  751 points,  5 beta functions with: 
                l(1) =   0
                l(2) =   0
                l(3) =   0
                l(4) =   1
                l(5) =   1
     Q(r) pseudized with 10 coefficients,  rinner =    1.150   1.150   1.150


     atomic species   valence    mass     pseudopotential
        Li             3.00     6.94100     Li( 1.00)

     48 Sym. Ops., with inversion, found



   Cartesian axes

     site n.     atom                  positions (alat units)
         1           Li  tau(   1) = (   0.0000000   0.0000000   0.0000000  )

     number of k points= 33600  Marzari-Vanderbilt smearing, width (Ry)=  0.0200

     Number of k-points >= 100: set verbosity='high' to print them.

     Dense  grid:    19141 G-vectors     FFT dimensions: (  40,  40,  40)

     Smooth grid:     6819 G-vectors     FFT dimensions: (  25,  25,  25)

     Largest allocated arrays     est. size (Mb)     dimensions
        Kohn-Sham Wavefunctions         0.08 Mb     (     887,    6)
        NL pseudopotentials             0.12 Mb     (     887,    9)
        Each V/rho on FFT grid          0.98 Mb     (   64000)
        Each G-vector array             0.15 Mb     (   19141)
        G-vector shells                 0.00 Mb     (     203)
     Largest temporary arrays     est. size (Mb)     dimensions
        Auxiliary wavefunctions         0.32 Mb     (     887,   24)
        Each subspace H/S matrix        0.01 Mb     (      24,   24)
        Each <psi_i|beta_j> matrix      0.00 Mb     (       9,    6)

     The potential is recalculated from file :
     ./tmp/_ph0/li-bcc.save/charge-density.dat

     Starting wfc are    5 atomic +    1 random wfc

     Band Structure Calculation
     Davidson diagonalization with overlap

     ethr =  3.33E-10,  avg # of iterations = 16.5

     total cpu time spent up to now is       69.7 secs

     End of band structure calculation

     Number of k-points >= 100: set verbosity='high' to print the bands.

     the Fermi energy is     1.7962 ev

                                                                                

     bravais-lattice index     =            3
     lattice parameter (alat)  =       5.9909  a.u.
     unit-cell volume          =     107.5096 (a.u.)^3
     number of atoms/cell      =            1
     number of atomic types    =            1
     kinetic-energy cut-off    =      60.0000  Ry
     charge density cut-off    =     480.0000  Ry
     convergence threshold     =      1.0E-18
     beta                      =       0.7000
     number of iterations used =            4
     Exchange-correlation      =  SLA  PW   PBX  PBC ( 1  4  3  4 0 0)


     celldm(1)=    5.99090  celldm(2)=    0.00000  celldm(3)=    0.00000
     celldm(4)=    0.00000  celldm(5)=    0.00000  celldm(6)=    0.00000

     crystal axes: (cart. coord. in units of alat)
               a(1) = (  0.5000  0.5000  0.5000 )  
               a(2) = ( -0.5000  0.5000  0.5000 )  
               a(3) = ( -0.5000 -0.5000  0.5000 )  

     reciprocal axes: (cart. coord. in units 2 pi/alat)
               b(1) = (  1.0000  0.0000  1.0000 )  
               b(2) = ( -1.0000  1.0000  0.0000 )  
               b(3) = (  0.0000 -1.0000  1.0000 )  


     Atoms inside the unit cell: 

     Cartesian axes

     site n.  atom      mass           positions (alat units)
        1     Li   6.9410   tau(    1) = (    0.00000    0.00000    0.00000  )

     Computing dynamical matrix for 
                    q = (   0.0000000  -0.4000000   0.4000000 )
 
      4 Sym.Ops. (no q -> -q+G )


     G cutoff =  436.3814  (  19141 G-vectors)     FFT grid: ( 40, 40, 40)
     G cutoff =  218.1907  (   6819 G-vectors)  smooth grid: ( 25, 25, 25)

     number of k points= 33600  Marzari-Vanderbilt smearing, width (Ry)=  0.0200

     PseudoPot. # 1 for Li read from file:
     ../Li.pbe-s-gbrv14.UPF
     MD5 check sum: 7ca33c4f951f001da2db5c8738379802
     Pseudo is Ultrasoft, Zval =  3.0
     Generated by new atomic code, or converted to UPF format
     Using radial grid of  751 points,  5 beta functions with: 
                l(1) =   0
                l(2) =   0
                l(3) =   0
                l(4) =   1
                l(5) =   1
     Q(r) pseudized with 10 coefficients,  rinner =    1.150   1.150   1.150


     Mode symmetry, C_2v (mm2)  point group:


     Atomic displacements:
     There are   3 irreducible representations

     Representation     1      1 modes -A_1  D_1  S_1  To be done

     Representation     2      1 modes -B_1  D_3  S_3  To be done

     Representation     3      1 modes -B_2  D_4  S_4  To be done



     Alpha used in Ewald sum =   2.8000
     PHONON       :  4m25.57s CPU     4m45.63s WALL



     Representation #  1 mode #   1

     Self-consistent Calculation

      iter #   1 total cpu time :   287.3 secs   av.it.:   6.5
      thresh= 1.000E-02 alpha_mix =  0.700 |ddv_scf|^2 =  4.681E-05

      iter #   2 total cpu time :   290.1 secs   av.it.:   8.5
      thresh= 6.842E-04 alpha_mix =  0.700 |ddv_scf|^2 =  9.930E-05

      iter #   3 total cpu time :   291.7 secs   av.it.:   7.3
      thresh= 9.965E-04 alpha_mix =  0.700 |ddv_scf|^2 =  7.340E-08

      iter #   4 total cpu time :   293.5 secs   av.it.:   8.6
      thresh= 2.709E-05 alpha_mix =  0.700 |ddv_scf|^2 =  3.826E-09

      iter #   5 total cpu time :   296.0 secs   av.it.:   8.7
      thresh= 6.186E-06 alpha_mix =  0.700 |ddv_scf|^2 =  4.454E-12

      iter #   6 total cpu time :   299.0 secs   av.it.:   8.9
      thresh= 2.110E-07 alpha_mix =  0.700 |ddv_scf|^2 =  2.167E-13

      iter #   7 total cpu time :   301.7 secs   av.it.:   8.8
      thresh= 4.655E-08 alpha_mix =  0.700 |ddv_scf|^2 =  7.840E-16

      iter #   8 total cpu time :   304.4 secs   av.it.:   9.3
      thresh= 2.800E-09 alpha_mix =  0.700 |ddv_scf|^2 =  2.525E-17

      iter #   9 total cpu time :   307.2 secs   av.it.:   8.9
      thresh= 5.025E-10 alpha_mix =  0.700 |ddv_scf|^2 =  2.499E-17

      iter #  10 total cpu time :   317.5 secs   av.it.:   7.4
      thresh= 4.999E-10 alpha_mix =  0.700 |ddv_scf|^2 =  4.258E-20

     End of self-consistent calculation

     Convergence has been achieved 


     Representation #  2 mode #   2

     Self-consistent Calculation

      iter #   1 total cpu time :   319.2 secs   av.it.:   5.6
      thresh= 1.000E-02 alpha_mix =  0.700 |ddv_scf|^2 =  1.233E-06

      iter #   2 total cpu time :   321.3 secs   av.it.:   8.6
      thresh= 1.110E-04 alpha_mix =  0.700 |ddv_scf|^2 =  7.286E-08

      iter #   3 total cpu time :   323.3 secs   av.it.:   8.9
      thresh= 2.699E-05 alpha_mix =  0.700 |ddv_scf|^2 =  5.794E-10

      iter #   4 total cpu time :   325.0 secs   av.it.:   8.1
      thresh= 2.407E-06 alpha_mix =  0.700 |ddv_scf|^2 =  6.854E-13

      iter #   5 total cpu time :   327.0 secs   av.it.:   8.4
      thresh= 8.279E-08 alpha_mix =  0.700 |ddv_scf|^2 =  1.819E-14

      iter #   6 total cpu time :   328.6 secs   av.it.:   7.6
      thresh= 1.349E-08 alpha_mix =  0.700 |ddv_scf|^2 =  5.726E-18

      iter #   7 total cpu time :   330.3 secs   av.it.:   8.6
      thresh= 2.393E-10 alpha_mix =  0.700 |ddv_scf|^2 =  1.130E-20

     End of self-consistent calculation

     Convergence has been achieved 


     Representation #  3 mode #   3

     Self-consistent Calculation

      iter #   1 total cpu time :   341.7 secs   av.it.:   5.6
      thresh= 1.000E-02 alpha_mix =  0.700 |ddv_scf|^2 =  1.381E-06

      iter #   2 total cpu time :   344.0 secs   av.it.:   8.6
      thresh= 1.175E-04 alpha_mix =  0.700 |ddv_scf|^2 =  8.048E-08

      iter #   3 total cpu time :   345.8 secs   av.it.:   8.8
      thresh= 2.837E-05 alpha_mix =  0.700 |ddv_scf|^2 =  1.220E-09

      iter #   4 total cpu time :   347.5 secs   av.it.:   8.2
      thresh= 3.493E-06 alpha_mix =  0.700 |ddv_scf|^2 =  1.101E-12

      iter #   5 total cpu time :   349.4 secs   av.it.:   8.4
      thresh= 1.049E-07 alpha_mix =  0.700 |ddv_scf|^2 =  2.276E-14

      iter #   6 total cpu time :   351.3 secs   av.it.:   7.6
      thresh= 1.509E-08 alpha_mix =  0.700 |ddv_scf|^2 =  3.404E-18

      iter #   7 total cpu time :   353.6 secs   av.it.:   8.9
      thresh= 1.845E-10 alpha_mix =  0.700 |ddv_scf|^2 =  1.865E-20

     End of self-consistent calculation

     Convergence has been achieved 
 
     Number of q in the star =   12
     List of q in the star:
          1   0.000000000  -0.400000000   0.400000000
          2  -0.400000000   0.000000000   0.400000000
          3   0.400000000   0.000000000   0.400000000
          4   0.000000000   0.400000000   0.400000000
          5   0.400000000   0.400000000   0.000000000
          6  -0.400000000   0.400000000   0.000000000
          7   0.400000000  -0.400000000   0.000000000
          8  -0.400000000  -0.400000000   0.000000000
          9  -0.400000000   0.000000000  -0.400000000
         10   0.000000000   0.400000000  -0.400000000
         11   0.000000000  -0.400000000  -0.400000000
         12   0.400000000   0.000000000  -0.400000000

     Diagonalizing the dynamical matrix

     q = (    0.000000000  -0.400000000   0.400000000 ) 

 **************************************************************************
     freq (    1) =       1.011430 [THz] =      33.737664 [cm-1]
     freq (    2) =       5.517437 [THz] =     184.041884 [cm-1]
     freq (    3) =      12.264486 [THz] =     409.099218 [cm-1]
 **************************************************************************

     Mode symmetry, C_2v (mm2)  point group:

     freq (  1 -  1) =         33.7  [cm-1]   --> B_1  D_3  S_3      
     freq (  2 -  2) =        184.0  [cm-1]   --> B_2  D_4  S_4      
     freq (  3 -  3) =        409.1  [cm-1]   --> A_1  D_1  S_1      
 
     init_run     :      2.40s CPU      2.60s WALL (       4 calls)
     electrons    :     64.68s CPU     65.52s WALL (       4 calls)

     Called by init_run:
     wfcinit      :      0.01s CPU      0.04s WALL (       4 calls)
     potinit      :      1.63s CPU      1.66s WALL (       4 calls)

     Called by electrons:
     c_bands      :     64.65s CPU     65.49s WALL (       4 calls)
     v_of_rho     :      0.18s CPU      0.20s WALL (       5 calls)
     newd         :      0.06s CPU      0.08s WALL (       5 calls)

     Called by c_bands:
     init_us_2    :      1.72s CPU      1.87s WALL (   12320 calls)
     cegterg      :     39.32s CPU     39.65s WALL (     950 calls)

     Called by sum_band:

     Called by *egterg:
     h_psi        :     37.34s CPU     37.61s WALL (   15128 calls)
     s_psi        :      2.41s CPU      2.44s WALL (  180860 calls)
     g_psi        :      0.28s CPU      0.28s WALL (   13474 calls)
     cdiaghg      :      1.77s CPU      1.89s WALL (   14178 calls)

     Called by h_psi:
     add_vuspsi   :      1.39s CPU      1.43s WALL (   93418 calls)

     General routines
     calbec       :      3.32s CPU      3.43s WALL (  200220 calls)
     fft          :      2.82s CPU      2.77s WALL (    1667 calls)
     ffts         :      0.62s CPU      0.65s WALL (    1332 calls)
     fftw         :    142.72s CPU    143.78s WALL (  479066 calls)
     interpolate  :      0.03s CPU      0.02s WALL (       8 calls)
     davcio       :      0.02s CPU      0.25s WALL (    2112 calls)
 
     Parallel routines
     fft_scatter  :      7.26s CPU      7.32s WALL (  482065 calls)
 
     PHONON       :  5m31.56s CPU     5m54.65s WALL

     INITIALIZATION: 
     phq_setup    :      0.42s CPU      0.79s WALL (       4 calls)
     phq_init     :      4.18s CPU      4.49s WALL (       4 calls)
 
     phq_init     :      4.18s CPU      4.49s WALL (       4 calls)
     init_vloc    :      0.01s CPU      0.01s WALL (       5 calls)
     init_us_1    :      0.62s CPU      0.62s WALL (       5 calls)
     newd         :      0.06s CPU      0.08s WALL (       5 calls)
     dvanqq       :      0.34s CPU      0.35s WALL (       4 calls)
     drho         :      3.04s CPU      3.09s WALL (       4 calls)
 
     DYNAMICAL MATRIX:
     dynmat0      :      0.22s CPU      0.41s WALL (       4 calls)
     phqscf       :    245.95s CPU    257.91s WALL (       4 calls)
     dynmatrix    :      0.95s CPU      1.15s WALL (       4 calls)
 
     phqscf       :    245.95s CPU    257.91s WALL (       4 calls)
     solve_linter :    245.48s CPU    256.31s WALL (      12 calls)
     drhodv       :      0.44s CPU      0.48s WALL (      12 calls)
 
     dynmat0      :      0.22s CPU      0.41s WALL (       4 calls)
     dynmat_us    :      0.20s CPU      0.21s WALL (       4 calls)
     d2ionq       :      0.01s CPU      0.01s WALL (       4 calls)
 
     dynmat_us    :      0.20s CPU      0.21s WALL (       4 calls)
     addusdynmat  :      0.00s CPU      0.00s WALL (       4 calls)
 
     phqscf       :    245.95s CPU    257.91s WALL (       4 calls)
     solve_linter :    245.48s CPU    256.31s WALL (      12 calls)
 
     solve_linter :    245.48s CPU    256.31s WALL (      12 calls)
     dvqpsi_us    :      4.78s CPU      4.88s WALL (    1056 calls)
     ortho        :      0.90s CPU      0.95s WALL (    9152 calls)
     cgsolve      :    106.13s CPU    107.46s WALL (    9152 calls)
     incdrhoscf   :     12.88s CPU     13.16s WALL (    9152 calls)
     addusddens   :      2.17s CPU      2.19s WALL (     116 calls)
     vpsifft      :     10.64s CPU     10.80s WALL (    8096 calls)
     dv_of_drho   :      3.94s CPU      4.02s WALL (     104 calls)
     mix_pot      :      0.53s CPU      0.52s WALL (     104 calls)
     psymdvscf    :      1.64s CPU      1.64s WALL (     104 calls)
     newdq        :      1.91s CPU      1.92s WALL (     104 calls)
     adddvscf     :      0.37s CPU      0.36s WALL (    8096 calls)
     drhodvus     :      0.02s CPU      0.03s WALL (      12 calls)
 
     dvqpsi_us    :      4.78s CPU      4.88s WALL (    1056 calls)
     dvqpsi_us_on :      0.23s CPU      0.21s WALL (    1056 calls)
 
     cgsolve      :    106.13s CPU    107.46s WALL (    9152 calls)
     ch_psi       :    104.91s CPU    106.06s WALL (   78290 calls)
 
     ch_psi       :    104.91s CPU    106.06s WALL (   78290 calls)
     h_psiq       :    101.08s CPU    102.19s WALL (   78290 calls)
     last         :      3.42s CPU      3.42s WALL (   78290 calls)
 
     h_psiq       :    101.08s CPU    102.19s WALL (   78290 calls)
     firstfft     :     52.52s CPU     53.08s WALL (  143223 calls)
     secondfft    :     42.10s CPU     42.36s WALL (  143223 calls)
     add_vuspsi   :      1.39s CPU      1.43s WALL (   93418 calls)
 
     incdrhoscf   :     12.88s CPU     13.16s WALL (    9152 calls)
     addusdbec    :      0.41s CPU      0.42s WALL (   10208 calls)
 
     drhodvus     :      0.02s CPU      0.03s WALL (      12 calls)
 
      General routines
     calbec       :      3.32s CPU      3.43s WALL (  200220 calls)
     fft          :      2.82s CPU      2.77s WALL (    1667 calls)
     ffts         :      0.62s CPU      0.65s WALL (    1332 calls)
     fftw         :    142.72s CPU    143.78s WALL (  479066 calls)
     cinterpolate :      0.53s CPU      0.52s WALL (     220 calls)
     davcio       :      0.02s CPU      0.25s WALL (    2112 calls)
     write_rec    :      0.26s CPU      9.72s WALL (     116 calls)
 
 
     PHONON       :  5m31.56s CPU     5m54.65s WALL

 
   This run was terminated on:  11:15:31  19Dec2016            

=------------------------------------------------------------------------------=
   JOB DONE.
=------------------------------------------------------------------------------=
Application 24549915 resources: utime ~65743s, stime ~596s, Rss ~109540, inblocks ~54376829, outblocks ~96971972
