
     Program PWSCF v.5.2.0 starts on 19Aug2016 at 12:13:56 

     This program is part of the open-source Quantum ESPRESSO suite
     for quantum simulation of materials; please cite
         "P. Giannozzi et al., J. Phys.:Condens. Matter 21 395502 (2009);
          URL http://www.quantum-espresso.org", 
     in publications or presentations arising from this work. More details at
     http://www.quantum-espresso.org/quote

     Parallel version (MPI), running on   192 processors
     K-points division:     npool     =     192
     Waiting for input...
     Reading input from standard input
     Message from routine read_cards :
     DEPRECATED: no units specified in ATOMIC_POSITIONS card
     Message from routine read_cards :
     ATOMIC_POSITIONS: units set to alat

     Current dimensions of program PWSCF are:
     Max number of different atomic species (ntypx) = 10
     Max number of k-points (npk) = 400000
     Max angular momentum in pseudopotentials (lmaxx) =  3

     Subspace diagonalization in iterative solution of the eigenvalue problem:
     a serial algorithm will be used

 
     G-vector sticks info
     --------------------
     sticks:   dense  smooth     PW     G-vecs:    dense   smooth      PW
     Sum         969     483    155                19141     6819    1205
 


     bravais-lattice index     =            3
     lattice parameter (alat)  =       5.9909  a.u.
     unit-cell volume          =     107.5096 (a.u.)^3
     number of atoms/cell      =            1
     number of atomic types    =            1
     number of electrons       =         3.00
     number of Kohn-Sham states=            6
     kinetic-energy cutoff     =      60.0000  Ry
     charge density cutoff     =     480.0000  Ry
     convergence threshold     =      1.0E-12
     mixing beta               =       0.7000
     number of iterations used =            8  plain     mixing
     Exchange-correlation      =  SLA  PW   PBX  PBC ( 1  4  3  4 0 0)

     celldm(1)=   5.990904  celldm(2)=   0.000000  celldm(3)=   0.000000
     celldm(4)=   0.000000  celldm(5)=   0.000000  celldm(6)=   0.000000

     crystal axes: (cart. coord. in units of alat)
               a(1) = (   0.500000   0.500000   0.500000 )  
               a(2) = (  -0.500000   0.500000   0.500000 )  
               a(3) = (  -0.500000  -0.500000   0.500000 )  

     reciprocal axes: (cart. coord. in units 2 pi/alat)
               b(1) = (  1.000000  0.000000  1.000000 )  
               b(2) = ( -1.000000  1.000000  0.000000 )  
               b(3) = (  0.000000 -1.000000  1.000000 )  


     PseudoPot. # 1 for Li read from file:
     ../Li.pbe-s-gbrv14.UPF
     MD5 check sum: 7ca33c4f951f001da2db5c8738379802
     Pseudo is Ultrasoft, Zval =  3.0
     Generated by new atomic code, or converted to UPF format
     Using radial grid of  751 points,  5 beta functions with: 
                l(1) =   0
                l(2) =   0
                l(3) =   0
                l(4) =   1
                l(5) =   1
     Q(r) pseudized with 10 coefficients,  rinner =    1.150   1.150   1.150


     atomic species   valence    mass     pseudopotential
        Li             3.00     6.94100     Li( 1.00)

     48 Sym. Ops., with inversion, found



   Cartesian axes

     site n.     atom                  positions (alat units)
         1           Li  tau(   1) = (   0.0000000   0.0000000   0.0000000  )

     number of k points=   744  Marzari-Vanderbilt smearing, width (Ry)=  0.0200

     Number of k-points >= 100: set verbosity='high' to print them.

     Dense  grid:    19141 G-vectors     FFT dimensions: (  40,  40,  40)

     Smooth grid:     6819 G-vectors     FFT dimensions: (  25,  25,  25)

     Largest allocated arrays     est. size (Mb)     dimensions
        Kohn-Sham Wavefunctions         0.08 Mb     (     887,    6)
        NL pseudopotentials             0.12 Mb     (     887,    9)
        Each V/rho on FFT grid          0.98 Mb     (   64000)
        Each G-vector array             0.15 Mb     (   19141)
        G-vector shells                 0.00 Mb     (     203)
     Largest temporary arrays     est. size (Mb)     dimensions
        Auxiliary wavefunctions         0.32 Mb     (     887,   24)
        Each subspace H/S matrix        0.01 Mb     (      24,   24)
        Each <psi_i|beta_j> matrix      0.00 Mb     (       9,    6)
        Arrays for rho mixing           7.81 Mb     (   64000,    8)

     Initial potential from superposition of free atoms

     starting charge    2.54926, renormalised to    3.00000
     Starting wfc are    5 randomized atomic wfcs +    1 random wfc

     total cpu time spent up to now is        1.9 secs

     per-process dynamical memory:    20.1 Mb

     Self-consistent Calculation

     iteration #  1     ecut=    60.00 Ry     beta=0.70
     Davidson diagonalization with overlap
     ethr =  1.00E-02,  avg # of iterations =  5.3

     total cpu time spent up to now is        2.8 secs

     total energy              =     -14.46271120 Ry
     Harris-Foulkes estimate   =     -14.57587699 Ry
     estimated scf accuracy    <       0.15837913 Ry

     iteration #  2     ecut=    60.00 Ry     beta=0.70
     Davidson diagonalization with overlap
     ethr =  5.28E-03,  avg # of iterations =  1.0

     total cpu time spent up to now is        3.0 secs

     total energy              =     -14.46626788 Ry
     Harris-Foulkes estimate   =     -14.47143496 Ry
     estimated scf accuracy    <       0.00702617 Ry

     iteration #  3     ecut=    60.00 Ry     beta=0.70
     Davidson diagonalization with overlap
     ethr =  2.34E-04,  avg # of iterations =  2.2

     total cpu time spent up to now is        3.1 secs

     total energy              =     -14.46788269 Ry
     Harris-Foulkes estimate   =     -14.46787547 Ry
     estimated scf accuracy    <       0.00003371 Ry

     iteration #  4     ecut=    60.00 Ry     beta=0.70
     Davidson diagonalization with overlap
     ethr =  1.12E-06,  avg # of iterations =  3.9

     total cpu time spent up to now is        3.4 secs

     total energy              =     -14.46789315 Ry
     Harris-Foulkes estimate   =     -14.46789331 Ry
     estimated scf accuracy    <       0.00000074 Ry

     iteration #  5     ecut=    60.00 Ry     beta=0.70
     Davidson diagonalization with overlap
     ethr =  2.47E-08,  avg # of iterations =  2.1

     total cpu time spent up to now is        3.5 secs

     total energy              =     -14.46789346 Ry
     Harris-Foulkes estimate   =     -14.46789347 Ry
     estimated scf accuracy    <       0.00000001 Ry

     iteration #  6     ecut=    60.00 Ry     beta=0.70
     Davidson diagonalization with overlap
     ethr =  3.65E-10,  avg # of iterations =  2.2

     total cpu time spent up to now is        3.7 secs

     total energy              =     -14.46789347 Ry
     Harris-Foulkes estimate   =     -14.46789347 Ry
     estimated scf accuracy    <          3.4E-09 Ry

     iteration #  7     ecut=    60.00 Ry     beta=0.70
     Davidson diagonalization with overlap
     ethr =  1.14E-10,  avg # of iterations =  1.0

     total cpu time spent up to now is        3.8 secs

     total energy              =     -14.46789347 Ry
     Harris-Foulkes estimate   =     -14.46789347 Ry
     estimated scf accuracy    <          1.1E-11 Ry

     iteration #  8     ecut=    60.00 Ry     beta=0.70
     Davidson diagonalization with overlap
     ethr =  3.79E-13,  avg # of iterations =  3.0

     total cpu time spent up to now is        4.0 secs

     total energy              =     -14.46789347 Ry
     Harris-Foulkes estimate   =     -14.46789347 Ry
     estimated scf accuracy    <          3.3E-12 Ry

     iteration #  9     ecut=    60.00 Ry     beta=0.70
     Davidson diagonalization with overlap
     ethr =  1.10E-13,  avg # of iterations =  1.0

     total cpu time spent up to now is        4.2 secs

     End of self-consistent calculation

     Number of k-points >= 100: set verbosity='high' to print the bands.

     the Fermi energy is     1.7963 ev

!    total energy              =     -14.46789347 Ry
     Harris-Foulkes estimate   =     -14.46789347 Ry
     estimated scf accuracy    <          6.7E-13 Ry

     The total energy is the sum of the following terms:

     one-electron contribution =      -9.06840959 Ry
     hartree contribution      =       3.48136577 Ry
     xc contribution           =      -3.41360740 Ry
     ewald contribution        =      -5.46713836 Ry
     smearing contrib. (-TS)   =      -0.00010390 Ry

     convergence has been achieved in   9 iterations


     entering subroutine stress ...

          total   stress  (Ry/bohr**3)                   (kbar)     P=   50.01
   0.00033998  -0.00000000   0.00000000         50.01     -0.00      0.00
  -0.00000000   0.00033998  -0.00000000         -0.00     50.01     -0.00
   0.00000000  -0.00000000   0.00033998          0.00     -0.00     50.01


     Writing output data file li-bcc.save
 
     init_run     :      1.31s CPU      1.36s WALL (       1 calls)
     electrons    :      2.24s CPU      2.33s WALL (       1 calls)
     stress       :      0.10s CPU      0.10s WALL (       1 calls)

     Called by init_run:
     wfcinit      :      0.02s CPU      0.02s WALL (       1 calls)
     potinit      :      1.12s CPU      1.13s WALL (       1 calls)

     Called by electrons:
     c_bands      :      0.51s CPU      0.54s WALL (       9 calls)
     sum_band     :      0.44s CPU      0.44s WALL (       9 calls)
     v_of_rho     :      0.41s CPU      0.42s WALL (      10 calls)
     newd         :      0.15s CPU      0.15s WALL (      10 calls)
     mix_rho      :      0.05s CPU      0.05s WALL (       9 calls)

     Called by c_bands:
     init_us_2    :      0.01s CPU      0.01s WALL (      80 calls)
     cegterg      :      0.45s CPU      0.45s WALL (      36 calls)

     Called by sum_band:
     sum_band:bec :      0.00s CPU      0.00s WALL (      36 calls)
     addusdens    :      0.16s CPU      0.16s WALL (       9 calls)

     Called by *egterg:
     h_psi        :      0.38s CPU      0.42s WALL (     143 calls)
     s_psi        :      0.00s CPU      0.00s WALL (     143 calls)
     g_psi        :      0.01s CPU      0.00s WALL (     103 calls)
     cdiaghg      :      0.02s CPU      0.02s WALL (     139 calls)

     Called by h_psi:
     add_vuspsi   :      0.00s CPU      0.00s WALL (     143 calls)

     General routines
     calbec       :      0.00s CPU      0.01s WALL (     183 calls)
     fft          :      0.25s CPU      0.26s WALL (     161 calls)
     ffts         :      0.02s CPU      0.01s WALL (      19 calls)
     fftw         :      0.40s CPU      0.41s WALL (    1406 calls)
     interpolate  :      0.05s CPU      0.05s WALL (      19 calls)
     davcio       :      0.00s CPU      0.00s WALL (       4 calls)
 
     Parallel routines
     fft_scatter  :      0.04s CPU      0.05s WALL (    1586 calls)
 
     PWSCF        :     5.29s CPU        26.63s WALL

 
   This run was terminated on:  12:14:23  19Aug2016            

=------------------------------------------------------------------------------=
   JOB DONE.
=------------------------------------------------------------------------------=
Application 22836223 resources: utime ~5035s, stime ~42s, Rss ~45536, inblocks ~1134023, outblocks ~895272

     Program PWSCF v.5.2.0 starts on 19Dec2016 at 11: 6:37 

     This program is part of the open-source Quantum ESPRESSO suite
     for quantum simulation of materials; please cite
         "P. Giannozzi et al., J. Phys.:Condens. Matter 21 395502 (2009);
          URL http://www.quantum-espresso.org", 
     in publications or presentations arising from this work. More details at
     http://www.quantum-espresso.org/quote

     Parallel version (MPI), running on   192 processors
     K-points division:     npool     =     192
     Waiting for input...
     Reading input from standard input
     Message from routine read_cards :
     DEPRECATED: no units specified in ATOMIC_POSITIONS card
     Message from routine read_cards :
     ATOMIC_POSITIONS: units set to alat

     Current dimensions of program PWSCF are:
     Max number of different atomic species (ntypx) = 10
     Max number of k-points (npk) = 400000
     Max angular momentum in pseudopotentials (lmaxx) =  3

     Subspace diagonalization in iterative solution of the eigenvalue problem:
     a serial algorithm will be used

 
     G-vector sticks info
     --------------------
     sticks:   dense  smooth     PW     G-vecs:    dense   smooth      PW
     Sum         969     483    155                19141     6819    1205
 


     bravais-lattice index     =            3
     lattice parameter (alat)  =       5.9909  a.u.
     unit-cell volume          =     107.5096 (a.u.)^3
     number of atoms/cell      =            1
     number of atomic types    =            1
     number of electrons       =         3.00
     number of Kohn-Sham states=            6
     kinetic-energy cutoff     =      60.0000  Ry
     charge density cutoff     =     480.0000  Ry
     convergence threshold     =      1.0E-12
     mixing beta               =       0.7000
     number of iterations used =            8  plain     mixing
     Exchange-correlation      =  SLA  PW   PBX  PBC ( 1  4  3  4 0 0)

     celldm(1)=   5.990904  celldm(2)=   0.000000  celldm(3)=   0.000000
     celldm(4)=   0.000000  celldm(5)=   0.000000  celldm(6)=   0.000000

     crystal axes: (cart. coord. in units of alat)
               a(1) = (   0.500000   0.500000   0.500000 )  
               a(2) = (  -0.500000   0.500000   0.500000 )  
               a(3) = (  -0.500000  -0.500000   0.500000 )  

     reciprocal axes: (cart. coord. in units 2 pi/alat)
               b(1) = (  1.000000  0.000000  1.000000 )  
               b(2) = ( -1.000000  1.000000  0.000000 )  
               b(3) = (  0.000000 -1.000000  1.000000 )  


     PseudoPot. # 1 for Li read from file:
     ../Li.pbe-s-gbrv14.UPF
     MD5 check sum: 7ca33c4f951f001da2db5c8738379802
     Pseudo is Ultrasoft, Zval =  3.0
     Generated by new atomic code, or converted to UPF format
     Using radial grid of  751 points,  5 beta functions with: 
                l(1) =   0
                l(2) =   0
                l(3) =   0
                l(4) =   1
                l(5) =   1
     Q(r) pseudized with 10 coefficients,  rinner =    1.150   1.150   1.150


     atomic species   valence    mass     pseudopotential
        Li             3.00     6.94100     Li( 1.00)

     48 Sym. Ops., with inversion, found



   Cartesian axes

     site n.     atom                  positions (alat units)
         1           Li  tau(   1) = (   0.0000000   0.0000000   0.0000000  )

     number of k points=  1650  Marzari-Vanderbilt smearing, width (Ry)=  0.0200

     Number of k-points >= 100: set verbosity='high' to print them.

     Dense  grid:    19141 G-vectors     FFT dimensions: (  40,  40,  40)

     Smooth grid:     6819 G-vectors     FFT dimensions: (  25,  25,  25)

     Largest allocated arrays     est. size (Mb)     dimensions
        Kohn-Sham Wavefunctions         0.08 Mb     (     887,    6)
        NL pseudopotentials             0.12 Mb     (     887,    9)
        Each V/rho on FFT grid          0.98 Mb     (   64000)
        Each G-vector array             0.15 Mb     (   19141)
        G-vector shells                 0.00 Mb     (     203)
     Largest temporary arrays     est. size (Mb)     dimensions
        Auxiliary wavefunctions         0.32 Mb     (     887,   24)
        Each subspace H/S matrix        0.01 Mb     (      24,   24)
        Each <psi_i|beta_j> matrix      0.00 Mb     (       9,    6)
        Arrays for rho mixing           7.81 Mb     (   64000,    8)

     Initial potential from superposition of free atoms

     starting charge    2.54926, renormalised to    3.00000
     Starting wfc are    5 randomized atomic wfcs +    1 random wfc

     total cpu time spent up to now is        2.3 secs

     per-process dynamical memory:    20.0 Mb

     Self-consistent Calculation

     iteration #  1     ecut=    60.00 Ry     beta=0.70
     Davidson diagonalization with overlap
     ethr =  1.00E-02,  avg # of iterations =  5.2

     total cpu time spent up to now is        2.8 secs

     total energy              =     -14.46271689 Ry
     Harris-Foulkes estimate   =     -14.57587137 Ry
     estimated scf accuracy    <       0.15836385 Ry

     iteration #  2     ecut=    60.00 Ry     beta=0.70
     Davidson diagonalization with overlap
     ethr =  5.28E-03,  avg # of iterations =  1.0

     total cpu time spent up to now is        3.0 secs

     total energy              =     -14.46627127 Ry
     Harris-Foulkes estimate   =     -14.47143899 Ry
     estimated scf accuracy    <       0.00702694 Ry

     iteration #  3     ecut=    60.00 Ry     beta=0.70
     Davidson diagonalization with overlap
     ethr =  2.34E-04,  avg # of iterations =  2.1

     total cpu time spent up to now is        3.2 secs

     total energy              =     -14.46788473 Ry
     Harris-Foulkes estimate   =     -14.46787745 Ry
     estimated scf accuracy    <       0.00003365 Ry

     iteration #  4     ecut=    60.00 Ry     beta=0.70
     Davidson diagonalization with overlap
     ethr =  1.12E-06,  avg # of iterations =  4.1

     total cpu time spent up to now is        3.6 secs

     total energy              =     -14.46789478 Ry
     Harris-Foulkes estimate   =     -14.46789493 Ry
     estimated scf accuracy    <       0.00000075 Ry

     iteration #  5     ecut=    60.00 Ry     beta=0.70
     Davidson diagonalization with overlap
     ethr =  2.48E-08,  avg # of iterations =  2.1

     total cpu time spent up to now is        3.9 secs

     total energy              =     -14.46789507 Ry
     Harris-Foulkes estimate   =     -14.46789507 Ry
     estimated scf accuracy    <       0.00000001 Ry

     iteration #  6     ecut=    60.00 Ry     beta=0.70
     Davidson diagonalization with overlap
     ethr =  3.44E-10,  avg # of iterations =  2.2

     total cpu time spent up to now is        4.1 secs

     total energy              =     -14.46789508 Ry
     Harris-Foulkes estimate   =     -14.46789508 Ry
     estimated scf accuracy    <          3.3E-09 Ry

     iteration #  7     ecut=    60.00 Ry     beta=0.70
     Davidson diagonalization with overlap
     ethr =  1.11E-10,  avg # of iterations =  1.0

     total cpu time spent up to now is        4.3 secs

     total energy              =     -14.46789508 Ry
     Harris-Foulkes estimate   =     -14.46789508 Ry
     estimated scf accuracy    <          7.8E-12 Ry

     iteration #  8     ecut=    60.00 Ry     beta=0.70
     Davidson diagonalization with overlap
     ethr =  2.61E-13,  avg # of iterations =  3.0

     total cpu time spent up to now is        4.6 secs

     total energy              =     -14.46789508 Ry
     Harris-Foulkes estimate   =     -14.46789508 Ry
     estimated scf accuracy    <          1.2E-12 Ry

     iteration #  9     ecut=    60.00 Ry     beta=0.70
     Davidson diagonalization with overlap
     ethr =  1.00E-13,  avg # of iterations =  1.0

     total cpu time spent up to now is        4.8 secs

     End of self-consistent calculation

     Number of k-points >= 100: set verbosity='high' to print the bands.

     the Fermi energy is     1.7962 ev

!    total energy              =     -14.46789508 Ry
     Harris-Foulkes estimate   =     -14.46789508 Ry
     estimated scf accuracy    <          2.7E-13 Ry

     The total energy is the sum of the following terms:

     one-electron contribution =      -9.06842017 Ry
     hartree contribution      =       3.48136681 Ry
     xc contribution           =      -3.41360839 Ry
     ewald contribution        =      -5.46713836 Ry
     smearing contrib. (-TS)   =      -0.00009497 Ry

     convergence has been achieved in   9 iterations


     entering subroutine stress ...

          total   stress  (Ry/bohr**3)                   (kbar)     P=   50.01
   0.00033994  -0.00000000   0.00000000         50.01     -0.00      0.00
  -0.00000000   0.00033994  -0.00000000         -0.00     50.01     -0.00
   0.00000000  -0.00000000   0.00033994          0.00     -0.00     50.01


     Writing output data file li-bcc.save
 
     init_run     :      1.61s CPU      1.70s WALL (       1 calls)
     electrons    :      2.41s CPU      2.57s WALL (       1 calls)
     stress       :      0.12s CPU      0.11s WALL (       1 calls)

     Called by init_run:
     wfcinit      :      0.04s CPU      0.06s WALL (       1 calls)
     potinit      :      1.40s CPU      1.42s WALL (       1 calls)

     Called by electrons:
     c_bands      :      1.18s CPU      1.24s WALL (       9 calls)
     sum_band     :      0.47s CPU      0.49s WALL (       9 calls)
     v_of_rho     :      0.42s CPU      0.42s WALL (      10 calls)
     newd         :      0.14s CPU      0.15s WALL (      10 calls)
     mix_rho      :      0.04s CPU      0.05s WALL (       9 calls)

     Called by c_bands:
     init_us_2    :      0.03s CPU      0.03s WALL (     180 calls)
     cegterg      :      1.00s CPU      1.02s WALL (      81 calls)

     Called by sum_band:
     sum_band:bec :      0.00s CPU      0.00s WALL (      81 calls)
     addusdens    :      0.15s CPU      0.17s WALL (       9 calls)

     Called by *egterg:
     h_psi        :      0.95s CPU      0.95s WALL (     328 calls)
     s_psi        :      0.00s CPU      0.01s WALL (     328 calls)
     g_psi        :      0.01s CPU      0.01s WALL (     238 calls)
     cdiaghg      :      0.06s CPU      0.03s WALL (     319 calls)

     Called by h_psi:
     add_vuspsi   :      0.00s CPU      0.01s WALL (     328 calls)

     General routines
     calbec       :      0.02s CPU      0.01s WALL (     418 calls)
     fft          :      0.23s CPU      0.27s WALL (     161 calls)
     ffts         :      0.01s CPU      0.01s WALL (      19 calls)
     fftw         :      0.92s CPU      0.95s WALL (    3172 calls)
     interpolate  :      0.05s CPU      0.05s WALL (      19 calls)
     davcio       :      0.00s CPU      0.00s WALL (       9 calls)
 
     Parallel routines
     fft_scatter  :      0.08s CPU      0.08s WALL (    3352 calls)
 
     PWSCF        :  0m 7.33s CPU     2m48.71s WALL

 
   This run was terminated on:  11: 9:26  19Dec2016            

=------------------------------------------------------------------------------=
   JOB DONE.
=------------------------------------------------------------------------------=
Application 24549885 resources: utime ~32067s, stime ~135s, Rss ~46124, inblocks ~1269921, outblocks ~1054503
