
     Program PHONON v.6.1 (svn rev. 13369) starts on 30Jan2018 at 18:23:18 

     This program is part of the open-source Quantum ESPRESSO suite
     for quantum simulation of materials; please cite
         "P. Giannozzi et al., J. Phys.:Condens. Matter 21 395502 (2009);
          URL http://www.quantum-espresso.org", 
     in publications or presentations arising from this work. More details at
     http://www.quantum-espresso.org/quote

     Parallel version (MPI), running on    64 processors
     K-points division:     npool     =       4
     R & G space division:  proc/nbgrp/npool/nimage =      16

     Reading data from directory:
     ./na.bcc.save

   Info: using nr1, nr2, nr3 values from input

   Info: using nr1, nr2, nr3 values from input

     IMPORTANT: XC functional enforced from input :
     Exchange-correlation      = SLA  PW   PBE  PBE ( 1  4  3  4 0 0)
     Any further DFT definition will be discarded
     Please, verify this is what you really want


     Parallelization info
     --------------------
     sticks:   dense  smooth     PW     G-vecs:    dense   smooth      PW
     Min          75      38     11                 1659      590      99
     Max          76      39     12                 1661      591     101
     Sum        1215     611    181                26563     9453    1601



     Dynamical matrices for ( 6, 6, 6)  uniform grid of q-points
     (  16q-points):
       N         xq(1)         xq(2)         xq(3) 
       1   0.000000000   0.000000000   0.000000000
       2   0.000000000  -0.166666667   0.166666667
       3   0.000000000  -0.333333333   0.333333333
       4   0.000000000   0.500000000  -0.500000000
       5  -0.166666667  -0.166666667   0.333333333
       6  -0.166666667   0.666666667  -0.500000000
       7  -0.333333333   0.666666667  -0.333333333
       8   0.000000000   0.000000000   0.333333333
       9   0.000000000  -0.166666667   0.500000000
      10   0.000000000   0.666666667  -0.333333333
      11  -0.166666667   0.833333333  -0.333333333
      12   0.666666667  -0.666666667   0.333333333
      13   0.500000000  -0.500000000   0.333333333
      14   0.000000000   0.000000000   0.666666667
      15   0.000000000   0.833333333  -0.166666667
      16   0.000000000   0.000000000  -1.000000000

     Calculation of q =    0.0000000   0.0000000   0.0000000

                                                                                

     bravais-lattice index     =            3
     lattice parameter (alat)  =       8.2004  a.u.
     unit-cell volume          =     275.7254 (a.u.)^3
     number of atoms/cell      =            1
     number of atomic types    =            1
     kinetic-energy cut-off    =      40.0000  Ry
     charge density cut-off    =     320.0000  Ry
     convergence threshold     =      1.0E-16
     beta                      =       0.7000
     number of iterations used =            4
     Exchange-correlation      = SLA  PW   PBE  PBE ( 1  4  3  4 0 0)


     celldm(1)=    8.20041  celldm(2)=    0.00000  celldm(3)=    0.00000
     celldm(4)=    0.00000  celldm(5)=    0.00000  celldm(6)=    0.00000

     crystal axes: (cart. coord. in units of alat)
               a(1) = (  0.5000  0.5000  0.5000 )  
               a(2) = ( -0.5000  0.5000  0.5000 )  
               a(3) = ( -0.5000 -0.5000  0.5000 )  

     reciprocal axes: (cart. coord. in units 2 pi/alat)
               b(1) = (  1.0000  0.0000  1.0000 )  
               b(2) = ( -1.0000  1.0000  0.0000 )  
               b(3) = (  0.0000 -1.0000  1.0000 )  


     Atoms inside the unit cell: 

     Cartesian axes

     site n.  atom      mass           positions (alat units)
        1     Na  22.9900   tau(    1) = (    0.00000    0.00000    0.00000  )

     Computing dynamical matrix for 
                    q = (   0.0000000   0.0000000   0.0000000 )

     49 Sym.Ops. (with q -> -q+G )


     G cutoff =  545.0814  (   1661 G-vectors)     FFT grid: ( 45, 45, 45)
     G cutoff =  272.5407  (    591 G-vectors)  smooth grid: ( 30, 30, 30)

     number of k points=   250  Marzari-Vanderbilt smearing, width (Ry)=  0.0200

     PseudoPot. # 1 for Na read from file:
     /home/s1333534/quantum_espresso/qe-6.1/pseudo/Na_pbe_v1.uspp.F.UPF
     MD5 check sum: 76a99c7e9422403d3e93cbc85ab7bccb
     Pseudo is Ultrasoft, Zval =  9.0
     Generated by new atomic code, or converted to UPF format
     Using radial grid of  819 points,  5 beta functions with: 
                l(1) =   0
                l(2) =   0
                l(3) =   1
                l(4) =   1
                l(5) =   2
     Q(r) pseudized with  8 coefficients,  rinner =    1.250   1.250   1.250
                                                       1.250   1.250

     Mode symmetry, O_h (m-3m)  point group:


     Atomic displacements:
     There are   1 irreducible representations

     Representation     1      3 modes -T_1u G_15  G_4-  To be done



     Alpha used in Ewald sum =   2.8000
     PHONON       :     3.25s CPU         3.48s WALL



     Representation #  1 modes #   1  2  3

     Self-consistent Calculation

     Pert. #  1: Fermi energy shift (Ry) =    -4.7660E-26    -1.5673E-38
     Pert. #  2: Fermi energy shift (Ry) =    -8.0375E-26     1.8024E-37
     Pert. #  3: Fermi energy shift (Ry) =    -1.5227E-25    -1.5673E-38

      iter #   1 total cpu time :     8.1 secs   av.it.:   5.4
      thresh= 1.000E-02 alpha_mix =  0.700 |ddv_scf|^2 =  8.159E-07

     Pert. #  1: Fermi energy shift (Ry) =     7.3240E-26    -3.6734E-39
     Pert. #  2: Fermi energy shift (Ry) =    -8.6165E-27     2.9387E-39
     Pert. #  3: Fermi energy shift (Ry) =    -2.3695E-26     4.8979E-40

      iter #   2 total cpu time :    13.3 secs   av.it.:   8.5
      thresh= 9.033E-05 alpha_mix =  0.700 |ddv_scf|^2 =  1.529E-08

     Pert. #  1: Fermi energy shift (Ry) =    -1.5079E-26    -1.6990E-39
     Pert. #  2: Fermi energy shift (Ry) =     4.3082E-27     1.2474E-39
     Pert. #  3: Fermi energy shift (Ry) =     2.8004E-26    -7.6530E-40

      iter #   3 total cpu time :    18.6 secs   av.it.:   8.6
      thresh= 1.236E-05 alpha_mix =  0.700 |ddv_scf|^2 =  3.684E-10

     Pert. #  1: Fermi energy shift (Ry) =     2.1541E-27    -6.8877E-41
     Pert. #  2: Fermi energy shift (Ry) =    -3.7697E-26     5.3571E-41
     Pert. #  3: Fermi energy shift (Ry) =    -1.8310E-26     7.6530E-42

      iter #   4 total cpu time :    23.9 secs   av.it.:   8.0
      thresh= 1.919E-06 alpha_mix =  0.700 |ddv_scf|^2 =  1.288E-12

     Pert. #  1: Fermi energy shift (Ry) =    -8.6165E-27     1.9132E-41
     Pert. #  2: Fermi energy shift (Ry) =     2.3695E-26     1.9132E-42
     Pert. #  3: Fermi energy shift (Ry) =    -1.0771E-27     1.4349E-41

      iter #   5 total cpu time :    29.2 secs   av.it.:   8.5
      thresh= 1.135E-07 alpha_mix =  0.700 |ddv_scf|^2 =  2.501E-15

     Pert. #  1: Fermi energy shift (Ry) =     1.0771E-26     7.6530E-42
     Pert. #  2: Fermi energy shift (Ry) =     9.6935E-27    -1.2436E-41
     Pert. #  3: Fermi energy shift (Ry) =    -2.8004E-26     1.9132E-41

      iter #   6 total cpu time :    34.3 secs   av.it.:   7.9
      thresh= 5.001E-09 alpha_mix =  0.700 |ddv_scf|^2 =  7.849E-17

     End of self-consistent calculation

     Convergence has been achieved 

     Number of q in the star =    1
     List of q in the star:
          1   0.000000000   0.000000000   0.000000000

     Diagonalizing the dynamical matrix

     q = (    0.000000000   0.000000000   0.000000000 ) 

 **************************************************************************
     freq (    1) =      -0.386428 [THz] =     -12.889837 [cm-1]
     freq (    2) =      -0.386428 [THz] =     -12.889837 [cm-1]
     freq (    3) =      -0.386428 [THz] =     -12.889837 [cm-1]
 **************************************************************************

     Mode symmetry, O_h (m-3m)  point group:

     freq (  1 -  3) =        -12.9  [cm-1]   --> T_1u G_15  G_4- I  

     Calculation of q =    0.0000000  -0.1666667   0.1666667

   Info: using nr1, nr2, nr3 values from input

   Info: using nr1, nr2, nr3 values from input

     Parallelization info
     --------------------
     sticks:   dense  smooth     PW     G-vecs:    dense   smooth      PW
     Min          75      38     12                 1659      590     108
     Max          76      39     13                 1661      591     110
     Sum        1215     611    201                26563     9453    1745



     bravais-lattice index     =            3
     lattice parameter (alat)  =       8.2004  a.u.
     unit-cell volume          =     275.7254 (a.u.)^3
     number of atoms/cell      =            1
     number of atomic types    =            1
     number of electrons       =         9.00
     number of Kohn-Sham states=            9
     kinetic-energy cutoff     =      40.0000  Ry
     charge density cutoff     =     320.0000  Ry
     Exchange-correlation      = SLA  PW   PBE  PBE ( 1  4  3  4 0 0)

     celldm(1)=   8.200410  celldm(2)=   0.000000  celldm(3)=   0.000000
     celldm(4)=   0.000000  celldm(5)=   0.000000  celldm(6)=   0.000000

     crystal axes: (cart. coord. in units of alat)
               a(1) = (   0.500000   0.500000   0.500000 )  
               a(2) = (  -0.500000   0.500000   0.500000 )  
               a(3) = (  -0.500000  -0.500000   0.500000 )  

     reciprocal axes: (cart. coord. in units 2 pi/alat)
               b(1) = (  1.000000  0.000000  1.000000 )  
               b(2) = ( -1.000000  1.000000  0.000000 )  
               b(3) = (  0.000000 -1.000000  1.000000 )  


     PseudoPot. # 1 for Na read from file:
     /home/s1333534/quantum_espresso/qe-6.1/pseudo/Na_pbe_v1.uspp.F.UPF
     MD5 check sum: 76a99c7e9422403d3e93cbc85ab7bccb
     Pseudo is Ultrasoft, Zval =  9.0
     Generated by new atomic code, or converted to UPF format
     Using radial grid of  819 points,  5 beta functions with: 
                l(1) =   0
                l(2) =   0
                l(3) =   1
                l(4) =   1
                l(5) =   2
     Q(r) pseudized with  8 coefficients,  rinner =    1.250   1.250   1.250
                                                       1.250   1.250

     atomic species   valence    mass     pseudopotential
        Na             9.00    22.99000     Na( 1.00)

     48 Sym. Ops., with inversion, found



   Cartesian axes

     site n.     atom                  positions (alat units)
         1           Na  tau(   1) = (   0.0000000   0.0000000   0.0000000  )

     number of k points=  4400  Marzari-Vanderbilt smearing, width (Ry)=  0.0200

     Number of k-points >= 100: set verbosity='high' to print them.

     Dense  grid:    26563 G-vectors     FFT dimensions: (  45,  45,  45)

     Smooth grid:     9453 G-vectors     FFT dimensions: (  30,  30,  30)

     Estimated max dynamical RAM per process >       0.91MB

     Estimated total allocated dynamical RAM >      58.37MB

     The potential is recalculated from file :
     ./_ph0/na.bcc.save/charge-density.dat

     Starting wfc are    5 atomic +    4 random wfc

     Band Structure Calculation
     Davidson diagonalization with overlap

     ethr =  1.11E-10,  avg # of iterations = 23.0

     total cpu time spent up to now is       82.7 secs

     End of band structure calculation

     Number of k-points >= 100: set verbosity='high' to print the bands.

     the Fermi energy is     1.2227 ev

     Writing output data file na.bcc.save

                                                                                

     bravais-lattice index     =            3
     lattice parameter (alat)  =       8.2004  a.u.
     unit-cell volume          =     275.7254 (a.u.)^3
     number of atoms/cell      =            1
     number of atomic types    =            1
     kinetic-energy cut-off    =      40.0000  Ry
     charge density cut-off    =     320.0000  Ry
     convergence threshold     =      1.0E-16
     beta                      =       0.7000
     number of iterations used =            4
     Exchange-correlation      = SLA  PW   PBE  PBE ( 1  4  3  4 0 0)


     celldm(1)=    8.20041  celldm(2)=    0.00000  celldm(3)=    0.00000
     celldm(4)=    0.00000  celldm(5)=    0.00000  celldm(6)=    0.00000

     crystal axes: (cart. coord. in units of alat)
               a(1) = (  0.5000  0.5000  0.5000 )  
               a(2) = ( -0.5000  0.5000  0.5000 )  
               a(3) = ( -0.5000 -0.5000  0.5000 )  

     reciprocal axes: (cart. coord. in units 2 pi/alat)
               b(1) = (  1.0000  0.0000  1.0000 )  
               b(2) = ( -1.0000  1.0000  0.0000 )  
               b(3) = (  0.0000 -1.0000  1.0000 )  


     Atoms inside the unit cell: 

     Cartesian axes

     site n.  atom      mass           positions (alat units)
        1     Na  22.9900   tau(    1) = (    0.00000    0.00000    0.00000  )

     Computing dynamical matrix for 
                    q = (   0.0000000  -0.1666667   0.1666667 )

      4 Sym.Ops. (no q -> -q+G )


     G cutoff =  545.0814  (   1661 G-vectors)     FFT grid: ( 45, 45, 45)
     G cutoff =  272.5407  (    591 G-vectors)  smooth grid: ( 30, 30, 30)

     number of k points=  4400  Marzari-Vanderbilt smearing, width (Ry)=  0.0200

     PseudoPot. # 1 for Na read from file:
     /home/s1333534/quantum_espresso/qe-6.1/pseudo/Na_pbe_v1.uspp.F.UPF
     MD5 check sum: 76a99c7e9422403d3e93cbc85ab7bccb
     Pseudo is Ultrasoft, Zval =  9.0
     Generated by new atomic code, or converted to UPF format
     Using radial grid of  819 points,  5 beta functions with: 
                l(1) =   0
                l(2) =   0
                l(3) =   1
                l(4) =   1
                l(5) =   2
     Q(r) pseudized with  8 coefficients,  rinner =    1.250   1.250   1.250
                                                       1.250   1.250

     Mode symmetry, C_2v (mm2)  point group:


     Atomic displacements:
     There are   3 irreducible representations

     Representation     1      1 modes -A_1  D_1  S_1  To be done

     Representation     2      1 modes -B_1  D_3  S_3  To be done

     Representation     3      1 modes -B_2  D_4  S_4  To be done



     Alpha used in Ewald sum =   2.8000
     PHONON       :  2m 7.15s CPU     2m13.74s WALL



     Representation #  1 mode #   1

     Self-consistent Calculation

      iter #   1 total cpu time :   143.1 secs   av.it.:   5.6
      thresh= 1.000E-02 alpha_mix =  0.700 |ddv_scf|^2 =  1.842E-02

      iter #   2 total cpu time :   152.1 secs   av.it.:   6.2
      thresh= 1.000E-02 alpha_mix =  0.700 |ddv_scf|^2 =  2.859E+00

      iter #   3 total cpu time :   161.2 secs   av.it.:   6.2
      thresh= 1.000E-02 alpha_mix =  0.700 |ddv_scf|^2 =  1.389E-07

      iter #   4 total cpu time :   172.7 secs   av.it.:   8.3
      thresh= 3.727E-05 alpha_mix =  0.700 |ddv_scf|^2 =  3.438E-08

      iter #   5 total cpu time :   183.3 secs   av.it.:   7.6
      thresh= 1.854E-05 alpha_mix =  0.700 |ddv_scf|^2 =  2.962E-09

      iter #   6 total cpu time :   193.7 secs   av.it.:   7.5
      thresh= 5.442E-06 alpha_mix =  0.700 |ddv_scf|^2 =  9.122E-08

      iter #   7 total cpu time :   201.0 secs   av.it.:   4.6
      thresh= 3.020E-05 alpha_mix =  0.700 |ddv_scf|^2 =  5.918E-11

      iter #   8 total cpu time :   212.0 secs   av.it.:   8.1
      thresh= 7.693E-07 alpha_mix =  0.700 |ddv_scf|^2 =  1.769E-11

      iter #   9 total cpu time :   222.2 secs   av.it.:   7.4
      thresh= 4.206E-07 alpha_mix =  0.700 |ddv_scf|^2 =  1.183E-12

      iter #  10 total cpu time :   232.1 secs   av.it.:   7.2
      thresh= 1.088E-07 alpha_mix =  0.700 |ddv_scf|^2 =  1.067E-13

      iter #  11 total cpu time :   242.7 secs   av.it.:   7.4
      thresh= 3.267E-08 alpha_mix =  0.700 |ddv_scf|^2 =  3.915E-16

      iter #  12 total cpu time :   253.4 secs   av.it.:   7.9
      thresh= 1.979E-09 alpha_mix =  0.700 |ddv_scf|^2 =  2.009E-15

      iter #  13 total cpu time :   261.3 secs   av.it.:   5.3
      thresh= 4.482E-09 alpha_mix =  0.700 |ddv_scf|^2 =  9.580E-16

      iter #  14 total cpu time :   270.9 secs   av.it.:   6.8
      thresh= 3.095E-09 alpha_mix =  0.700 |ddv_scf|^2 =  1.746E-18

     End of self-consistent calculation

     Convergence has been achieved 


     Representation #  2 mode #   2

     Self-consistent Calculation

      iter #   1 total cpu time :   280.3 secs   av.it.:   5.4
      thresh= 1.000E-02 alpha_mix =  0.700 |ddv_scf|^2 =  7.417E-06

      iter #   2 total cpu time :   292.0 secs   av.it.:   7.7
      thresh= 2.723E-04 alpha_mix =  0.700 |ddv_scf|^2 =  1.363E-07

      iter #   3 total cpu time :   303.3 secs   av.it.:   7.8
      thresh= 3.692E-05 alpha_mix =  0.700 |ddv_scf|^2 =  3.550E-09

      iter #   4 total cpu time :   313.8 secs   av.it.:   7.5
      thresh= 5.958E-06 alpha_mix =  0.700 |ddv_scf|^2 =  1.230E-11

      iter #   5 total cpu time :   324.4 secs   av.it.:   7.8
      thresh= 3.507E-07 alpha_mix =  0.700 |ddv_scf|^2 =  2.166E-14

      iter #   6 total cpu time :   334.4 secs   av.it.:   7.2
      thresh= 1.472E-08 alpha_mix =  0.700 |ddv_scf|^2 =  7.364E-16

      iter #   7 total cpu time :   345.1 secs   av.it.:   7.8
      thresh= 2.714E-09 alpha_mix =  0.700 |ddv_scf|^2 =  6.680E-19

     End of self-consistent calculation

     Convergence has been achieved 


     Representation #  3 mode #   3

     Self-consistent Calculation

      iter #   1 total cpu time :   354.4 secs   av.it.:   5.4
      thresh= 1.000E-02 alpha_mix =  0.700 |ddv_scf|^2 =  7.659E-06

      iter #   2 total cpu time :   364.9 secs   av.it.:   7.7
      thresh= 2.768E-04 alpha_mix =  0.700 |ddv_scf|^2 =  1.356E-07

      iter #   3 total cpu time :   376.4 secs   av.it.:   7.8
      thresh= 3.682E-05 alpha_mix =  0.700 |ddv_scf|^2 =  4.405E-09

      iter #   4 total cpu time :   386.9 secs   av.it.:   7.6
      thresh= 6.637E-06 alpha_mix =  0.700 |ddv_scf|^2 =  1.526E-11

      iter #   5 total cpu time :   397.4 secs   av.it.:   7.8
      thresh= 3.906E-07 alpha_mix =  0.700 |ddv_scf|^2 =  2.274E-14

      iter #   6 total cpu time :   407.4 secs   av.it.:   6.8
      thresh= 1.508E-08 alpha_mix =  0.700 |ddv_scf|^2 =  1.025E-15

      iter #   7 total cpu time :   418.1 secs   av.it.:   7.9
      thresh= 3.201E-09 alpha_mix =  0.700 |ddv_scf|^2 =  8.415E-19

     End of self-consistent calculation

     Convergence has been achieved 

     Number of q in the star =   12
     List of q in the star:
          1   0.000000000  -0.166666667   0.166666667
          2  -0.166666667   0.000000000   0.166666667
          3   0.166666667   0.000000000   0.166666667
          4   0.000000000   0.166666667   0.166666667
          5   0.166666667   0.166666667   0.000000000
          6  -0.166666667   0.166666667   0.000000000
          7   0.166666667  -0.166666667   0.000000000
          8  -0.166666667  -0.166666667   0.000000000
          9  -0.166666667   0.000000000  -0.166666667
         10   0.000000000  -0.166666667  -0.166666667
         11   0.000000000   0.166666667  -0.166666667
         12   0.166666667   0.000000000  -0.166666667

     Diagonalizing the dynamical matrix

     q = (    0.000000000  -0.166666667   0.166666667 ) 

 **************************************************************************
     freq (    1) =       0.460689 [THz] =      15.366939 [cm-1]
     freq (    2) =       1.229808 [THz] =      41.021995 [cm-1]
     freq (    3) =       1.746847 [THz] =      58.268545 [cm-1]
 **************************************************************************

     Mode symmetry, C_2v (mm2)  point group:

     freq (  1 -  1) =         15.4  [cm-1]   --> B_1  D_3  S_3      
     freq (  2 -  2) =         41.0  [cm-1]   --> B_2  D_4  S_4      
     freq (  3 -  3) =         58.3  [cm-1]   --> A_1  D_1  S_1      

     Calculation of q =    0.0000000  -0.3333333   0.3333333

   Info: using nr1, nr2, nr3 values from input

   Info: using nr1, nr2, nr3 values from input

     Parallelization info
     --------------------
     sticks:   dense  smooth     PW     G-vecs:    dense   smooth      PW
     Min          75      38     12                 1659      590     115
     Max          76      39     13                 1661      591     118
     Sum        1215     611    205                26563     9453    1865



     bravais-lattice index     =            3
     lattice parameter (alat)  =       8.2004  a.u.
     unit-cell volume          =     275.7254 (a.u.)^3
     number of atoms/cell      =            1
     number of atomic types    =            1
     number of electrons       =         9.00
     number of Kohn-Sham states=            9
     kinetic-energy cutoff     =      40.0000  Ry
     charge density cutoff     =     320.0000  Ry
     Exchange-correlation      = SLA  PW   PBE  PBE ( 1  4  3  4 0 0)

     celldm(1)=   8.200410  celldm(2)=   0.000000  celldm(3)=   0.000000
     celldm(4)=   0.000000  celldm(5)=   0.000000  celldm(6)=   0.000000

     crystal axes: (cart. coord. in units of alat)
               a(1) = (   0.500000   0.500000   0.500000 )  
               a(2) = (  -0.500000   0.500000   0.500000 )  
               a(3) = (  -0.500000  -0.500000   0.500000 )  

     reciprocal axes: (cart. coord. in units 2 pi/alat)
               b(1) = (  1.000000  0.000000  1.000000 )  
               b(2) = ( -1.000000  1.000000  0.000000 )  
               b(3) = (  0.000000 -1.000000  1.000000 )  


     PseudoPot. # 1 for Na read from file:
     /home/s1333534/quantum_espresso/qe-6.1/pseudo/Na_pbe_v1.uspp.F.UPF
     MD5 check sum: 76a99c7e9422403d3e93cbc85ab7bccb
     Pseudo is Ultrasoft, Zval =  9.0
     Generated by new atomic code, or converted to UPF format
     Using radial grid of  819 points,  5 beta functions with: 
                l(1) =   0
                l(2) =   0
                l(3) =   1
                l(4) =   1
                l(5) =   2
     Q(r) pseudized with  8 coefficients,  rinner =    1.250   1.250   1.250
                                                       1.250   1.250

     atomic species   valence    mass     pseudopotential
        Na             9.00    22.99000     Na( 1.00)

     48 Sym. Ops., with inversion, found



   Cartesian axes

     site n.     atom                  positions (alat units)
         1           Na  tau(   1) = (   0.0000000   0.0000000   0.0000000  )

     number of k points=  4400  Marzari-Vanderbilt smearing, width (Ry)=  0.0200

     Number of k-points >= 100: set verbosity='high' to print them.

     Dense  grid:    26563 G-vectors     FFT dimensions: (  45,  45,  45)

     Smooth grid:     9453 G-vectors     FFT dimensions: (  30,  30,  30)

     Estimated max dynamical RAM per process >       0.91MB

     Estimated total allocated dynamical RAM >      58.37MB

     The potential is recalculated from file :
     ./_ph0/na.bcc.save/charge-density.dat

     Starting wfc are    5 atomic +    4 random wfc

     Band Structure Calculation
     Davidson diagonalization with overlap

     ethr =  1.11E-10,  avg # of iterations = 23.0

     total cpu time spent up to now is      177.9 secs

     End of band structure calculation

     Number of k-points >= 100: set verbosity='high' to print the bands.

     the Fermi energy is     1.2227 ev

     Writing output data file na.bcc.save

                                                                                

     bravais-lattice index     =            3
     lattice parameter (alat)  =       8.2004  a.u.
     unit-cell volume          =     275.7254 (a.u.)^3
     number of atoms/cell      =            1
     number of atomic types    =            1
     kinetic-energy cut-off    =      40.0000  Ry
     charge density cut-off    =     320.0000  Ry
     convergence threshold     =      1.0E-16
     beta                      =       0.7000
     number of iterations used =            4
     Exchange-correlation      = SLA  PW   PBE  PBE ( 1  4  3  4 0 0)


     celldm(1)=    8.20041  celldm(2)=    0.00000  celldm(3)=    0.00000
     celldm(4)=    0.00000  celldm(5)=    0.00000  celldm(6)=    0.00000

     crystal axes: (cart. coord. in units of alat)
               a(1) = (  0.5000  0.5000  0.5000 )  
               a(2) = ( -0.5000  0.5000  0.5000 )  
               a(3) = ( -0.5000 -0.5000  0.5000 )  

     reciprocal axes: (cart. coord. in units 2 pi/alat)
               b(1) = (  1.0000  0.0000  1.0000 )  
               b(2) = ( -1.0000  1.0000  0.0000 )  
               b(3) = (  0.0000 -1.0000  1.0000 )  


     Atoms inside the unit cell: 

     Cartesian axes

     site n.  atom      mass           positions (alat units)
        1     Na  22.9900   tau(    1) = (    0.00000    0.00000    0.00000  )

     Computing dynamical matrix for 
                    q = (   0.0000000  -0.3333333   0.3333333 )

      4 Sym.Ops. (no q -> -q+G )


     G cutoff =  545.0814  (   1661 G-vectors)     FFT grid: ( 45, 45, 45)
     G cutoff =  272.5407  (    591 G-vectors)  smooth grid: ( 30, 30, 30)

     number of k points=  4400  Marzari-Vanderbilt smearing, width (Ry)=  0.0200

     PseudoPot. # 1 for Na read from file:
     /home/s1333534/quantum_espresso/qe-6.1/pseudo/Na_pbe_v1.uspp.F.UPF
     MD5 check sum: 76a99c7e9422403d3e93cbc85ab7bccb
     Pseudo is Ultrasoft, Zval =  9.0
     Generated by new atomic code, or converted to UPF format
     Using radial grid of  819 points,  5 beta functions with: 
                l(1) =   0
                l(2) =   0
                l(3) =   1
                l(4) =   1
                l(5) =   2
     Q(r) pseudized with  8 coefficients,  rinner =    1.250   1.250   1.250
                                                       1.250   1.250

     Mode symmetry, C_2v (mm2)  point group:


     Atomic displacements:
     There are   3 irreducible representations

     Representation     1      1 modes -A_1  D_1  S_1  To be done

     Representation     2      1 modes -B_1  D_3  S_3  To be done

     Representation     3      1 modes -B_2  D_4  S_4  To be done



     Alpha used in Ewald sum =   2.8000
     PHONON       :  8m 5.58s CPU     8m37.77s WALL



     Representation #  1 mode #   1

     Self-consistent Calculation

      iter #   1 total cpu time :   527.3 secs   av.it.:   5.7
      thresh= 1.000E-02 alpha_mix =  0.700 |ddv_scf|^2 =  3.122E-04

      iter #   2 total cpu time :   537.1 secs   av.it.:   6.7
      thresh= 1.767E-03 alpha_mix =  0.700 |ddv_scf|^2 =  1.895E-03

      iter #   3 total cpu time :   545.8 secs   av.it.:   5.8
      thresh= 4.353E-03 alpha_mix =  0.700 |ddv_scf|^2 =  3.301E-07

      iter #   4 total cpu time :   556.7 secs   av.it.:   7.9
      thresh= 5.746E-05 alpha_mix =  0.700 |ddv_scf|^2 =  6.389E-09

      iter #   5 total cpu time :   567.7 secs   av.it.:   8.4
      thresh= 7.993E-06 alpha_mix =  0.700 |ddv_scf|^2 =  2.626E-10

      iter #   6 total cpu time :   578.5 secs   av.it.:   8.3
      thresh= 1.621E-06 alpha_mix =  0.700 |ddv_scf|^2 =  1.284E-11

      iter #   7 total cpu time :   589.4 secs   av.it.:   8.0
      thresh= 3.583E-07 alpha_mix =  0.700 |ddv_scf|^2 =  1.031E-13

      iter #   8 total cpu time :   600.4 secs   av.it.:   8.2
      thresh= 3.211E-08 alpha_mix =  0.700 |ddv_scf|^2 =  1.510E-13

      iter #   9 total cpu time :   610.3 secs   av.it.:   6.8
      thresh= 3.886E-08 alpha_mix =  0.700 |ddv_scf|^2 =  6.687E-14

      iter #  10 total cpu time :   620.1 secs   av.it.:   7.0
      thresh= 2.586E-08 alpha_mix =  0.700 |ddv_scf|^2 =  1.603E-15

      iter #  11 total cpu time :   631.0 secs   av.it.:   8.0
      thresh= 4.004E-09 alpha_mix =  0.700 |ddv_scf|^2 =  3.627E-17

     End of self-consistent calculation

     Convergence has been achieved 


     Representation #  2 mode #   2

     Self-consistent Calculation

      iter #   1 total cpu time :   640.3 secs   av.it.:   5.5
      thresh= 1.000E-02 alpha_mix =  0.700 |ddv_scf|^2 =  7.608E-06

      iter #   2 total cpu time :   650.7 secs   av.it.:   7.7
      thresh= 2.758E-04 alpha_mix =  0.700 |ddv_scf|^2 =  1.327E-07

      iter #   3 total cpu time :   661.4 secs   av.it.:   7.8
      thresh= 3.642E-05 alpha_mix =  0.700 |ddv_scf|^2 =  4.278E-09

      iter #   4 total cpu time :   671.8 secs   av.it.:   7.5
      thresh= 6.541E-06 alpha_mix =  0.700 |ddv_scf|^2 =  1.427E-11

      iter #   5 total cpu time :   682.3 secs   av.it.:   7.8
      thresh= 3.778E-07 alpha_mix =  0.700 |ddv_scf|^2 =  1.889E-14

      iter #   6 total cpu time :   692.2 secs   av.it.:   7.1
      thresh= 1.374E-08 alpha_mix =  0.700 |ddv_scf|^2 =  7.643E-16

      iter #   7 total cpu time :   702.9 secs   av.it.:   7.8
      thresh= 2.765E-09 alpha_mix =  0.700 |ddv_scf|^2 =  8.853E-19

     End of self-consistent calculation

     Convergence has been achieved 


     Representation #  3 mode #   3

     Self-consistent Calculation

      iter #   1 total cpu time :   712.7 secs   av.it.:   5.5
      thresh= 1.000E-02 alpha_mix =  0.700 |ddv_scf|^2 =  8.369E-06

      iter #   2 total cpu time :   723.5 secs   av.it.:   7.7
      thresh= 2.893E-04 alpha_mix =  0.700 |ddv_scf|^2 =  1.320E-07

      iter #   3 total cpu time :   734.3 secs   av.it.:   7.8
      thresh= 3.634E-05 alpha_mix =  0.700 |ddv_scf|^2 =  7.268E-09

      iter #   4 total cpu time :   744.9 secs   av.it.:   7.6
      thresh= 8.525E-06 alpha_mix =  0.700 |ddv_scf|^2 =  2.502E-11

      iter #   5 total cpu time :   755.5 secs   av.it.:   7.8
      thresh= 5.002E-07 alpha_mix =  0.700 |ddv_scf|^2 =  2.579E-14

      iter #   6 total cpu time :   766.3 secs   av.it.:   7.1
      thresh= 1.606E-08 alpha_mix =  0.700 |ddv_scf|^2 =  1.622E-15

      iter #   7 total cpu time :   776.9 secs   av.it.:   7.8
      thresh= 4.027E-09 alpha_mix =  0.700 |ddv_scf|^2 =  1.299E-18

     End of self-consistent calculation

     Convergence has been achieved 

     Number of q in the star =   12
     List of q in the star:
          1   0.000000000  -0.333333333   0.333333333
          2  -0.333333333   0.000000000   0.333333333
          3   0.333333333   0.000000000   0.333333333
          4   0.000000000   0.333333333   0.333333333
          5   0.333333333   0.333333333   0.000000000
          6  -0.333333333   0.333333333   0.000000000
          7   0.333333333  -0.333333333   0.000000000
          8  -0.333333333  -0.333333333   0.000000000
          9  -0.333333333   0.000000000  -0.333333333
         10   0.000000000  -0.333333333  -0.333333333
         11   0.000000000   0.333333333  -0.333333333
         12   0.333333333   0.000000000  -0.333333333

     Diagonalizing the dynamical matrix

     q = (    0.000000000  -0.333333333   0.333333333 ) 

 **************************************************************************
     freq (    1) =       0.716313 [THz] =      23.893615 [cm-1]
     freq (    2) =       2.105771 [THz] =      70.240963 [cm-1]
     freq (    3) =       2.924973 [THz] =      97.566605 [cm-1]
 **************************************************************************

     Mode symmetry, C_2v (mm2)  point group:

     freq (  1 -  1) =         23.9  [cm-1]   --> B_1  D_3  S_3      
     freq (  2 -  2) =         70.2  [cm-1]   --> B_2  D_4  S_4      
     freq (  3 -  3) =         97.6  [cm-1]   --> A_1  D_1  S_1      

     Calculation of q =    0.0000000   0.5000000  -0.5000000

   Info: using nr1, nr2, nr3 values from input

   Info: using nr1, nr2, nr3 values from input

     Parallelization info
     --------------------
     sticks:   dense  smooth     PW     G-vecs:    dense   smooth      PW
     Min          75      38     13                 1659      590     129
     Max          76      39     14                 1661      591     132
     Sum        1215     611    219                26563     9453    2093



     bravais-lattice index     =            3
     lattice parameter (alat)  =       8.2004  a.u.
     unit-cell volume          =     275.7254 (a.u.)^3
     number of atoms/cell      =            1
     number of atomic types    =            1
     number of electrons       =         9.00
     number of Kohn-Sham states=            9
     kinetic-energy cutoff     =      40.0000  Ry
     charge density cutoff     =     320.0000  Ry
     Exchange-correlation      = SLA  PW   PBE  PBE ( 1  4  3  4 0 0)

     celldm(1)=   8.200410  celldm(2)=   0.000000  celldm(3)=   0.000000
     celldm(4)=   0.000000  celldm(5)=   0.000000  celldm(6)=   0.000000

     crystal axes: (cart. coord. in units of alat)
               a(1) = (   0.500000   0.500000   0.500000 )  
               a(2) = (  -0.500000   0.500000   0.500000 )  
               a(3) = (  -0.500000  -0.500000   0.500000 )  

     reciprocal axes: (cart. coord. in units 2 pi/alat)
               b(1) = (  1.000000  0.000000  1.000000 )  
               b(2) = ( -1.000000  1.000000  0.000000 )  
               b(3) = (  0.000000 -1.000000  1.000000 )  


     PseudoPot. # 1 for Na read from file:
     /home/s1333534/quantum_espresso/qe-6.1/pseudo/Na_pbe_v1.uspp.F.UPF
     MD5 check sum: 76a99c7e9422403d3e93cbc85ab7bccb
     Pseudo is Ultrasoft, Zval =  9.0
     Generated by new atomic code, or converted to UPF format
     Using radial grid of  819 points,  5 beta functions with: 
                l(1) =   0
                l(2) =   0
                l(3) =   1
                l(4) =   1
                l(5) =   2
     Q(r) pseudized with  8 coefficients,  rinner =    1.250   1.250   1.250
                                                       1.250   1.250

     atomic species   valence    mass     pseudopotential
        Na             9.00    22.99000     Na( 1.00)

     48 Sym. Ops., with inversion, found



   Cartesian axes

     site n.     atom                  positions (alat units)
         1           Na  tau(   1) = (   0.0000000   0.0000000   0.0000000  )

     number of k points=  2310  Marzari-Vanderbilt smearing, width (Ry)=  0.0200

     Number of k-points >= 100: set verbosity='high' to print them.

     Dense  grid:    26563 G-vectors     FFT dimensions: (  45,  45,  45)

     Smooth grid:     9453 G-vectors     FFT dimensions: (  30,  30,  30)

     Estimated max dynamical RAM per process >       0.91MB

     Estimated total allocated dynamical RAM >      58.37MB

     The potential is recalculated from file :
     ./_ph0/na.bcc.save/charge-density.dat

     Starting wfc are    5 atomic +    4 random wfc

     Band Structure Calculation
     Davidson diagonalization with overlap

     ethr =  1.11E-10,  avg # of iterations = 22.9

     total cpu time spent up to now is      234.3 secs

     End of band structure calculation

     Number of k-points >= 100: set verbosity='high' to print the bands.

     the Fermi energy is     1.2227 ev

     Writing output data file na.bcc.save

                                                                                

     bravais-lattice index     =            3
     lattice parameter (alat)  =       8.2004  a.u.
     unit-cell volume          =     275.7254 (a.u.)^3
     number of atoms/cell      =            1
     number of atomic types    =            1
     kinetic-energy cut-off    =      40.0000  Ry
     charge density cut-off    =     320.0000  Ry
     convergence threshold     =      1.0E-16
     beta                      =       0.7000
     number of iterations used =            4
     Exchange-correlation      = SLA  PW   PBE  PBE ( 1  4  3  4 0 0)


     celldm(1)=    8.20041  celldm(2)=    0.00000  celldm(3)=    0.00000
     celldm(4)=    0.00000  celldm(5)=    0.00000  celldm(6)=    0.00000

     crystal axes: (cart. coord. in units of alat)
               a(1) = (  0.5000  0.5000  0.5000 )  
               a(2) = ( -0.5000  0.5000  0.5000 )  
               a(3) = ( -0.5000 -0.5000  0.5000 )  

     reciprocal axes: (cart. coord. in units 2 pi/alat)
               b(1) = (  1.0000  0.0000  1.0000 )  
               b(2) = ( -1.0000  1.0000  0.0000 )  
               b(3) = (  0.0000 -1.0000  1.0000 )  


     Atoms inside the unit cell: 

     Cartesian axes

     site n.  atom      mass           positions (alat units)
        1     Na  22.9900   tau(    1) = (    0.00000    0.00000    0.00000  )

     Computing dynamical matrix for 
                    q = (   0.0000000   0.5000000  -0.5000000 )

      9 Sym.Ops. (with q -> -q+G )


     G cutoff =  545.0814  (   1661 G-vectors)     FFT grid: ( 45, 45, 45)
     G cutoff =  272.5407  (    591 G-vectors)  smooth grid: ( 30, 30, 30)

     number of k points=  2310  Marzari-Vanderbilt smearing, width (Ry)=  0.0200

     PseudoPot. # 1 for Na read from file:
     /home/s1333534/quantum_espresso/qe-6.1/pseudo/Na_pbe_v1.uspp.F.UPF
     MD5 check sum: 76a99c7e9422403d3e93cbc85ab7bccb
     Pseudo is Ultrasoft, Zval =  9.0
     Generated by new atomic code, or converted to UPF format
     Using radial grid of  819 points,  5 beta functions with: 
                l(1) =   0
                l(2) =   0
                l(3) =   1
                l(4) =   1
                l(5) =   2
     Q(r) pseudized with  8 coefficients,  rinner =    1.250   1.250   1.250
                                                       1.250   1.250

     Mode symmetry, D_2h (mmm)  point group:


     Atomic displacements:
     There are   3 irreducible representations

     Representation     1      1 modes -B_1u  To be done

     Representation     2      1 modes -B_2u  To be done

     Representation     3      1 modes -B_3u  To be done



     Alpha used in Ewald sum =   2.8000
     PHONON       : 12m55.41s CPU    13m49.61s WALL



     Representation #  1 mode #   1

     Self-consistent Calculation

      iter #   1 total cpu time :   834.7 secs   av.it.:   5.5
      thresh= 1.000E-02 alpha_mix =  0.700 |ddv_scf|^2 =  8.764E-06

      iter #   2 total cpu time :   840.6 secs   av.it.:   7.7
      thresh= 2.960E-04 alpha_mix =  0.700 |ddv_scf|^2 =  1.306E-07

      iter #   3 total cpu time :   846.6 secs   av.it.:   7.8
      thresh= 3.614E-05 alpha_mix =  0.700 |ddv_scf|^2 =  8.944E-09

      iter #   4 total cpu time :   852.0 secs   av.it.:   7.3
      thresh= 9.458E-06 alpha_mix =  0.700 |ddv_scf|^2 =  3.106E-11

      iter #   5 total cpu time :   857.7 secs   av.it.:   7.7
      thresh= 5.573E-07 alpha_mix =  0.700 |ddv_scf|^2 =  2.817E-14

      iter #   6 total cpu time :   863.0 secs   av.it.:   7.1
      thresh= 1.678E-08 alpha_mix =  0.700 |ddv_scf|^2 =  1.876E-15

      iter #   7 total cpu time :   868.6 secs   av.it.:   7.6
      thresh= 4.331E-09 alpha_mix =  0.700 |ddv_scf|^2 =  1.327E-18

     End of self-consistent calculation

     Convergence has been achieved 


     Representation #  2 mode #   2

     Self-consistent Calculation

      iter #   1 total cpu time :   873.8 secs   av.it.:   5.5
      thresh= 1.000E-02 alpha_mix =  0.700 |ddv_scf|^2 =  7.725E-06

      iter #   2 total cpu time :   879.4 secs   av.it.:   7.7
      thresh= 2.779E-04 alpha_mix =  0.700 |ddv_scf|^2 =  1.302E-07

      iter #   3 total cpu time :   885.3 secs   av.it.:   7.9
      thresh= 3.608E-05 alpha_mix =  0.700 |ddv_scf|^2 =  4.715E-09

      iter #   4 total cpu time :   890.7 secs   av.it.:   7.3
      thresh= 6.867E-06 alpha_mix =  0.700 |ddv_scf|^2 =  1.539E-11

      iter #   5 total cpu time :   896.5 secs   av.it.:   7.7
      thresh= 3.923E-07 alpha_mix =  0.700 |ddv_scf|^2 =  1.678E-14

      iter #   6 total cpu time :   902.0 secs   av.it.:   6.8
      thresh= 1.295E-08 alpha_mix =  0.700 |ddv_scf|^2 =  7.046E-16

      iter #   7 total cpu time :   907.7 secs   av.it.:   7.7
      thresh= 2.654E-09 alpha_mix =  0.700 |ddv_scf|^2 =  5.712E-19

     End of self-consistent calculation

     Convergence has been achieved 


     Representation #  3 mode #   3

     Self-consistent Calculation

      iter #   1 total cpu time :   913.1 secs   av.it.:   5.6
      thresh= 1.000E-02 alpha_mix =  0.700 |ddv_scf|^2 =  6.267E-05

      iter #   2 total cpu time :   918.5 secs   av.it.:   6.9
      thresh= 7.917E-04 alpha_mix =  0.700 |ddv_scf|^2 =  3.274E-05

      iter #   3 total cpu time :   923.8 secs   av.it.:   6.6
      thresh= 5.722E-04 alpha_mix =  0.700 |ddv_scf|^2 =  5.161E-08

      iter #   4 total cpu time :   929.7 secs   av.it.:   7.8
      thresh= 2.272E-05 alpha_mix =  0.700 |ddv_scf|^2 =  2.099E-10

      iter #   5 total cpu time :   935.0 secs   av.it.:   6.8
      thresh= 1.449E-06 alpha_mix =  0.700 |ddv_scf|^2 =  3.141E-12

      iter #   6 total cpu time :   940.1 secs   av.it.:   6.8
      thresh= 1.772E-07 alpha_mix =  0.700 |ddv_scf|^2 =  1.413E-14

      iter #   7 total cpu time :   945.7 secs   av.it.:   7.5
      thresh= 1.189E-08 alpha_mix =  0.700 |ddv_scf|^2 =  4.806E-17

     End of self-consistent calculation

     Convergence has been achieved 

     Number of q in the star =    6
     List of q in the star:
          1   0.000000000   0.500000000  -0.500000000
          2  -0.500000000  -0.500000000   0.000000000
          3   0.500000000  -0.500000000   0.000000000
          4   0.500000000   0.000000000   0.500000000
          5   0.000000000  -0.500000000  -0.500000000
          6   0.500000000   0.000000000  -0.500000000

     Diagonalizing the dynamical matrix

     q = (    0.000000000   0.500000000  -0.500000000 ) 

 **************************************************************************
     freq (    1) =       0.814531 [THz] =      27.169815 [cm-1]
     freq (    2) =       2.430176 [THz] =      81.061957 [cm-1]
     freq (    3) =       3.343846 [THz] =     111.538687 [cm-1]
 **************************************************************************

     Mode symmetry, D_2h (mmm)  point group:

     freq (  1 -  1) =         27.2  [cm-1]   --> B_2u               
     freq (  2 -  2) =         81.1  [cm-1]   --> B_1u               
     freq (  3 -  3) =        111.5  [cm-1]   --> B_3u               

     Calculation of q =   -0.1666667  -0.1666667   0.3333333

   Info: using nr1, nr2, nr3 values from input

   Info: using nr1, nr2, nr3 values from input

     Parallelization info
     --------------------
     sticks:   dense  smooth     PW     G-vecs:    dense   smooth      PW
     Min          75      38     12                 1659      590     115
     Max          76      39     13                 1661      591     118
     Sum        1215     611    205                26563     9453    1865



     bravais-lattice index     =            3
     lattice parameter (alat)  =       8.2004  a.u.
     unit-cell volume          =     275.7254 (a.u.)^3
     number of atoms/cell      =            1
     number of atomic types    =            1
     number of electrons       =         9.00
     number of Kohn-Sham states=            9
     kinetic-energy cutoff     =      40.0000  Ry
     charge density cutoff     =     320.0000  Ry
     Exchange-correlation      = SLA  PW   PBE  PBE ( 1  4  3  4 0 0)

     celldm(1)=   8.200410  celldm(2)=   0.000000  celldm(3)=   0.000000
     celldm(4)=   0.000000  celldm(5)=   0.000000  celldm(6)=   0.000000

     crystal axes: (cart. coord. in units of alat)
               a(1) = (   0.500000   0.500000   0.500000 )  
               a(2) = (  -0.500000   0.500000   0.500000 )  
               a(3) = (  -0.500000  -0.500000   0.500000 )  

     reciprocal axes: (cart. coord. in units 2 pi/alat)
               b(1) = (  1.000000  0.000000  1.000000 )  
               b(2) = ( -1.000000  1.000000  0.000000 )  
               b(3) = (  0.000000 -1.000000  1.000000 )  


     PseudoPot. # 1 for Na read from file:
     /home/s1333534/quantum_espresso/qe-6.1/pseudo/Na_pbe_v1.uspp.F.UPF
     MD5 check sum: 76a99c7e9422403d3e93cbc85ab7bccb
     Pseudo is Ultrasoft, Zval =  9.0
     Generated by new atomic code, or converted to UPF format
     Using radial grid of  819 points,  5 beta functions with: 
                l(1) =   0
                l(2) =   0
                l(3) =   1
                l(4) =   1
                l(5) =   2
     Q(r) pseudized with  8 coefficients,  rinner =    1.250   1.250   1.250
                                                       1.250   1.250

     atomic species   valence    mass     pseudopotential
        Na             9.00    22.99000     Na( 1.00)

     48 Sym. Ops., with inversion, found



   Cartesian axes

     site n.     atom                  positions (alat units)
         1           Na  tau(   1) = (   0.0000000   0.0000000   0.0000000  )

     number of k points=  8400  Marzari-Vanderbilt smearing, width (Ry)=  0.0200

     Number of k-points >= 100: set verbosity='high' to print them.

     Dense  grid:    26563 G-vectors     FFT dimensions: (  45,  45,  45)

     Smooth grid:     9453 G-vectors     FFT dimensions: (  30,  30,  30)

     Estimated max dynamical RAM per process >       0.91MB

     Estimated total allocated dynamical RAM >      58.37MB

     The potential is recalculated from file :
     ./_ph0/na.bcc.save/charge-density.dat

     Starting wfc are    5 atomic +    4 random wfc

     Band Structure Calculation
     Davidson diagonalization with overlap

     ethr =  1.11E-10,  avg # of iterations = 23.0

     total cpu time spent up to now is      396.8 secs

     End of band structure calculation

     Number of k-points >= 100: set verbosity='high' to print the bands.

     the Fermi energy is     1.2227 ev

     Writing output data file na.bcc.save

                                                                                

     bravais-lattice index     =            3
     lattice parameter (alat)  =       8.2004  a.u.
     unit-cell volume          =     275.7254 (a.u.)^3
     number of atoms/cell      =            1
     number of atomic types    =            1
     kinetic-energy cut-off    =      40.0000  Ry
     charge density cut-off    =     320.0000  Ry
     convergence threshold     =      1.0E-16
     beta                      =       0.7000
     number of iterations used =            4
     Exchange-correlation      = SLA  PW   PBE  PBE ( 1  4  3  4 0 0)


     celldm(1)=    8.20041  celldm(2)=    0.00000  celldm(3)=    0.00000
     celldm(4)=    0.00000  celldm(5)=    0.00000  celldm(6)=    0.00000

     crystal axes: (cart. coord. in units of alat)
               a(1) = (  0.5000  0.5000  0.5000 )  
               a(2) = ( -0.5000  0.5000  0.5000 )  
               a(3) = ( -0.5000 -0.5000  0.5000 )  

     reciprocal axes: (cart. coord. in units 2 pi/alat)
               b(1) = (  1.0000  0.0000  1.0000 )  
               b(2) = ( -1.0000  1.0000  0.0000 )  
               b(3) = (  0.0000 -1.0000  1.0000 )  


     Atoms inside the unit cell: 

     Cartesian axes

     site n.  atom      mass           positions (alat units)
        1     Na  22.9900   tau(    1) = (    0.00000    0.00000    0.00000  )

     Computing dynamical matrix for 
                    q = (  -0.1666667  -0.1666667   0.3333333 )

      2 Sym.Ops. (no q -> -q+G )


     G cutoff =  545.0814  (   1661 G-vectors)     FFT grid: ( 45, 45, 45)
     G cutoff =  272.5407  (    591 G-vectors)  smooth grid: ( 30, 30, 30)

     number of k points=  8400  Marzari-Vanderbilt smearing, width (Ry)=  0.0200

     PseudoPot. # 1 for Na read from file:
     /home/s1333534/quantum_espresso/qe-6.1/pseudo/Na_pbe_v1.uspp.F.UPF
     MD5 check sum: 76a99c7e9422403d3e93cbc85ab7bccb
     Pseudo is Ultrasoft, Zval =  9.0
     Generated by new atomic code, or converted to UPF format
     Using radial grid of  819 points,  5 beta functions with: 
                l(1) =   0
                l(2) =   0
                l(3) =   1
                l(4) =   1
                l(5) =   2
     Q(r) pseudized with  8 coefficients,  rinner =    1.250   1.250   1.250
                                                       1.250   1.250

     Mode symmetry, C_s (m)     point group:


     Atomic displacements:
     There are   3 irreducible representations

     Representation     1      1 modes -A'  To be done

     Representation     2      1 modes -A'  To be done

     Representation     3      1 modes -A''  To be done



     Alpha used in Ewald sum =   2.8000
     PHONON       : 17m42.37s CPU    18m53.37s WALL



     Representation #  1 mode #   1

     Self-consistent Calculation

      iter #   1 total cpu time :  1151.4 secs   av.it.:   5.6
      thresh= 1.000E-02 alpha_mix =  0.700 |ddv_scf|^2 =  7.823E-05

      iter #   2 total cpu time :  1170.6 secs   av.it.:   7.3
      thresh= 8.845E-04 alpha_mix =  0.700 |ddv_scf|^2 =  9.069E-04

      iter #   3 total cpu time :  1186.4 secs   av.it.:   5.4
      thresh= 3.011E-03 alpha_mix =  0.700 |ddv_scf|^2 =  1.235E-07

      iter #   4 total cpu time :  1207.5 secs   av.it.:   8.3
      thresh= 3.514E-05 alpha_mix =  0.700 |ddv_scf|^2 =  5.152E-09

      iter #   5 total cpu time :  1227.9 secs   av.it.:   8.0
      thresh= 7.178E-06 alpha_mix =  0.700 |ddv_scf|^2 =  1.289E-10

      iter #   6 total cpu time :  1248.7 secs   av.it.:   8.3
      thresh= 1.135E-06 alpha_mix =  0.700 |ddv_scf|^2 =  1.158E-11

      iter #   7 total cpu time :  1269.6 secs   av.it.:   8.2
      thresh= 3.403E-07 alpha_mix =  0.700 |ddv_scf|^2 =  1.012E-11

      iter #   8 total cpu time :  1289.0 secs   av.it.:   7.6
      thresh= 3.181E-07 alpha_mix =  0.700 |ddv_scf|^2 =  2.198E-11

      iter #   9 total cpu time :  1307.0 secs   av.it.:   6.9
      thresh= 4.688E-07 alpha_mix =  0.700 |ddv_scf|^2 =  7.388E-13

      iter #  10 total cpu time :  1325.6 secs   av.it.:   6.9
      thresh= 8.595E-08 alpha_mix =  0.700 |ddv_scf|^2 =  3.101E-15

      iter #  11 total cpu time :  1346.5 secs   av.it.:   8.4
      thresh= 5.569E-09 alpha_mix =  0.700 |ddv_scf|^2 =  1.329E-16

      iter #  12 total cpu time :  1366.3 secs   av.it.:   7.8
      thresh= 1.153E-09 alpha_mix =  0.700 |ddv_scf|^2 =  7.979E-18

     End of self-consistent calculation

     Convergence has been achieved 


     Representation #  2 mode #   2

     Self-consistent Calculation

      iter #   1 total cpu time :  1385.6 secs   av.it.:   5.7
      thresh= 1.000E-02 alpha_mix =  0.700 |ddv_scf|^2 =  6.382E-04

      iter #   2 total cpu time :  1403.6 secs   av.it.:   6.7
      thresh= 2.526E-03 alpha_mix =  0.700 |ddv_scf|^2 =  8.103E-03

      iter #   3 total cpu time :  1419.1 secs   av.it.:   5.4
      thresh= 9.002E-03 alpha_mix =  0.700 |ddv_scf|^2 =  6.374E-07

      iter #   4 total cpu time :  1439.2 secs   av.it.:   7.8
      thresh= 7.984E-05 alpha_mix =  0.700 |ddv_scf|^2 =  5.683E-09

      iter #   5 total cpu time :  1460.3 secs   av.it.:   8.3
      thresh= 7.539E-06 alpha_mix =  0.700 |ddv_scf|^2 =  3.891E-10

      iter #   6 total cpu time :  1481.2 secs   av.it.:   8.3
      thresh= 1.973E-06 alpha_mix =  0.700 |ddv_scf|^2 =  2.173E-11

      iter #   7 total cpu time :  1503.1 secs   av.it.:   8.2
      thresh= 4.662E-07 alpha_mix =  0.700 |ddv_scf|^2 =  5.501E-11

      iter #   8 total cpu time :  1520.5 secs   av.it.:   6.4
      thresh= 7.417E-07 alpha_mix =  0.700 |ddv_scf|^2 =  2.103E-12

      iter #   9 total cpu time :  1540.0 secs   av.it.:   7.5
      thresh= 1.450E-07 alpha_mix =  0.700 |ddv_scf|^2 =  9.301E-13

      iter #  10 total cpu time :  1558.4 secs   av.it.:   7.0
      thresh= 9.644E-08 alpha_mix =  0.700 |ddv_scf|^2 =  1.036E-14

      iter #  11 total cpu time :  1579.4 secs   av.it.:   8.4
      thresh= 1.018E-08 alpha_mix =  0.700 |ddv_scf|^2 =  1.615E-16

      iter #  12 total cpu time :  1599.6 secs   av.it.:   7.9
      thresh= 1.271E-09 alpha_mix =  0.700 |ddv_scf|^2 =  7.659E-18

     End of self-consistent calculation

     Convergence has been achieved 


     Representation #  3 mode #   3

     Self-consistent Calculation

      iter #   1 total cpu time :  1617.4 secs   av.it.:   5.5
      thresh= 1.000E-02 alpha_mix =  0.700 |ddv_scf|^2 =  8.782E-06

      iter #   2 total cpu time :  1638.1 secs   av.it.:   7.8
      thresh= 2.964E-04 alpha_mix =  0.700 |ddv_scf|^2 =  1.275E-07

      iter #   3 total cpu time :  1658.7 secs   av.it.:   8.0
      thresh= 3.570E-05 alpha_mix =  0.700 |ddv_scf|^2 =  7.416E-09

      iter #   4 total cpu time :  1678.7 secs   av.it.:   7.8
      thresh= 8.611E-06 alpha_mix =  0.700 |ddv_scf|^2 =  5.792E-11

      iter #   5 total cpu time :  1699.0 secs   av.it.:   7.6
      thresh= 7.611E-07 alpha_mix =  0.700 |ddv_scf|^2 =  5.369E-14

      iter #   6 total cpu time :  1718.3 secs   av.it.:   7.5
      thresh= 2.317E-08 alpha_mix =  0.700 |ddv_scf|^2 =  2.652E-15

      iter #   7 total cpu time :  1737.6 secs   av.it.:   7.4
      thresh= 5.150E-09 alpha_mix =  0.700 |ddv_scf|^2 =  8.507E-18

     End of self-consistent calculation

     Convergence has been achieved 

     Number of q in the star =   24
     List of q in the star:
          1  -0.166666667  -0.166666667   0.333333333
          2  -0.166666667  -0.333333333   0.166666667
          3   0.166666667  -0.333333333   0.166666667
          4  -0.166666667   0.333333333  -0.166666667
          5   0.166666667   0.333333333  -0.166666667
          6   0.166666667   0.166666667  -0.333333333
          7  -0.166666667   0.166666667  -0.333333333
          8   0.333333333   0.166666667  -0.166666667
          9  -0.333333333   0.166666667   0.166666667
         10   0.333333333  -0.166666667   0.166666667
         11  -0.333333333  -0.166666667  -0.166666667
         12  -0.166666667  -0.166666667  -0.333333333
         13  -0.166666667   0.333333333   0.166666667
         14  -0.166666667  -0.333333333  -0.166666667
         15  -0.166666667   0.166666667   0.333333333
         16   0.166666667  -0.166666667   0.333333333
         17   0.166666667  -0.333333333  -0.166666667
         18  -0.333333333   0.166666667  -0.166666667
         19   0.333333333   0.166666667   0.166666667
         20  -0.333333333  -0.166666667   0.166666667
         21   0.333333333  -0.166666667  -0.166666667
         22   0.166666667  -0.166666667  -0.333333333
         23   0.166666667   0.166666667   0.333333333
         24   0.166666667   0.333333333   0.166666667

     Diagonalizing the dynamical matrix

     q = (   -0.166666667  -0.166666667   0.333333333 ) 

 **************************************************************************
     freq (    1) =       1.132708 [THz] =      37.783085 [cm-1]
     freq (    2) =       1.777558 [THz] =      59.292969 [cm-1]
     freq (    3) =       2.669275 [THz] =      89.037434 [cm-1]
 **************************************************************************

     Mode symmetry, C_s (m)     point group:

     freq (  1 -  1) =         37.8  [cm-1]   --> A'                 
     freq (  2 -  2) =         59.3  [cm-1]   --> A''                
     freq (  3 -  3) =         89.0  [cm-1]   --> A'                 

     Calculation of q =   -0.1666667   0.6666667  -0.5000000

   Info: using nr1, nr2, nr3 values from input

   Info: using nr1, nr2, nr3 values from input

     Parallelization info
     --------------------
     sticks:   dense  smooth     PW     G-vecs:    dense   smooth      PW
     Min          75      38     13                 1659      590     131
     Max          76      39     14                 1661      591     134
     Sum        1215     611    221                26563     9453    2123



     bravais-lattice index     =            3
     lattice parameter (alat)  =       8.2004  a.u.
     unit-cell volume          =     275.7254 (a.u.)^3
     number of atoms/cell      =            1
     number of atomic types    =            1
     number of electrons       =         9.00
     number of Kohn-Sham states=            9
     kinetic-energy cutoff     =      40.0000  Ry
     charge density cutoff     =     320.0000  Ry
     Exchange-correlation      = SLA  PW   PBE  PBE ( 1  4  3  4 0 0)

     celldm(1)=   8.200410  celldm(2)=   0.000000  celldm(3)=   0.000000
     celldm(4)=   0.000000  celldm(5)=   0.000000  celldm(6)=   0.000000

     crystal axes: (cart. coord. in units of alat)
               a(1) = (   0.500000   0.500000   0.500000 )  
               a(2) = (  -0.500000   0.500000   0.500000 )  
               a(3) = (  -0.500000  -0.500000   0.500000 )  

     reciprocal axes: (cart. coord. in units 2 pi/alat)
               b(1) = (  1.000000  0.000000  1.000000 )  
               b(2) = ( -1.000000  1.000000  0.000000 )  
               b(3) = (  0.000000 -1.000000  1.000000 )  


     PseudoPot. # 1 for Na read from file:
     /home/s1333534/quantum_espresso/qe-6.1/pseudo/Na_pbe_v1.uspp.F.UPF
     MD5 check sum: 76a99c7e9422403d3e93cbc85ab7bccb
     Pseudo is Ultrasoft, Zval =  9.0
     Generated by new atomic code, or converted to UPF format
     Using radial grid of  819 points,  5 beta functions with: 
                l(1) =   0
                l(2) =   0
                l(3) =   1
                l(4) =   1
                l(5) =   2
     Q(r) pseudized with  8 coefficients,  rinner =    1.250   1.250   1.250
                                                       1.250   1.250

     atomic species   valence    mass     pseudopotential
        Na             9.00    22.99000     Na( 1.00)

     48 Sym. Ops., with inversion, found



   Cartesian axes

     site n.     atom                  positions (alat units)
         1           Na  tau(   1) = (   0.0000000   0.0000000   0.0000000  )

     number of k points= 16000  Marzari-Vanderbilt smearing, width (Ry)=  0.0200

     Number of k-points >= 100: set verbosity='high' to print them.

     Dense  grid:    26563 G-vectors     FFT dimensions: (  45,  45,  45)

     Smooth grid:     9453 G-vectors     FFT dimensions: (  30,  30,  30)

     Estimated max dynamical RAM per process >       0.91MB

     Estimated total allocated dynamical RAM >      58.37MB

     The potential is recalculated from file :
     ./_ph0/na.bcc.save/charge-density.dat

     Starting wfc are    5 atomic +    4 random wfc

     Band Structure Calculation
     Davidson diagonalization with overlap

     ethr =  1.11E-10,  avg # of iterations = 22.9

     total cpu time spent up to now is      719.3 secs

     End of band structure calculation

     Number of k-points >= 100: set verbosity='high' to print the bands.

     the Fermi energy is     1.2227 ev

     Writing output data file na.bcc.save

                                                                                

     bravais-lattice index     =            3
     lattice parameter (alat)  =       8.2004  a.u.
     unit-cell volume          =     275.7254 (a.u.)^3
     number of atoms/cell      =            1
     number of atomic types    =            1
     kinetic-energy cut-off    =      40.0000  Ry
     charge density cut-off    =     320.0000  Ry
     convergence threshold     =      1.0E-16
     beta                      =       0.7000
     number of iterations used =            4
     Exchange-correlation      = SLA  PW   PBE  PBE ( 1  4  3  4 0 0)


     celldm(1)=    8.20041  celldm(2)=    0.00000  celldm(3)=    0.00000
     celldm(4)=    0.00000  celldm(5)=    0.00000  celldm(6)=    0.00000

     crystal axes: (cart. coord. in units of alat)
               a(1) = (  0.5000  0.5000  0.5000 )  
               a(2) = ( -0.5000  0.5000  0.5000 )  
               a(3) = ( -0.5000 -0.5000  0.5000 )  

     reciprocal axes: (cart. coord. in units 2 pi/alat)
               b(1) = (  1.0000  0.0000  1.0000 )  
               b(2) = ( -1.0000  1.0000  0.0000 )  
               b(3) = (  0.0000 -1.0000  1.0000 )  


     Atoms inside the unit cell: 

     Cartesian axes

     site n.  atom      mass           positions (alat units)
        1     Na  22.9900   tau(    1) = (    0.00000    0.00000    0.00000  )

     Computing dynamical matrix for 
                    q = (  -0.1666667   0.6666667  -0.5000000 )

     No symmetry!

     G cutoff =  545.0814  (   1661 G-vectors)     FFT grid: ( 45, 45, 45)
     G cutoff =  272.5407  (    591 G-vectors)  smooth grid: ( 30, 30, 30)

     number of k points= 16000  Marzari-Vanderbilt smearing, width (Ry)=  0.0200

     PseudoPot. # 1 for Na read from file:
     /home/s1333534/quantum_espresso/qe-6.1/pseudo/Na_pbe_v1.uspp.F.UPF
     MD5 check sum: 76a99c7e9422403d3e93cbc85ab7bccb
     Pseudo is Ultrasoft, Zval =  9.0
     Generated by new atomic code, or converted to UPF format
     Using radial grid of  819 points,  5 beta functions with: 
                l(1) =   0
                l(2) =   0
                l(3) =   1
                l(4) =   1
                l(5) =   2
     Q(r) pseudized with  8 coefficients,  rinner =    1.250   1.250   1.250
                                                       1.250   1.250

     Mode symmetry, C_1 (1)     point group:


     Atomic displacements:
     There are   3 irreducible representations

     Representation     1      1 modes -A  To be done

     Representation     2      1 modes -A  To be done

     Representation     3      1 modes -A  To be done



     Alpha used in Ewald sum =   2.8000
     PHONON       : 32m38.91s CPU    34m55.86s WALL



     Representation #  1 mode #   1

     Self-consistent Calculation

      iter #   1 total cpu time :  2130.8 secs   av.it.:   5.7
      thresh= 1.000E-02 alpha_mix =  0.700 |ddv_scf|^2 =  9.557E-06

      iter #   2 total cpu time :  2171.2 secs   av.it.:   8.1
      thresh= 3.091E-04 alpha_mix =  0.700 |ddv_scf|^2 =  1.172E-06

      iter #   3 total cpu time :  2210.6 secs   av.it.:   7.7
      thresh= 1.083E-04 alpha_mix =  0.700 |ddv_scf|^2 =  6.028E-07

      iter #   4 total cpu time :  2248.9 secs   av.it.:   7.3
      thresh= 7.764E-05 alpha_mix =  0.700 |ddv_scf|^2 =  4.183E-09

      iter #   5 total cpu time :  2288.6 secs   av.it.:   8.0
      thresh= 6.467E-06 alpha_mix =  0.700 |ddv_scf|^2 =  3.444E-10

      iter #   6 total cpu time :  2327.9 secs   av.it.:   7.9
      thresh= 1.856E-06 alpha_mix =  0.700 |ddv_scf|^2 =  3.698E-12

      iter #   7 total cpu time :  2368.5 secs   av.it.:   8.4
      thresh= 1.923E-07 alpha_mix =  0.700 |ddv_scf|^2 =  2.225E-13

      iter #   8 total cpu time :  2412.2 secs   av.it.:   8.6
      thresh= 4.717E-08 alpha_mix =  0.700 |ddv_scf|^2 =  1.191E-14

      iter #   9 total cpu time :  2455.6 secs   av.it.:   8.6
      thresh= 1.091E-08 alpha_mix =  0.700 |ddv_scf|^2 =  1.789E-16

      iter #  10 total cpu time :  2495.3 secs   av.it.:   7.9
      thresh= 1.338E-09 alpha_mix =  0.700 |ddv_scf|^2 =  1.105E-16

      iter #  11 total cpu time :  2533.3 secs   av.it.:   7.2
      thresh= 1.051E-09 alpha_mix =  0.700 |ddv_scf|^2 =  2.435E-18

     End of self-consistent calculation

     Convergence has been achieved 


     Representation #  2 mode #   2

     Self-consistent Calculation

      iter #   1 total cpu time :  2569.1 secs   av.it.:   5.7
      thresh= 1.000E-02 alpha_mix =  0.700 |ddv_scf|^2 =  3.883E-05

      iter #   2 total cpu time :  2610.1 secs   av.it.:   7.8
      thresh= 6.231E-04 alpha_mix =  0.700 |ddv_scf|^2 =  3.670E-05

      iter #   3 total cpu time :  2645.7 secs   av.it.:   6.9
      thresh= 6.058E-04 alpha_mix =  0.700 |ddv_scf|^2 =  8.849E-08

      iter #   4 total cpu time :  2686.5 secs   av.it.:   8.3
      thresh= 2.975E-05 alpha_mix =  0.700 |ddv_scf|^2 =  3.521E-09

      iter #   5 total cpu time :  2727.6 secs   av.it.:   8.3
      thresh= 5.933E-06 alpha_mix =  0.700 |ddv_scf|^2 =  2.699E-10

      iter #   6 total cpu time :  2768.5 secs   av.it.:   8.3
      thresh= 1.643E-06 alpha_mix =  0.700 |ddv_scf|^2 =  8.783E-12

      iter #   7 total cpu time :  2809.0 secs   av.it.:   8.2
      thresh= 2.964E-07 alpha_mix =  0.700 |ddv_scf|^2 =  4.052E-13

      iter #   8 total cpu time :  2848.8 secs   av.it.:   7.7
      thresh= 6.365E-08 alpha_mix =  0.700 |ddv_scf|^2 =  6.248E-15

      iter #   9 total cpu time :  2889.4 secs   av.it.:   8.0
      thresh= 7.905E-09 alpha_mix =  0.700 |ddv_scf|^2 =  1.264E-15

      iter #  10 total cpu time :  2927.4 secs   av.it.:   7.4
      thresh= 3.555E-09 alpha_mix =  0.700 |ddv_scf|^2 =  6.361E-17

     End of self-consistent calculation

     Convergence has been achieved 


     Representation #  3 mode #   3

     Self-consistent Calculation

      iter #   1 total cpu time :  2964.0 secs   av.it.:   5.7
      thresh= 1.000E-02 alpha_mix =  0.700 |ddv_scf|^2 =  4.330E-05

      iter #   2 total cpu time :  3004.6 secs   av.it.:   7.7
      thresh= 6.580E-04 alpha_mix =  0.700 |ddv_scf|^2 =  3.674E-05

      iter #   3 total cpu time :  3040.2 secs   av.it.:   6.9
      thresh= 6.061E-04 alpha_mix =  0.700 |ddv_scf|^2 =  2.915E-07

      iter #   4 total cpu time :  3079.9 secs   av.it.:   7.8
      thresh= 5.399E-05 alpha_mix =  0.700 |ddv_scf|^2 =  6.505E-09

      iter #   5 total cpu time :  3120.9 secs   av.it.:   8.4
      thresh= 8.065E-06 alpha_mix =  0.700 |ddv_scf|^2 =  1.908E-10

      iter #   6 total cpu time :  3162.1 secs   av.it.:   8.3
      thresh= 1.381E-06 alpha_mix =  0.700 |ddv_scf|^2 =  1.237E-11

      iter #   7 total cpu time :  3203.0 secs   av.it.:   8.5
      thresh= 3.517E-07 alpha_mix =  0.700 |ddv_scf|^2 =  7.312E-13

      iter #   8 total cpu time :  3245.6 secs   av.it.:   8.6
      thresh= 8.551E-08 alpha_mix =  0.700 |ddv_scf|^2 =  4.895E-14

      iter #   9 total cpu time :  3284.4 secs   av.it.:   7.6
      thresh= 2.212E-08 alpha_mix =  0.700 |ddv_scf|^2 =  4.313E-15

      iter #  10 total cpu time :  3323.4 secs   av.it.:   7.7
      thresh= 6.567E-09 alpha_mix =  0.700 |ddv_scf|^2 =  6.650E-17

     End of self-consistent calculation

     Convergence has been achieved 

     Number of q in the star =   48
     List of q in the star:
          1  -0.166666667   0.666666667  -0.500000000
          2   0.666666667  -0.166666667  -0.500000000
          3  -0.166666667   0.500000000  -0.666666667
          4   0.166666667   0.500000000  -0.666666667
          5  -0.166666667  -0.500000000   0.666666667
          6   0.166666667  -0.500000000   0.666666667
          7   0.166666667  -0.666666667   0.500000000
          8  -0.166666667  -0.666666667   0.500000000
          9  -0.500000000  -0.666666667  -0.166666667
         10   0.500000000  -0.666666667   0.166666667
         11  -0.500000000   0.666666667   0.166666667
         12   0.500000000   0.666666667  -0.166666667
         13   0.666666667  -0.166666667   0.500000000
         14   0.666666667  -0.500000000  -0.166666667
         15  -0.166666667  -0.500000000  -0.666666667
         16  -0.166666667   0.500000000   0.666666667
         17   0.666666667   0.166666667  -0.500000000
         18   0.166666667   0.666666667  -0.500000000
         19   0.666666667   0.500000000   0.166666667
         20  -0.666666667   0.500000000  -0.166666667
         21   0.500000000   0.166666667   0.666666667
         22  -0.500000000   0.166666667  -0.666666667
         23   0.500000000   0.666666667   0.166666667
         24   0.500000000  -0.166666667  -0.666666667
         25  -0.666666667   0.166666667   0.500000000
         26  -0.166666667   0.666666667   0.500000000
         27  -0.500000000  -0.166666667   0.666666667
         28   0.166666667   0.666666667   0.500000000
         29  -0.500000000   0.666666667  -0.166666667
         30  -0.666666667  -0.166666667  -0.500000000
         31  -0.666666667  -0.166666667   0.500000000
         32   0.666666667   0.166666667   0.500000000
         33   0.166666667  -0.666666667  -0.500000000
         34  -0.666666667   0.166666667  -0.500000000
         35   0.500000000  -0.666666667  -0.166666667
         36  -0.500000000  -0.666666667   0.166666667
         37  -0.166666667  -0.666666667  -0.500000000
         38  -0.666666667  -0.500000000   0.166666667
         39   0.166666667   0.500000000   0.666666667
         40   0.166666667  -0.500000000  -0.666666667
         41  -0.666666667   0.500000000   0.166666667
         42   0.666666667   0.500000000  -0.166666667
         43  -0.666666667  -0.500000000  -0.166666667
         44   0.666666667  -0.500000000   0.166666667
         45   0.500000000   0.166666667  -0.666666667
         46   0.500000000  -0.166666667   0.666666667
         47  -0.500000000  -0.166666667  -0.666666667
         48  -0.500000000   0.166666667   0.666666667

     Diagonalizing the dynamical matrix

     q = (   -0.166666667   0.666666667  -0.500000000 ) 

 **************************************************************************
     freq (    1) =       1.347439 [THz] =      44.945729 [cm-1]
     freq (    2) =       2.465977 [THz] =      82.256124 [cm-1]
     freq (    3) =       3.208989 [THz] =     107.040366 [cm-1]
 **************************************************************************

     Mode symmetry, C_1 (1)     point group:

     freq (  1 -  1) =         44.9  [cm-1]   --> A                  
     freq (  2 -  2) =         82.3  [cm-1]   --> A                  
     freq (  3 -  3) =        107.0  [cm-1]   --> A                  

     Calculation of q =   -0.3333333   0.6666667  -0.3333333

   Info: using nr1, nr2, nr3 values from input

   Info: using nr1, nr2, nr3 values from input

     Parallelization info
     --------------------
     sticks:   dense  smooth     PW     G-vecs:    dense   smooth      PW
     Min          75      38     13                 1659      590     131
     Max          76      39     14                 1661      591     134
     Sum        1215     611    221                26563     9453    2123



     bravais-lattice index     =            3
     lattice parameter (alat)  =       8.2004  a.u.
     unit-cell volume          =     275.7254 (a.u.)^3
     number of atoms/cell      =            1
     number of atomic types    =            1
     number of electrons       =         9.00
     number of Kohn-Sham states=            9
     kinetic-energy cutoff     =      40.0000  Ry
     charge density cutoff     =     320.0000  Ry
     Exchange-correlation      = SLA  PW   PBE  PBE ( 1  4  3  4 0 0)

     celldm(1)=   8.200410  celldm(2)=   0.000000  celldm(3)=   0.000000
     celldm(4)=   0.000000  celldm(5)=   0.000000  celldm(6)=   0.000000

     crystal axes: (cart. coord. in units of alat)
               a(1) = (   0.500000   0.500000   0.500000 )  
               a(2) = (  -0.500000   0.500000   0.500000 )  
               a(3) = (  -0.500000  -0.500000   0.500000 )  

     reciprocal axes: (cart. coord. in units 2 pi/alat)
               b(1) = (  1.000000  0.000000  1.000000 )  
               b(2) = ( -1.000000  1.000000  0.000000 )  
               b(3) = (  0.000000 -1.000000  1.000000 )  


     PseudoPot. # 1 for Na read from file:
     /home/s1333534/quantum_espresso/qe-6.1/pseudo/Na_pbe_v1.uspp.F.UPF
     MD5 check sum: 76a99c7e9422403d3e93cbc85ab7bccb
     Pseudo is Ultrasoft, Zval =  9.0
     Generated by new atomic code, or converted to UPF format
     Using radial grid of  819 points,  5 beta functions with: 
                l(1) =   0
                l(2) =   0
                l(3) =   1
                l(4) =   1
                l(5) =   2
     Q(r) pseudized with  8 coefficients,  rinner =    1.250   1.250   1.250
                                                       1.250   1.250

     atomic species   valence    mass     pseudopotential
        Na             9.00    22.99000     Na( 1.00)

     48 Sym. Ops., with inversion, found



   Cartesian axes

     site n.     atom                  positions (alat units)
         1           Na  tau(   1) = (   0.0000000   0.0000000   0.0000000  )

     number of k points=  3080  Marzari-Vanderbilt smearing, width (Ry)=  0.0200

     Number of k-points >= 100: set verbosity='high' to print them.

     Dense  grid:    26563 G-vectors     FFT dimensions: (  45,  45,  45)

     Smooth grid:     9453 G-vectors     FFT dimensions: (  30,  30,  30)

     Estimated max dynamical RAM per process >       0.91MB

     Estimated total allocated dynamical RAM >      58.37MB

     The potential is recalculated from file :
     ./_ph0/na.bcc.save/charge-density.dat

     Starting wfc are    5 atomic +    4 random wfc

     Band Structure Calculation
     Davidson diagonalization with overlap

     ethr =  1.11E-10,  avg # of iterations = 23.3

     total cpu time spent up to now is      823.4 secs

     End of band structure calculation

     Number of k-points >= 100: set verbosity='high' to print the bands.

     the Fermi energy is     1.2227 ev

     Writing output data file na.bcc.save

                                                                                

     bravais-lattice index     =            3
     lattice parameter (alat)  =       8.2004  a.u.
     unit-cell volume          =     275.7254 (a.u.)^3
     number of atoms/cell      =            1
     number of atomic types    =            1
     kinetic-energy cut-off    =      40.0000  Ry
     charge density cut-off    =     320.0000  Ry
     convergence threshold     =      1.0E-16
     beta                      =       0.7000
     number of iterations used =            4
     Exchange-correlation      = SLA  PW   PBE  PBE ( 1  4  3  4 0 0)


     celldm(1)=    8.20041  celldm(2)=    0.00000  celldm(3)=    0.00000
     celldm(4)=    0.00000  celldm(5)=    0.00000  celldm(6)=    0.00000

     crystal axes: (cart. coord. in units of alat)
               a(1) = (  0.5000  0.5000  0.5000 )  
               a(2) = ( -0.5000  0.5000  0.5000 )  
               a(3) = ( -0.5000 -0.5000  0.5000 )  

     reciprocal axes: (cart. coord. in units 2 pi/alat)
               b(1) = (  1.0000  0.0000  1.0000 )  
               b(2) = ( -1.0000  1.0000  0.0000 )  
               b(3) = (  0.0000 -1.0000  1.0000 )  


     Atoms inside the unit cell: 

     Cartesian axes

     site n.  atom      mass           positions (alat units)
        1     Na  22.9900   tau(    1) = (    0.00000    0.00000    0.00000  )

     Computing dynamical matrix for 
                    q = (  -0.3333333   0.6666667  -0.3333333 )

      6 Sym.Ops. (no q -> -q+G )


     G cutoff =  545.0814  (   1661 G-vectors)     FFT grid: ( 45, 45, 45)
     G cutoff =  272.5407  (    591 G-vectors)  smooth grid: ( 30, 30, 30)

     number of k points=  3080  Marzari-Vanderbilt smearing, width (Ry)=  0.0200

     PseudoPot. # 1 for Na read from file:
     /home/s1333534/quantum_espresso/qe-6.1/pseudo/Na_pbe_v1.uspp.F.UPF
     MD5 check sum: 76a99c7e9422403d3e93cbc85ab7bccb
     Pseudo is Ultrasoft, Zval =  9.0
     Generated by new atomic code, or converted to UPF format
     Using radial grid of  819 points,  5 beta functions with: 
                l(1) =   0
                l(2) =   0
                l(3) =   1
                l(4) =   1
                l(5) =   2
     Q(r) pseudized with  8 coefficients,  rinner =    1.250   1.250   1.250
                                                       1.250   1.250

     Mode symmetry, C_3v (3m)   point group:


     Atomic displacements:
     There are   2 irreducible representations

     Representation     1      1 modes -A_1  L_1  To be done

     Representation     2      2 modes -E    L_3  To be done



     Alpha used in Ewald sum =   2.8000
     PHONON       : 52m31.19s CPU    56m35.46s WALL



     Representation #  1 mode #   1

     Self-consistent Calculation

      iter #   1 total cpu time :  3402.0 secs   av.it.:   5.4
      thresh= 1.000E-02 alpha_mix =  0.700 |ddv_scf|^2 =  8.244E-06

      iter #   2 total cpu time :  3409.4 secs   av.it.:   7.8
      thresh= 2.871E-04 alpha_mix =  0.700 |ddv_scf|^2 =  1.296E-07

      iter #   3 total cpu time :  3417.0 secs   av.it.:   8.0
      thresh= 3.600E-05 alpha_mix =  0.700 |ddv_scf|^2 =  6.622E-09

      iter #   4 total cpu time :  3424.5 secs   av.it.:   7.7
      thresh= 8.138E-06 alpha_mix =  0.700 |ddv_scf|^2 =  5.490E-11

      iter #   5 total cpu time :  3432.2 secs   av.it.:   7.6
      thresh= 7.410E-07 alpha_mix =  0.700 |ddv_scf|^2 =  3.155E-12

      iter #   6 total cpu time :  3439.8 secs   av.it.:   8.0
      thresh= 1.776E-07 alpha_mix =  0.700 |ddv_scf|^2 =  1.822E-14

      iter #   7 total cpu time :  3447.8 secs   av.it.:   8.5
      thresh= 1.350E-08 alpha_mix =  0.700 |ddv_scf|^2 =  2.241E-15

      iter #   8 total cpu time :  3455.5 secs   av.it.:   8.3
      thresh= 4.734E-09 alpha_mix =  0.700 |ddv_scf|^2 =  1.041E-16

      iter #   9 total cpu time :  3463.7 secs   av.it.:   8.1
      thresh= 1.020E-09 alpha_mix =  0.700 |ddv_scf|^2 =  1.397E-19

     End of self-consistent calculation

     Convergence has been achieved 


     Representation #  2 modes #   2  3

     Self-consistent Calculation

      iter #   1 total cpu time :  3477.0 secs   av.it.:   5.6
      thresh= 1.000E-02 alpha_mix =  0.700 |ddv_scf|^2 =  6.135E-06

      iter #   2 total cpu time :  3492.7 secs   av.it.:   8.2
      thresh= 2.477E-04 alpha_mix =  0.700 |ddv_scf|^2 =  7.578E-07

      iter #   3 total cpu time :  3507.9 secs   av.it.:   7.8
      thresh= 8.705E-05 alpha_mix =  0.700 |ddv_scf|^2 =  6.301E-09

      iter #   4 total cpu time :  3523.8 secs   av.it.:   8.6
      thresh= 7.938E-06 alpha_mix =  0.700 |ddv_scf|^2 =  5.875E-11

      iter #   5 total cpu time :  3539.5 secs   av.it.:   8.1
      thresh= 7.665E-07 alpha_mix =  0.700 |ddv_scf|^2 =  6.302E-14

      iter #   6 total cpu time :  3555.3 secs   av.it.:   8.3
      thresh= 2.510E-08 alpha_mix =  0.700 |ddv_scf|^2 =  4.136E-15

      iter #   7 total cpu time :  3571.6 secs   av.it.:   8.4
      thresh= 6.431E-09 alpha_mix =  0.700 |ddv_scf|^2 =  1.446E-17

     End of self-consistent calculation

     Convergence has been achieved 

     Number of q in the star =    8
     List of q in the star:
          1  -0.333333333   0.666666667  -0.333333333
          2   0.333333333  -0.666666667   0.333333333
          3  -0.333333333  -0.666666667   0.333333333
          4  -0.333333333  -0.666666667  -0.333333333
          5  -0.333333333   0.666666667   0.333333333
          6   0.333333333   0.666666667  -0.333333333
          7  -0.666666667   0.333333333  -0.333333333
          8   0.333333333   0.666666667   0.333333333

     Diagonalizing the dynamical matrix

     q = (   -0.333333333   0.666666667  -0.333333333 ) 

 **************************************************************************
     freq (    1) =       1.662024 [THz] =      55.439164 [cm-1]
     freq (    2) =       2.977477 [THz] =      99.317936 [cm-1]
     freq (    3) =       2.977477 [THz] =      99.317936 [cm-1]
 **************************************************************************

     Mode symmetry, C_3v (3m)   point group:

     freq (  1 -  1) =         55.4  [cm-1]   --> A_1  L_1           
     freq (  2 -  3) =         99.3  [cm-1]   --> E    L_3           

     Calculation of q =    0.0000000   0.0000000   0.3333333

   Info: using nr1, nr2, nr3 values from input

   Info: using nr1, nr2, nr3 values from input

     Parallelization info
     --------------------
     sticks:   dense  smooth     PW     G-vecs:    dense   smooth      PW
     Min          75      38     12                 1659      590     115
     Max          76      39     13                 1661      591     118
     Sum        1215     611    205                26563     9453    1865



     bravais-lattice index     =            3
     lattice parameter (alat)  =       8.2004  a.u.
     unit-cell volume          =     275.7254 (a.u.)^3
     number of atoms/cell      =            1
     number of atomic types    =            1
     number of electrons       =         9.00
     number of Kohn-Sham states=            9
     kinetic-energy cutoff     =      40.0000  Ry
     charge density cutoff     =     320.0000  Ry
     Exchange-correlation      = SLA  PW   PBE  PBE ( 1  4  3  4 0 0)

     celldm(1)=   8.200410  celldm(2)=   0.000000  celldm(3)=   0.000000
     celldm(4)=   0.000000  celldm(5)=   0.000000  celldm(6)=   0.000000

[...]

     PseudoPot. # 1 for Na read from file:
     /home/s1333534/quantum_espresso/qe-6.1/pseudo/Na_pbe_v1.uspp.F.UPF
     MD5 check sum: 76a99c7e9422403d3e93cbc85ab7bccb
     Pseudo is Ultrasoft, Zval =  9.0
     Generated by new atomic code, or converted to UPF format
     Using radial grid of  819 points,  5 beta functions with: 
                l(1) =   0
                l(2) =   0
                l(3) =   1
                l(4) =   1
                l(5) =   2
     Q(r) pseudized with  8 coefficients,  rinner =    1.250   1.250   1.250
                                                       1.250   1.250

     Mode symmetry, C_2v (mm2)  point group:


     Atomic displacements:
     There are   3 irreducible representations

     Representation     1      1 modes -A_1  D_1  S_1  To be done

     Representation     2      1 modes -B_1  D_3  S_3  To be done

     Representation     3      1 modes -B_2  D_4  S_4  To be done



     Alpha used in Ewald sum =   2.8000
     PHONON       :     1h40m CPU        1h48m WALL



     Representation #  1 mode #   1

     Self-consistent Calculation

      iter #   1 total cpu time :  6535.1 secs   av.it.:   5.6
      thresh= 1.000E-02 alpha_mix =  0.700 |ddv_scf|^2 =  1.422E-05

      iter #   2 total cpu time :  6546.3 secs   av.it.:   7.9
      thresh= 3.771E-04 alpha_mix =  0.700 |ddv_scf|^2 =  7.288E-07

      iter #   3 total cpu time :  6557.0 secs   av.it.:   7.7
      thresh= 8.537E-05 alpha_mix =  0.700 |ddv_scf|^2 =  1.698E-08

      iter #   4 total cpu time :  6568.4 secs   av.it.:   8.2
      thresh= 1.303E-05 alpha_mix =  0.700 |ddv_scf|^2 =  1.156E-09

      iter #   5 total cpu time :  6579.5 secs   av.it.:   8.1
      thresh= 3.400E-06 alpha_mix =  0.700 |ddv_scf|^2 =  7.905E-11

      iter #   6 total cpu time :  6590.5 secs   av.it.:   8.0
      thresh= 8.891E-07 alpha_mix =  0.700 |ddv_scf|^2 =  1.022E-12

      iter #   7 total cpu time :  6602.1 secs   av.it.:   8.2
      thresh= 1.011E-07 alpha_mix =  0.700 |ddv_scf|^2 =  6.023E-14

      iter #   8 total cpu time :  6613.3 secs   av.it.:   8.2
      thresh= 2.454E-08 alpha_mix =  0.700 |ddv_scf|^2 =  1.687E-16

      iter #   9 total cpu time :  6623.7 secs   av.it.:   7.2
      thresh= 1.299E-09 alpha_mix =  0.700 |ddv_scf|^2 =  1.499E-17

     End of self-consistent calculation

     Convergence has been achieved 


     Representation #  2 mode #   2

     Self-consistent Calculation

      iter #   1 total cpu time :  6633.4 secs   av.it.:   5.5
      thresh= 1.000E-02 alpha_mix =  0.700 |ddv_scf|^2 =  1.229E-05

      iter #   2 total cpu time :  6644.1 secs   av.it.:   7.7
      thresh= 3.506E-04 alpha_mix =  0.700 |ddv_scf|^2 =  1.724E-07

      iter #   3 total cpu time :  6654.7 secs   av.it.:   7.7
      thresh= 4.153E-05 alpha_mix =  0.700 |ddv_scf|^2 =  1.605E-08

      iter #   4 total cpu time :  6666.3 secs   av.it.:   7.8
      thresh= 1.267E-05 alpha_mix =  0.700 |ddv_scf|^2 =  7.080E-11

      iter #   5 total cpu time :  6677.2 secs   av.it.:   7.8
      thresh= 8.414E-07 alpha_mix =  0.700 |ddv_scf|^2 =  3.652E-14

      iter #   6 total cpu time :  6687.3 secs   av.it.:   7.1
      thresh= 1.911E-08 alpha_mix =  0.700 |ddv_scf|^2 =  2.712E-15

      iter #   7 total cpu time :  6697.4 secs   av.it.:   7.4
      thresh= 5.208E-09 alpha_mix =  0.700 |ddv_scf|^2 =  5.033E-18

     End of self-consistent calculation

     Convergence has been achieved 


     Representation #  3 mode #   3

     Self-consistent Calculation

      iter #   1 total cpu time :  6707.2 secs   av.it.:   5.6
      thresh= 1.000E-02 alpha_mix =  0.700 |ddv_scf|^2 =  2.049E-05

      iter #   2 total cpu time :  6718.3 secs   av.it.:   7.7
      thresh= 4.526E-04 alpha_mix =  0.700 |ddv_scf|^2 =  1.562E-06

      iter #   3 total cpu time :  6728.7 secs   av.it.:   7.3
      thresh= 1.250E-04 alpha_mix =  0.700 |ddv_scf|^2 =  2.258E-08

      iter #   4 total cpu time :  6739.6 secs   av.it.:   7.8
      thresh= 1.503E-05 alpha_mix =  0.700 |ddv_scf|^2 =  6.314E-10

      iter #   5 total cpu time :  6749.8 secs   av.it.:   7.4
      thresh= 2.513E-06 alpha_mix =  0.700 |ddv_scf|^2 =  1.136E-12

      iter #   6 total cpu time :  6760.6 secs   av.it.:   8.0
      thresh= 1.066E-07 alpha_mix =  0.700 |ddv_scf|^2 =  8.467E-15

      iter #   7 total cpu time :  6772.1 secs   av.it.:   7.9
      thresh= 9.202E-09 alpha_mix =  0.700 |ddv_scf|^2 =  1.388E-16

      iter #   8 total cpu time :  6782.8 secs   av.it.:   7.7
      thresh= 1.178E-09 alpha_mix =  0.700 |ddv_scf|^2 =  1.894E-19

     End of self-consistent calculation

     Convergence has been achieved 

     Number of q in the star =   12
     List of q in the star:
          1   0.000000000   0.833333333  -0.166666667
          2   0.000000000  -0.833333333  -0.166666667
          3   0.833333333   0.000000000  -0.166666667
          4  -0.833333333   0.000000000  -0.166666667
          5  -0.166666667  -0.833333333   0.000000000
          6   0.166666667  -0.833333333   0.000000000
          7  -0.166666667   0.833333333   0.000000000
          8   0.166666667   0.833333333   0.000000000
          9   0.833333333   0.000000000   0.166666667
         10   0.000000000   0.166666667  -0.833333333
         11   0.000000000  -0.166666667  -0.833333333
         12   0.166666667   0.000000000  -0.833333333

     Diagonalizing the dynamical matrix

     q = (    0.000000000   0.833333333  -0.166666667 ) 

 **************************************************************************
     freq (    1) =       2.870476 [THz] =      95.748778 [cm-1]
     freq (    2) =       3.136129 [THz] =     104.609994 [cm-1]
     freq (    3) =       3.345786 [THz] =     111.603392 [cm-1]
 **************************************************************************

     Mode symmetry, C_2v (mm2)  point group:

     freq (  1 -  1) =         95.7  [cm-1]   --> A_1  D_1  S_1      
     freq (  2 -  2) =        104.6  [cm-1]   --> B_1  D_3  S_3      
     freq (  3 -  3) =        111.6  [cm-1]   --> B_2  D_4  S_4      

     Calculation of q =    0.0000000   0.0000000  -1.0000000

   Info: using nr1, nr2, nr3 values from input

   Info: using nr1, nr2, nr3 values from input

     Parallelization info
     --------------------
     sticks:   dense  smooth     PW     G-vecs:    dense   smooth      PW
     Min          75      38     13                 1659      590     129
     Max          76      39     14                 1661      591     132
     Sum        1215     611    219                26563     9453    2093



     bravais-lattice index     =            3
     lattice parameter (alat)  =       8.2004  a.u.
     unit-cell volume          =     275.7254 (a.u.)^3
     number of atoms/cell      =            1
     number of atomic types    =            1
     number of electrons       =         9.00
     number of Kohn-Sham states=            9
     kinetic-energy cutoff     =      40.0000  Ry
     charge density cutoff     =     320.0000  Ry
     Exchange-correlation      = SLA  PW   PBE  PBE ( 1  4  3  4 0 0)

     celldm(1)=   8.200410  celldm(2)=   0.000000  celldm(3)=   0.000000
     celldm(4)=   0.000000  celldm(5)=   0.000000  celldm(6)=   0.000000

     crystal axes: (cart. coord. in units of alat)
               a(1) = (   0.500000   0.500000   0.500000 )  
               a(2) = (  -0.500000   0.500000   0.500000 )  
               a(3) = (  -0.500000  -0.500000   0.500000 )  

     reciprocal axes: (cart. coord. in units 2 pi/alat)
               b(1) = (  1.000000  0.000000  1.000000 )  
               b(2) = ( -1.000000  1.000000  0.000000 )  
               b(3) = (  0.000000 -1.000000  1.000000 )  


     PseudoPot. # 1 for Na read from file:
     /home/s1333534/quantum_espresso/qe-6.1/pseudo/Na_pbe_v1.uspp.F.UPF
     MD5 check sum: 76a99c7e9422403d3e93cbc85ab7bccb
     Pseudo is Ultrasoft, Zval =  9.0
     Generated by new atomic code, or converted to UPF format
     Using radial grid of  819 points,  5 beta functions with: 
                l(1) =   0
                l(2) =   0
                l(3) =   1
                l(4) =   1
                l(5) =   2
     Q(r) pseudized with  8 coefficients,  rinner =    1.250   1.250   1.250
                                                       1.250   1.250

     atomic species   valence    mass     pseudopotential
        Na             9.00    22.99000     Na( 1.00)

     48 Sym. Ops., with inversion, found



   Cartesian axes

     site n.     atom                  positions (alat units)
         1           Na  tau(   1) = (   0.0000000   0.0000000   0.0000000  )

     number of k points=   500  Marzari-Vanderbilt smearing, width (Ry)=  0.0200

     Number of k-points >= 100: set verbosity='high' to print them.

     Dense  grid:    26563 G-vectors     FFT dimensions: (  45,  45,  45)

     Smooth grid:     9453 G-vectors     FFT dimensions: (  30,  30,  30)

     Estimated max dynamical RAM per process >       0.91MB

     Estimated total allocated dynamical RAM >      58.37MB

     The potential is recalculated from file :
     ./_ph0/na.bcc.save/charge-density.dat

     Starting wfc are    5 atomic +    4 random wfc

     Band Structure Calculation
     Davidson diagonalization with overlap

     ethr =  1.11E-10,  avg # of iterations = 23.4

     total cpu time spent up to now is     1676.3 secs

     End of band structure calculation

     Number of k-points >= 100: set verbosity='high' to print the bands.

     the Fermi energy is     1.2227 ev

     Writing output data file na.bcc.save

                                                                                

     bravais-lattice index     =            3
     lattice parameter (alat)  =       8.2004  a.u.
     unit-cell volume          =     275.7254 (a.u.)^3
     number of atoms/cell      =            1
     number of atomic types    =            1
     kinetic-energy cut-off    =      40.0000  Ry
     charge density cut-off    =     320.0000  Ry
     convergence threshold     =      1.0E-16
     beta                      =       0.7000
     number of iterations used =            4
     Exchange-correlation      = SLA  PW   PBE  PBE ( 1  4  3  4 0 0)


     celldm(1)=    8.20041  celldm(2)=    0.00000  celldm(3)=    0.00000
     celldm(4)=    0.00000  celldm(5)=    0.00000  celldm(6)=    0.00000

     crystal axes: (cart. coord. in units of alat)
               a(1) = (  0.5000  0.5000  0.5000 )  
               a(2) = ( -0.5000  0.5000  0.5000 )  
               a(3) = ( -0.5000 -0.5000  0.5000 )  

     reciprocal axes: (cart. coord. in units 2 pi/alat)
               b(1) = (  1.0000  0.0000  1.0000 )  
               b(2) = ( -1.0000  1.0000  0.0000 )  
               b(3) = (  0.0000 -1.0000  1.0000 )  


     Atoms inside the unit cell: 

     Cartesian axes

     site n.  atom      mass           positions (alat units)
        1     Na  22.9900   tau(    1) = (    0.00000    0.00000    0.00000  )

     Computing dynamical matrix for 
                    q = (   0.0000000   0.0000000  -1.0000000 )

     49 Sym.Ops. (with q -> -q+G )


     G cutoff =  545.0814  (   1661 G-vectors)     FFT grid: ( 45, 45, 45)
     G cutoff =  272.5407  (    591 G-vectors)  smooth grid: ( 30, 30, 30)

     number of k points=   500  Marzari-Vanderbilt smearing, width (Ry)=  0.0200

     PseudoPot. # 1 for Na read from file:
     /home/s1333534/quantum_espresso/qe-6.1/pseudo/Na_pbe_v1.uspp.F.UPF
     MD5 check sum: 76a99c7e9422403d3e93cbc85ab7bccb
     Pseudo is Ultrasoft, Zval =  9.0
     Generated by new atomic code, or converted to UPF format
     Using radial grid of  819 points,  5 beta functions with: 
                l(1) =   0
                l(2) =   0
                l(3) =   1
                l(4) =   1
                l(5) =   2
     Q(r) pseudized with  8 coefficients,  rinner =    1.250   1.250   1.250
                                                       1.250   1.250

     Mode symmetry, O_h (m-3m)  point group:


     Atomic displacements:
     There are   1 irreducible representations

     Representation     1      3 modes -T_1u G_15  G_4-  To be done



     Alpha used in Ewald sum =   2.8000
     PHONON       :     1h45m CPU        1h53m WALL



     Representation #  1 modes #   1  2  3

     Self-consistent Calculation

      iter #   1 total cpu time :  6799.7 secs   av.it.:   5.7
      thresh= 1.000E-02 alpha_mix =  0.700 |ddv_scf|^2 =  1.522E-06

      iter #   2 total cpu time :  6805.5 secs   av.it.:   8.5
      thresh= 1.234E-04 alpha_mix =  0.700 |ddv_scf|^2 =  2.515E-08

      iter #   3 total cpu time :  6811.0 secs   av.it.:   8.3
      thresh= 1.586E-05 alpha_mix =  0.700 |ddv_scf|^2 =  2.020E-09

      iter #   4 total cpu time :  6816.5 secs   av.it.:   8.5
      thresh= 4.494E-06 alpha_mix =  0.700 |ddv_scf|^2 =  8.221E-12

      iter #   5 total cpu time :  6821.9 secs   av.it.:   8.4
      thresh= 2.867E-07 alpha_mix =  0.700 |ddv_scf|^2 =  2.773E-15

      iter #   6 total cpu time :  6826.7 secs   av.it.:   7.1
      thresh= 5.266E-09 alpha_mix =  0.700 |ddv_scf|^2 =  2.269E-16

      iter #   7 total cpu time :  6832.0 secs   av.it.:   7.9
      thresh= 1.506E-09 alpha_mix =  0.700 |ddv_scf|^2 =  3.188E-19

     End of self-consistent calculation

     Convergence has been achieved 

     Number of q in the star =    1
     List of q in the star:
          1   0.000000000   0.000000000  -1.000000000

     Diagonalizing the dynamical matrix

     q = (    0.000000000   0.000000000  -1.000000000 ) 

 **************************************************************************
     freq (    1) =       3.354292 [THz] =     111.887122 [cm-1]
     freq (    2) =       3.354292 [THz] =     111.887122 [cm-1]
     freq (    3) =       3.354292 [THz] =     111.887122 [cm-1]
 **************************************************************************

     Mode symmetry, O_h (m-3m)  point group:

     freq (  1 -  3) =        111.9  [cm-1]   --> T_1u G_15  G_4-    

     init_run     :      2.69s CPU      2.81s WALL (      15 calls)
     electrons    :   1372.63s CPU   1445.55s WALL (      15 calls)

     Called by init_run:
     wfcinit      :      0.00s CPU      0.00s WALL (      15 calls)
     potinit      :      0.49s CPU      0.50s WALL (      15 calls)

     Called by electrons:
     c_bands      :   1372.27s CPU   1445.18s WALL (      15 calls)
     v_of_rho     :      0.20s CPU      0.21s WALL (      16 calls)
     newd         :      0.18s CPU      0.19s WALL (      16 calls)

     Called by c_bands:
     init_us_2    :     28.56s CPU     30.77s WALL (  334962 calls)
     cegterg      :   1050.59s CPU   1114.09s WALL (   30160 calls)

     Called by sum_band:

     Called by *egterg:
     h_psi        :   3713.67s CPU   3983.30s WALL ( 3172549 calls)
     s_psi        :    105.35s CPU    115.00s WALL ( 6113684 calls)
     g_psi        :      3.42s CPU      3.72s WALL (  442732 calls)
     cdiaghg      :    271.63s CPU    288.15s WALL (  461994 calls)

     Called by h_psi:
     h_psi:pot    :   3689.04s CPU   3956.08s WALL ( 3172549 calls)
     h_psi:calbec :    203.03s CPU    216.77s WALL ( 3172549 calls)
     vloc_psi     :   3394.21s CPU   3640.65s WALL ( 3172549 calls)
     add_vuspsi   :     57.71s CPU     62.73s WALL ( 3172549 calls)

     General routines
     calbec       :    366.43s CPU    393.47s WALL ( 6655361 calls)
     fft          :      6.21s CPU      6.41s WALL (    6361 calls)
     ffts         :      5.48s CPU      6.01s WALL (   30432 calls)
     fftw         :   3710.82s CPU   3998.86s WALL (30530009 calls)
     interpolate  :      0.97s CPU      1.14s WALL (     872 calls)
     davcio       :     34.65s CPU     78.01s WALL ( 1361831 calls)

     Parallel routines
     fft_scatter  :   1594.45s CPU   1718.63s WALL (30566802 calls)

     PHONON       :     1h45m CPU        1h53m WALL

     INITIALIZATION: 
     phq_setup    :      0.69s CPU      0.75s WALL (      16 calls)
     phq_init     :     65.25s CPU     69.36s WALL (      16 calls)

     phq_init     :     65.25s CPU     69.36s WALL (      16 calls)
     init_vloc    :      0.13s CPU      0.13s WALL (      16 calls)
     init_us_1    :      1.23s CPU      1.33s WALL (      16 calls)
     newd         :      0.18s CPU      0.19s WALL (      16 calls)
     dvanqq       :      0.76s CPU      0.77s WALL (      16 calls)
     drho         :     50.44s CPU     53.11s WALL (      16 calls)

     DYNAMICAL MATRIX:
     dynmat0      :      9.13s CPU     10.18s WALL (      16 calls)
     phqscf       :   4670.41s CPU   5080.68s WALL (      16 calls)
     dynmatrix    :      0.11s CPU      0.12s WALL (      16 calls)

     phqscf       :   4670.41s CPU   5080.68s WALL (      16 calls)
     solve_linter :   4656.03s CPU   5064.97s WALL (      40 calls)
     drhodv       :     13.91s CPU     14.95s WALL (      40 calls)

     dynmat0      :      9.13s CPU     10.18s WALL (      16 calls)
     dynmat_us    :      9.06s CPU      9.81s WALL (      16 calls)
     d2ionq       :      0.01s CPU      0.01s WALL (      16 calls)

     dynmat_us    :      9.06s CPU      9.81s WALL (      16 calls)
     addusdynmat  :      0.00s CPU      0.00s WALL (      16 calls)

     phqscf       :   4670.41s CPU   5080.68s WALL (      16 calls)
     solve_linter :   4656.03s CPU   5064.97s WALL (      40 calls)

     solve_linter :   4656.03s CPU   5064.97s WALL (      40 calls)
     dvqpsi_us    :     88.28s CPU     93.76s WALL (   29082 calls)
     ortho        :     55.47s CPU     59.13s WALL (  260740 calls)
     cgsolve      :   3653.34s CPU   3938.23s WALL (  260740 calls)
     incdrhoscf   :    361.73s CPU    406.83s WALL (  260740 calls)
     addusddens   :      5.54s CPU      5.60s WALL (     382 calls)
     vpsifft      :    291.23s CPU    313.76s WALL (  231658 calls)
     dv_of_drho   :      4.88s CPU      4.96s WALL (     396 calls)
     mix_pot      :      0.70s CPU      3.19s WALL (     342 calls)
     ef_shift     :      0.03s CPU      0.06s WALL (       7 calls)
     localdos     :      0.10s CPU      0.10s WALL (       1 calls)
     psymdvscf    :     42.53s CPU     43.45s WALL (     311 calls)
     newdq        :      5.49s CPU      5.55s WALL (     342 calls)
     adddvscf     :     15.13s CPU     16.13s WALL (  231658 calls)
     drhodvus     :      0.02s CPU      0.03s WALL (      40 calls)

     dvqpsi_us    :     88.28s CPU     93.76s WALL (   29082 calls)
     dvqpsi_us_on :     14.37s CPU     14.98s WALL (   29082 calls)

     cgsolve      :   3653.34s CPU   3938.23s WALL (  260740 calls)
     ch_psi       :   3465.91s CPU   3733.67s WALL ( 2680395 calls)

     ch_psi       :   3465.91s CPU   3733.67s WALL ( 2680395 calls)
     h_psi        :   3713.67s CPU   3983.30s WALL ( 3172549 calls)
     last         :    340.93s CPU    368.90s WALL ( 2680395 calls)

     h_psi        :   3713.67s CPU   3983.30s WALL ( 3172549 calls)
     add_vuspsi   :     57.71s CPU     62.73s WALL ( 3172549 calls)

     incdrhoscf   :    361.73s CPU    406.83s WALL (  260740 calls)
     addusdbec    :     27.71s CPU     29.22s WALL (  289822 calls)

     drhodvus     :      0.02s CPU      0.03s WALL (      40 calls)

      General routines
     calbec       :    366.43s CPU    393.47s WALL ( 6655361 calls)
     fft          :      6.21s CPU      6.41s WALL (    6361 calls)
     ffts         :      5.48s CPU      6.01s WALL (   30432 calls)
     fftw         :   3710.82s CPU   3998.86s WALL (30530009 calls)
     davcio       :     34.65s CPU     78.01s WALL ( 1361831 calls)
     write_rec    :      1.67s CPU      3.40s WALL (     382 calls)


     PHONON       :     1h45m CPU        1h53m WALL


   This run was terminated on:  20:17:11  30Jan2018            

=------------------------------------------------------------------------------=
   JOB DONE.
=------------------------------------------------------------------------------=
