
     Program PHONON v.6.1 (svn rev. 13369) starts on  1Feb2018 at 18:47:55 

     This program is part of the open-source Quantum ESPRESSO suite
     for quantum simulation of materials; please cite
         "P. Giannozzi et al., J. Phys.:Condens. Matter 21 395502 (2009);
          URL http://www.quantum-espresso.org", 
     in publications or presentations arising from this work. More details at
     http://www.quantum-espresso.org/quote

     Parallel version (MPI), running on    64 processors
     K-points division:     npool     =       4
     R & G space division:  proc/nbgrp/npool/nimage =      16

     Reading data from directory:
     ./na.fcc.save

   Info: using nr1, nr2, nr3 values from input

   Info: using nr1, nr2, nr3 values from input

     IMPORTANT: XC functional enforced from input :
     Exchange-correlation      = SLA  PW   PBE  PBE ( 1  4  3  4 0 0)
     Any further DFT definition will be discarded
     Please, verify this is what you really want


     Parallelization info
     --------------------
     sticks:   dense  smooth     PW     G-vecs:    dense   smooth      PW
     Min          62      31     10                 1300      461      90
     Max          63      32     11                 1303      465      94
     Sum        1003     499    163                20827     7391    1459



     Dynamical matrices for ( 6, 6, 6)  uniform grid of q-points
     (  16q-points):
       N         xq(1)         xq(2)         xq(3) 
       1   0.000000000   0.000000000   0.000000000
       2  -0.166666667   0.166666667  -0.166666667
       3  -0.333333333   0.333333333  -0.333333333
       4   0.500000000  -0.500000000   0.500000000
       5   0.000000000   0.333333333   0.000000000
       6  -0.166666667   0.500000000  -0.166666667
       7   0.666666667  -0.333333333   0.666666667
       8   0.500000000  -0.166666667   0.500000000
       9   0.333333333   0.000000000   0.333333333
      10   0.000000000   0.666666667   0.000000000
      11   0.833333333  -0.166666667   0.833333333
      12   0.666666667  -0.000000000   0.666666667
      13   0.000000000  -1.000000000   0.000000000
      14   0.666666667  -0.333333333   1.000000000
      15   0.500000000  -0.166666667   0.833333333
      16  -0.333333333  -1.000000000   0.000000000

     Calculation of q =    0.0000000   0.0000000   0.0000000

                                                                                

     bravais-lattice index     =            2
     lattice parameter (alat)  =       9.5000  a.u.
     unit-cell volume          =     214.3438 (a.u.)^3
     number of atoms/cell      =            1
     number of atomic types    =            1
     kinetic-energy cut-off    =      40.0000  Ry
     charge density cut-off    =     320.0000  Ry
     convergence threshold     =      1.0E-16
     beta                      =       0.7000
     number of iterations used =            4
     Exchange-correlation      = SLA  PW   PBE  PBE ( 1  4  3  4 0 0)


     celldm(1)=    9.50000  celldm(2)=    0.00000  celldm(3)=    0.00000
     celldm(4)=    0.00000  celldm(5)=    0.00000  celldm(6)=    0.00000

     crystal axes: (cart. coord. in units of alat)
               a(1) = ( -0.5000  0.0000  0.5000 )  
               a(2) = (  0.0000  0.5000  0.5000 )  
               a(3) = ( -0.5000  0.5000  0.0000 )  

     reciprocal axes: (cart. coord. in units 2 pi/alat)
               b(1) = ( -1.0000 -1.0000  1.0000 )  
               b(2) = (  1.0000  1.0000  1.0000 )  
               b(3) = ( -1.0000  1.0000 -1.0000 )  


     Atoms inside the unit cell: 

     Cartesian axes

     site n.  atom      mass           positions (alat units)
        1     Na  22.9900   tau(    1) = (    0.00000    0.00000    0.00000  )

     Computing dynamical matrix for 
                    q = (   0.0000000   0.0000000   0.0000000 )

     49 Sym.Ops. (with q -> -q+G )


     G cutoff =  731.5389  (   1303 G-vectors)     FFT grid: ( 40, 40, 40)
     G cutoff =  365.7695  (    462 G-vectors)  smooth grid: ( 27, 27, 27)

     number of k points=   770  Marzari-Vanderbilt smearing, width (Ry)=  0.0200

     PseudoPot. # 1 for Na read from file:
     /home/s1333534/quantum_espresso/qe-6.1/pseudo/Na_pbe_v1.uspp.F.UPF
     MD5 check sum: 76a99c7e9422403d3e93cbc85ab7bccb
     Pseudo is Ultrasoft, Zval =  9.0
     Generated by new atomic code, or converted to UPF format
     Using radial grid of  819 points,  5 beta functions with: 
                l(1) =   0
                l(2) =   0
                l(3) =   1
                l(4) =   1
                l(5) =   2
     Q(r) pseudized with  8 coefficients,  rinner =    1.250   1.250   1.250
                                                       1.250   1.250

     Mode symmetry, O_h (m-3m)  point group:


     Atomic displacements:
     There are   1 irreducible representations

     Representation     1      3 modes -T_1u G_15  G_4-  To be done



     Alpha used in Ewald sum =   2.8000
     PHONON       :     7.47s CPU         8.08s WALL



     Representation #  1 modes #   1  2  3

     Self-consistent Calculation

     Pert. #  1: Fermi energy shift (Ry) =     1.6964E-25    -1.5673E-37
     Pert. #  2: Fermi energy shift (Ry) =     7.9702E-26     1.5673E-37
     Pert. #  3: Fermi energy shift (Ry) =    -2.8811E-25     3.7616E-37

      iter #   1 total cpu time :    17.7 secs   av.it.:   5.4
      thresh= 1.000E-02 alpha_mix =  0.700 |ddv_scf|^2 =  1.099E-06

     Pert. #  1: Fermi energy shift (Ry) =    -8.1856E-26     1.4694E-39
     Pert. #  2: Fermi energy shift (Ry) =    -4.3082E-27    -1.3469E-39
     Pert. #  3: Fermi energy shift (Ry) =    -3.0158E-26    -5.1428E-39

      iter #   2 total cpu time :    29.0 secs   av.it.:   8.4
      thresh= 1.049E-04 alpha_mix =  0.700 |ddv_scf|^2 =  2.079E-08

     Pert. #  1: Fermi energy shift (Ry) =     2.5849E-26    -1.5306E-40
     Pert. #  2: Fermi energy shift (Ry) =    -1.2925E-26    -1.4923E-40
     Pert. #  3: Fermi energy shift (Ry) =    -2.1541E-27    -3.0612E-41

      iter #   3 total cpu time :    40.6 secs   av.it.:   8.7
      thresh= 1.442E-05 alpha_mix =  0.700 |ddv_scf|^2 =  3.404E-10

     Pert. #  1: Fermi energy shift (Ry) =    -1.2925E-26     0.0000E+00
     Pert. #  2: Fermi energy shift (Ry) =     2.1541E-27     9.5662E-42
     Pert. #  3: Fermi energy shift (Ry) =    -2.5849E-26     3.8265E-42

      iter #   4 total cpu time :    51.8 secs   av.it.:   8.1
      thresh= 1.845E-06 alpha_mix =  0.700 |ddv_scf|^2 =  1.251E-12

     Pert. #  1: Fermi energy shift (Ry) =     3.8774E-26     2.3915E-42
     Pert. #  2: Fermi energy shift (Ry) =     1.7233E-26    -2.3915E-42
     Pert. #  3: Fermi energy shift (Ry) =     8.6165E-27    -5.7397E-42

      iter #   5 total cpu time :    63.3 secs   av.it.:   8.4
      thresh= 1.119E-07 alpha_mix =  0.700 |ddv_scf|^2 =  2.993E-15

     Pert. #  1: Fermi energy shift (Ry) =    -2.1541E-26    -3.3482E-42
     Pert. #  2: Fermi energy shift (Ry) =     1.7233E-26     2.3915E-43
     Pert. #  3: Fermi energy shift (Ry) =    -5.7084E-26    -3.1090E-42

      iter #   6 total cpu time :    74.6 secs   av.it.:   8.2
      thresh= 5.471E-09 alpha_mix =  0.700 |ddv_scf|^2 =  5.638E-17

     End of self-consistent calculation

     Convergence has been achieved 

     Number of q in the star =    1
     List of q in the star:
          1   0.000000000   0.000000000   0.000000000

     Diagonalizing the dynamical matrix

     q = (    0.000000000   0.000000000   0.000000000 ) 

 **************************************************************************
     freq (    1) =      -0.326215 [THz] =     -10.881356 [cm-1]
     freq (    2) =      -0.326215 [THz] =     -10.881356 [cm-1]
     freq (    3) =      -0.326215 [THz] =     -10.881356 [cm-1]
 **************************************************************************

     Mode symmetry, O_h (m-3m)  point group:

     freq (  1 -  3) =        -10.9  [cm-1]   --> T_1u G_15  G_4- I  

     Calculation of q =   -0.1666667   0.1666667  -0.1666667

   Info: using nr1, nr2, nr3 values from input

   Info: using nr1, nr2, nr3 values from input

     Parallelization info
     --------------------
     sticks:   dense  smooth     PW     G-vecs:    dense   smooth      PW
     Min          62      31     10                 1300      461      91
     Max          63      32     11                 1303      465      94
     Sum        1003     499    169                20827     7391    1471



     bravais-lattice index     =            2
     lattice parameter (alat)  =       9.5000  a.u.
     unit-cell volume          =     214.3438 (a.u.)^3
     number of atoms/cell      =            1
     number of atomic types    =            1
     number of electrons       =         9.00
     number of Kohn-Sham states=            9
     kinetic-energy cutoff     =      40.0000  Ry
     charge density cutoff     =     320.0000  Ry
     Exchange-correlation      = SLA  PW   PBE  PBE ( 1  4  3  4 0 0)

     celldm(1)=   9.500000  celldm(2)=   0.000000  celldm(3)=   0.000000
     celldm(4)=   0.000000  celldm(5)=   0.000000  celldm(6)=   0.000000

     crystal axes: (cart. coord. in units of alat)
               a(1) = (  -0.500000   0.000000   0.500000 )  
               a(2) = (   0.000000   0.500000   0.500000 )  
               a(3) = (  -0.500000   0.500000   0.000000 )  

     reciprocal axes: (cart. coord. in units 2 pi/alat)
               b(1) = ( -1.000000 -1.000000  1.000000 )  
               b(2) = (  1.000000  1.000000  1.000000 )  
               b(3) = ( -1.000000  1.000000 -1.000000 )  


     PseudoPot. # 1 for Na read from file:
     /home/s1333534/quantum_espresso/qe-6.1/pseudo/Na_pbe_v1.uspp.F.UPF
     MD5 check sum: 76a99c7e9422403d3e93cbc85ab7bccb
     Pseudo is Ultrasoft, Zval =  9.0
     Generated by new atomic code, or converted to UPF format
     Using radial grid of  819 points,  5 beta functions with: 
                l(1) =   0
                l(2) =   0
                l(3) =   1
                l(4) =   1
                l(5) =   2
     Q(r) pseudized with  8 coefficients,  rinner =    1.250   1.250   1.250
                                                       1.250   1.250

     atomic species   valence    mass     pseudopotential
        Na             9.00    22.99000     Na( 1.00)

     48 Sym. Ops., with inversion, found



   Cartesian axes

     site n.     atom                  positions (alat units)
         1           Na  tau(   1) = (   0.0000000   0.0000000   0.0000000  )

     number of k points= 11480  Marzari-Vanderbilt smearing, width (Ry)=  0.0200

     Number of k-points >= 100: set verbosity='high' to print them.

     Dense  grid:    20827 G-vectors     FFT dimensions: (  40,  40,  40)

     Smooth grid:     7391 G-vectors     FFT dimensions: (  27,  27,  27)

     Estimated max dynamical RAM per process >       0.72MB

     Estimated total allocated dynamical RAM >      45.76MB

     The potential is recalculated from file :
     ./_ph0/na.fcc.save/charge-density.dat

     Starting wfc are    5 atomic +    4 random wfc

     Band Structure Calculation
     Davidson diagonalization with overlap

     ethr =  1.11E-10,  avg # of iterations = 18.7

     total cpu time spent up to now is      171.2 secs

     End of band structure calculation

     Number of k-points >= 100: set verbosity='high' to print the bands.

     the Fermi energy is     2.3028 ev

     Writing output data file na.fcc.save

                                                                                

     bravais-lattice index     =            2
     lattice parameter (alat)  =       9.5000  a.u.
     unit-cell volume          =     214.3438 (a.u.)^3
     number of atoms/cell      =            1
     number of atomic types    =            1
     kinetic-energy cut-off    =      40.0000  Ry
     charge density cut-off    =     320.0000  Ry
     convergence threshold     =      1.0E-16
     beta                      =       0.7000
     number of iterations used =            4
     Exchange-correlation      = SLA  PW   PBE  PBE ( 1  4  3  4 0 0)


     celldm(1)=    9.50000  celldm(2)=    0.00000  celldm(3)=    0.00000
     celldm(4)=    0.00000  celldm(5)=    0.00000  celldm(6)=    0.00000

     crystal axes: (cart. coord. in units of alat)
               a(1) = ( -0.5000  0.0000  0.5000 )  
               a(2) = (  0.0000  0.5000  0.5000 )  
               a(3) = ( -0.5000  0.5000  0.0000 )  

     reciprocal axes: (cart. coord. in units 2 pi/alat)
               b(1) = ( -1.0000 -1.0000  1.0000 )  
               b(2) = (  1.0000  1.0000  1.0000 )  
               b(3) = ( -1.0000  1.0000 -1.0000 )  


     Atoms inside the unit cell: 

     Cartesian axes

     site n.  atom      mass           positions (alat units)
        1     Na  22.9900   tau(    1) = (    0.00000    0.00000    0.00000  )

     Computing dynamical matrix for 
                    q = (  -0.1666667   0.1666667  -0.1666667 )

      6 Sym.Ops. (no q -> -q+G )


     G cutoff =  731.5389  (   1302 G-vectors)     FFT grid: ( 40, 40, 40)
     G cutoff =  365.7695  (    462 G-vectors)  smooth grid: ( 27, 27, 27)

     number of k points= 11480  Marzari-Vanderbilt smearing, width (Ry)=  0.0200

     PseudoPot. # 1 for Na read from file:
     /home/s1333534/quantum_espresso/qe-6.1/pseudo/Na_pbe_v1.uspp.F.UPF
     MD5 check sum: 76a99c7e9422403d3e93cbc85ab7bccb
     Pseudo is Ultrasoft, Zval =  9.0
     Generated by new atomic code, or converted to UPF format
     Using radial grid of  819 points,  5 beta functions with: 
                l(1) =   0
                l(2) =   0
                l(3) =   1
                l(4) =   1
                l(5) =   2
     Q(r) pseudized with  8 coefficients,  rinner =    1.250   1.250   1.250
                                                       1.250   1.250

     Mode symmetry, C_3v (3m)   point group:


     Atomic displacements:
     There are   2 irreducible representations

     Representation     1      1 modes -A_1  L_1  To be done

     Representation     2      2 modes -E    L_3  To be done



     Alpha used in Ewald sum =   2.8000
     PHONON       :  4m31.38s CPU     4m48.03s WALL



     Representation #  1 mode #   1

     Self-consistent Calculation

      iter #   1 total cpu time :   310.0 secs   av.it.:   5.7
      thresh= 1.000E-02 alpha_mix =  0.700 |ddv_scf|^2 =  3.066E-02

      iter #   2 total cpu time :   331.3 secs   av.it.:   6.5
      thresh= 1.000E-02 alpha_mix =  0.700 |ddv_scf|^2 =  4.763E+00

      iter #   3 total cpu time :   353.2 secs   av.it.:   6.5
      thresh= 1.000E-02 alpha_mix =  0.700 |ddv_scf|^2 =  2.165E-07

      iter #   4 total cpu time :   378.5 secs   av.it.:   8.3
      thresh= 4.653E-05 alpha_mix =  0.700 |ddv_scf|^2 =  5.357E-08

      iter #   5 total cpu time :   401.9 secs   av.it.:   7.5
      thresh= 2.315E-05 alpha_mix =  0.700 |ddv_scf|^2 =  4.066E-09

      iter #   6 total cpu time :   425.3 secs   av.it.:   7.5
      thresh= 6.376E-06 alpha_mix =  0.700 |ddv_scf|^2 =  2.228E-08

      iter #   7 total cpu time :   440.4 secs   av.it.:   4.2
      thresh= 1.493E-05 alpha_mix =  0.700 |ddv_scf|^2 =  5.561E-10

      iter #   8 total cpu time :   463.4 secs   av.it.:   7.4
      thresh= 2.358E-06 alpha_mix =  0.700 |ddv_scf|^2 =  3.449E-11

      iter #   9 total cpu time :   485.7 secs   av.it.:   7.3
      thresh= 5.873E-07 alpha_mix =  0.700 |ddv_scf|^2 =  1.277E-12

      iter #  10 total cpu time :   507.8 secs   av.it.:   7.3
      thresh= 1.130E-07 alpha_mix =  0.700 |ddv_scf|^2 =  1.273E-13

      iter #  11 total cpu time :   530.6 secs   av.it.:   7.2
      thresh= 3.568E-08 alpha_mix =  0.700 |ddv_scf|^2 =  5.926E-16

      iter #  12 total cpu time :   554.9 secs   av.it.:   7.8
      thresh= 2.434E-09 alpha_mix =  0.700 |ddv_scf|^2 =  5.310E-16

      iter #  13 total cpu time :   576.8 secs   av.it.:   6.7
      thresh= 2.304E-09 alpha_mix =  0.700 |ddv_scf|^2 =  5.383E-15

      iter #  14 total cpu time :   596.7 secs   av.it.:   6.2
      thresh= 7.337E-09 alpha_mix =  0.700 |ddv_scf|^2 =  3.962E-18

     End of self-consistent calculation

     Convergence has been achieved 


     Representation #  2 modes #   2  3

     Self-consistent Calculation

      iter #   1 total cpu time :   640.8 secs   av.it.:   5.5
      thresh= 1.000E-02 alpha_mix =  0.700 |ddv_scf|^2 =  2.516E-06

      iter #   2 total cpu time :   691.0 secs   av.it.:   8.5
      thresh= 1.586E-04 alpha_mix =  0.700 |ddv_scf|^2 =  4.644E-08

      iter #   3 total cpu time :   742.7 secs   av.it.:   8.6
      thresh= 2.155E-05 alpha_mix =  0.700 |ddv_scf|^2 =  8.842E-10

      iter #   4 total cpu time :   793.7 secs   av.it.:   8.4
      thresh= 2.973E-06 alpha_mix =  0.700 |ddv_scf|^2 =  3.197E-12

      iter #   5 total cpu time :   846.9 secs   av.it.:   8.6
      thresh= 1.788E-07 alpha_mix =  0.700 |ddv_scf|^2 =  6.654E-15

      iter #   6 total cpu time :   896.4 secs   av.it.:   8.2
      thresh= 8.157E-09 alpha_mix =  0.700 |ddv_scf|^2 =  1.722E-16

      iter #   7 total cpu time :   949.3 secs   av.it.:   8.6
      thresh= 1.312E-09 alpha_mix =  0.700 |ddv_scf|^2 =  1.638E-19

     End of self-consistent calculation

     Convergence has been achieved 

     Number of q in the star =    8
     List of q in the star:
          1  -0.166666667   0.166666667  -0.166666667
          2   0.166666667   0.166666667   0.166666667
          3  -0.166666667  -0.166666667  -0.166666667
          4   0.166666667  -0.166666667   0.166666667
          5   0.166666667  -0.166666667  -0.166666667
          6   0.166666667   0.166666667  -0.166666667
          7  -0.166666667  -0.166666667   0.166666667
          8  -0.166666667   0.166666667   0.166666667

     Diagonalizing the dynamical matrix

     q = (   -0.166666667   0.166666667  -0.166666667 ) 

 **************************************************************************
     freq (    1) =       0.938337 [THz] =      31.299540 [cm-1]
     freq (    2) =       0.938337 [THz] =      31.299540 [cm-1]
     freq (    3) =       2.466043 [THz] =      82.258355 [cm-1]
 **************************************************************************

     Mode symmetry, C_3v (3m)   point group:

     freq (  1 -  2) =         31.3  [cm-1]   --> E    L_3           
     freq (  3 -  3) =         82.3  [cm-1]   --> A_1  L_1           

     Calculation of q =   -0.3333333   0.3333333  -0.3333333

   Info: using nr1, nr2, nr3 values from input

   Info: using nr1, nr2, nr3 values from input

     Parallelization info
     --------------------
     sticks:   dense  smooth     PW     G-vecs:    dense   smooth      PW
     Min          62      31     11                 1300      461     101
     Max          63      32     12                 1303      465     103
     Sum        1003     499    187                20827     7391    1639



     bravais-lattice index     =            2
     lattice parameter (alat)  =       9.5000  a.u.
     unit-cell volume          =     214.3438 (a.u.)^3
     number of atoms/cell      =            1
     number of atomic types    =            1
     number of electrons       =         9.00
     number of Kohn-Sham states=            9
     kinetic-energy cutoff     =      40.0000  Ry
     charge density cutoff     =     320.0000  Ry
     Exchange-correlation      = SLA  PW   PBE  PBE ( 1  4  3  4 0 0)

     celldm(1)=   9.500000  celldm(2)=   0.000000  celldm(3)=   0.000000
     celldm(4)=   0.000000  celldm(5)=   0.000000  celldm(6)=   0.000000

     crystal axes: (cart. coord. in units of alat)
               a(1) = (  -0.500000   0.000000   0.500000 )  
               a(2) = (   0.000000   0.500000   0.500000 )  
               a(3) = (  -0.500000   0.500000   0.000000 )  

     reciprocal axes: (cart. coord. in units 2 pi/alat)
               b(1) = ( -1.000000 -1.000000  1.000000 )  
               b(2) = (  1.000000  1.000000  1.000000 )  
               b(3) = ( -1.000000  1.000000 -1.000000 )  


     PseudoPot. # 1 for Na read from file:
     /home/s1333534/quantum_espresso/qe-6.1/pseudo/Na_pbe_v1.uspp.F.UPF
     MD5 check sum: 76a99c7e9422403d3e93cbc85ab7bccb
     Pseudo is Ultrasoft, Zval =  9.0
     Generated by new atomic code, or converted to UPF format
     Using radial grid of  819 points,  5 beta functions with: 
                l(1) =   0
                l(2) =   0
                l(3) =   1
                l(4) =   1
                l(5) =   2
     Q(r) pseudized with  8 coefficients,  rinner =    1.250   1.250   1.250
                                                       1.250   1.250

     atomic species   valence    mass     pseudopotential
        Na             9.00    22.99000     Na( 1.00)

     48 Sym. Ops., with inversion, found



   Cartesian axes

     site n.     atom                  positions (alat units)
         1           Na  tau(   1) = (   0.0000000   0.0000000   0.0000000  )

     number of k points= 11480  Marzari-Vanderbilt smearing, width (Ry)=  0.0200

     Number of k-points >= 100: set verbosity='high' to print them.

     Dense  grid:    20827 G-vectors     FFT dimensions: (  40,  40,  40)

     Smooth grid:     7391 G-vectors     FFT dimensions: (  27,  27,  27)

     Estimated max dynamical RAM per process >       0.72MB

     Estimated total allocated dynamical RAM >      45.76MB

     The potential is recalculated from file :
     ./_ph0/na.fcc.save/charge-density.dat

     Starting wfc are    5 atomic +    4 random wfc

     Band Structure Calculation
     Davidson diagonalization with overlap

     ethr =  1.11E-10,  avg # of iterations = 18.7

     total cpu time spent up to now is      375.4 secs

     End of band structure calculation

     Number of k-points >= 100: set verbosity='high' to print the bands.

     the Fermi energy is     2.3028 ev

     Writing output data file na.fcc.save

                                                                                

     bravais-lattice index     =            2
     lattice parameter (alat)  =       9.5000  a.u.
     unit-cell volume          =     214.3438 (a.u.)^3
     number of atoms/cell      =            1
     number of atomic types    =            1
     kinetic-energy cut-off    =      40.0000  Ry
     charge density cut-off    =     320.0000  Ry
     convergence threshold     =      1.0E-16
     beta                      =       0.7000
     number of iterations used =            4
     Exchange-correlation      = SLA  PW   PBE  PBE ( 1  4  3  4 0 0)


     celldm(1)=    9.50000  celldm(2)=    0.00000  celldm(3)=    0.00000
     celldm(4)=    0.00000  celldm(5)=    0.00000  celldm(6)=    0.00000

     crystal axes: (cart. coord. in units of alat)
               a(1) = ( -0.5000  0.0000  0.5000 )  
               a(2) = (  0.0000  0.5000  0.5000 )  
               a(3) = ( -0.5000  0.5000  0.0000 )  

     reciprocal axes: (cart. coord. in units 2 pi/alat)
               b(1) = ( -1.0000 -1.0000  1.0000 )  
               b(2) = (  1.0000  1.0000  1.0000 )  
               b(3) = ( -1.0000  1.0000 -1.0000 )  


     Atoms inside the unit cell: 

     Cartesian axes

     site n.  atom      mass           positions (alat units)
        1     Na  22.9900   tau(    1) = (    0.00000    0.00000    0.00000  )

     Computing dynamical matrix for 
                    q = (  -0.3333333   0.3333333  -0.3333333 )

      6 Sym.Ops. (no q -> -q+G )


     G cutoff =  731.5389  (   1301 G-vectors)     FFT grid: ( 40, 40, 40)
     G cutoff =  365.7695  (    462 G-vectors)  smooth grid: ( 27, 27, 27)

     number of k points= 11480  Marzari-Vanderbilt smearing, width (Ry)=  0.0200

     PseudoPot. # 1 for Na read from file:
     /home/s1333534/quantum_espresso/qe-6.1/pseudo/Na_pbe_v1.uspp.F.UPF
     MD5 check sum: 76a99c7e9422403d3e93cbc85ab7bccb
     Pseudo is Ultrasoft, Zval =  9.0
     Generated by new atomic code, or converted to UPF format
     Using radial grid of  819 points,  5 beta functions with: 
                l(1) =   0
                l(2) =   0
                l(3) =   1
                l(4) =   1
                l(5) =   2
     Q(r) pseudized with  8 coefficients,  rinner =    1.250   1.250   1.250
                                                       1.250   1.250

     Mode symmetry, C_3v (3m)   point group:


     Atomic displacements:
     There are   2 irreducible representations

     Representation     1      1 modes -A_1  L_1  To be done

     Representation     2      2 modes -E    L_3  To be done



     Alpha used in Ewald sum =   2.8000
     PHONON       : 17m58.74s CPU    19m23.55s WALL



     Representation #  1 mode #   1

     Self-consistent Calculation

      iter #   1 total cpu time :  1186.1 secs   av.it.:   5.7
      thresh= 1.000E-02 alpha_mix =  0.700 |ddv_scf|^2 =  5.193E-04

      iter #   2 total cpu time :  1208.3 secs   av.it.:   6.7
      thresh= 2.279E-03 alpha_mix =  0.700 |ddv_scf|^2 =  3.220E-03

      iter #   3 total cpu time :  1228.1 secs   av.it.:   5.8
      thresh= 5.674E-03 alpha_mix =  0.700 |ddv_scf|^2 =  5.761E-07

      iter #   4 total cpu time :  1252.5 secs   av.it.:   7.8
      thresh= 7.590E-05 alpha_mix =  0.700 |ddv_scf|^2 =  8.646E-09

      iter #   5 total cpu time :  1277.8 secs   av.it.:   8.4
      thresh= 9.298E-06 alpha_mix =  0.700 |ddv_scf|^2 =  4.013E-10

      iter #   6 total cpu time :  1302.4 secs   av.it.:   8.1
      thresh= 2.003E-06 alpha_mix =  0.700 |ddv_scf|^2 =  1.864E-11

      iter #   7 total cpu time :  1326.6 secs   av.it.:   7.7
      thresh= 4.317E-07 alpha_mix =  0.700 |ddv_scf|^2 =  5.356E-13

      iter #   8 total cpu time :  1351.0 secs   av.it.:   8.1
      thresh= 7.318E-08 alpha_mix =  0.700 |ddv_scf|^2 =  1.681E-15

      iter #   9 total cpu time :  1375.1 secs   av.it.:   7.8
      thresh= 4.100E-09 alpha_mix =  0.700 |ddv_scf|^2 =  3.520E-15

      iter #  10 total cpu time :  1395.3 secs   av.it.:   6.2
      thresh= 5.933E-09 alpha_mix =  0.700 |ddv_scf|^2 =  4.122E-16

      iter #  11 total cpu time :  1418.9 secs   av.it.:   7.5
      thresh= 2.030E-09 alpha_mix =  0.700 |ddv_scf|^2 =  3.006E-17

     End of self-consistent calculation

     Convergence has been achieved 


     Representation #  2 modes #   2  3

     Self-consistent Calculation

      iter #   1 total cpu time :  1462.4 secs   av.it.:   5.6
      thresh= 1.000E-02 alpha_mix =  0.700 |ddv_scf|^2 =  2.597E-06

      iter #   2 total cpu time :  1513.6 secs   av.it.:   8.5
      thresh= 1.611E-04 alpha_mix =  0.700 |ddv_scf|^2 =  4.598E-08

      iter #   3 total cpu time :  1565.3 secs   av.it.:   8.7
      thresh= 2.144E-05 alpha_mix =  0.700 |ddv_scf|^2 =  1.100E-09

      iter #   4 total cpu time :  1615.7 secs   av.it.:   8.4
      thresh= 3.316E-06 alpha_mix =  0.700 |ddv_scf|^2 =  3.896E-12

      iter #   5 total cpu time :  1667.3 secs   av.it.:   8.7
      thresh= 1.974E-07 alpha_mix =  0.700 |ddv_scf|^2 =  6.804E-15

      iter #   6 total cpu time :  1716.7 secs   av.it.:   8.1
      thresh= 8.248E-09 alpha_mix =  0.700 |ddv_scf|^2 =  2.454E-16

      iter #   7 total cpu time :  1768.2 secs   av.it.:   8.6
      thresh= 1.566E-09 alpha_mix =  0.700 |ddv_scf|^2 =  2.753E-19

     End of self-consistent calculation

     Convergence has been achieved 

     Number of q in the star =    8
     List of q in the star:
          1  -0.333333333   0.333333333  -0.333333333
          2   0.333333333   0.333333333   0.333333333
          3  -0.333333333  -0.333333333  -0.333333333
          4   0.333333333  -0.333333333   0.333333333
          5   0.333333333  -0.333333333  -0.333333333
          6   0.333333333   0.333333333  -0.333333333
          7  -0.333333333  -0.333333333   0.333333333
          8  -0.333333333   0.333333333   0.333333333

     Diagonalizing the dynamical matrix

     q = (   -0.333333333   0.333333333  -0.333333333 ) 

 **************************************************************************
     freq (    1) =       1.614124 [THz] =      53.841366 [cm-1]
     freq (    2) =       1.614124 [THz] =      53.841366 [cm-1]
     freq (    3) =       4.235172 [THz] =     141.270121 [cm-1]
 **************************************************************************

     Mode symmetry, C_3v (3m)   point group:

     freq (  1 -  2) =         53.8  [cm-1]   --> E    L_3           
     freq (  3 -  3) =        141.3  [cm-1]   --> A_1  L_1           

     Calculation of q =    0.5000000  -0.5000000   0.5000000

   Info: using nr1, nr2, nr3 values from input

   Info: using nr1, nr2, nr3 values from input

     Parallelization info
     --------------------
     sticks:   dense  smooth     PW     G-vecs:    dense   smooth      PW
     Min          62      31     12                 1300      461     112
     Max          63      32     13                 1303      465     114
     Sum        1003     499    199                20827     7391    1807



     bravais-lattice index     =            2
     lattice parameter (alat)  =       9.5000  a.u.
     unit-cell volume          =     214.3438 (a.u.)^3
     number of atoms/cell      =            1
     number of atomic types    =            1
     number of electrons       =         9.00
     number of Kohn-Sham states=            9
     kinetic-energy cutoff     =      40.0000  Ry
     charge density cutoff     =     320.0000  Ry
     Exchange-correlation      = SLA  PW   PBE  PBE ( 1  4  3  4 0 0)

     celldm(1)=   9.500000  celldm(2)=   0.000000  celldm(3)=   0.000000
     celldm(4)=   0.000000  celldm(5)=   0.000000  celldm(6)=   0.000000

     crystal axes: (cart. coord. in units of alat)
               a(1) = (  -0.500000   0.000000   0.500000 )  
               a(2) = (   0.000000   0.500000   0.500000 )  
               a(3) = (  -0.500000   0.500000   0.000000 )  

     reciprocal axes: (cart. coord. in units 2 pi/alat)
               b(1) = ( -1.000000 -1.000000  1.000000 )  
               b(2) = (  1.000000  1.000000  1.000000 )  
               b(3) = ( -1.000000  1.000000 -1.000000 )  


     PseudoPot. # 1 for Na read from file:
     /home/s1333534/quantum_espresso/qe-6.1/pseudo/Na_pbe_v1.uspp.F.UPF
     MD5 check sum: 76a99c7e9422403d3e93cbc85ab7bccb
     Pseudo is Ultrasoft, Zval =  9.0
     Generated by new atomic code, or converted to UPF format
     Using radial grid of  819 points,  5 beta functions with: 
                l(1) =   0
                l(2) =   0
                l(3) =   1
                l(4) =   1
                l(5) =   2
     Q(r) pseudized with  8 coefficients,  rinner =    1.250   1.250   1.250
                                                       1.250   1.250

     atomic species   valence    mass     pseudopotential
        Na             9.00    22.99000     Na( 1.00)

     48 Sym. Ops., with inversion, found



   Cartesian axes

     site n.     atom                  positions (alat units)
         1           Na  tau(   1) = (   0.0000000   0.0000000   0.0000000  )

     number of k points=  5740  Marzari-Vanderbilt smearing, width (Ry)=  0.0200

     Number of k-points >= 100: set verbosity='high' to print them.

     Dense  grid:    20827 G-vectors     FFT dimensions: (  40,  40,  40)

     Smooth grid:     7391 G-vectors     FFT dimensions: (  27,  27,  27)

     Estimated max dynamical RAM per process >       0.72MB

     Estimated total allocated dynamical RAM >      45.76MB

     The potential is recalculated from file :
     ./_ph0/na.fcc.save/charge-density.dat

     Starting wfc are    5 atomic +    4 random wfc

     Band Structure Calculation
     Davidson diagonalization with overlap

     ethr =  1.11E-10,  avg # of iterations = 18.7

     total cpu time spent up to now is      495.9 secs

     End of band structure calculation

     Number of k-points >= 100: set verbosity='high' to print the bands.

     the Fermi energy is     2.3028 ev

     Writing output data file na.fcc.save

                                                                                

     bravais-lattice index     =            2
     lattice parameter (alat)  =       9.5000  a.u.
     unit-cell volume          =     214.3438 (a.u.)^3
     number of atoms/cell      =            1
     number of atomic types    =            1
     kinetic-energy cut-off    =      40.0000  Ry
     charge density cut-off    =     320.0000  Ry
     convergence threshold     =      1.0E-16
     beta                      =       0.7000
     number of iterations used =            4
     Exchange-correlation      = SLA  PW   PBE  PBE ( 1  4  3  4 0 0)


     celldm(1)=    9.50000  celldm(2)=    0.00000  celldm(3)=    0.00000
     celldm(4)=    0.00000  celldm(5)=    0.00000  celldm(6)=    0.00000

     crystal axes: (cart. coord. in units of alat)
               a(1) = ( -0.5000  0.0000  0.5000 )  
               a(2) = (  0.0000  0.5000  0.5000 )  
               a(3) = ( -0.5000  0.5000  0.0000 )  

     reciprocal axes: (cart. coord. in units 2 pi/alat)
               b(1) = ( -1.0000 -1.0000  1.0000 )  
               b(2) = (  1.0000  1.0000  1.0000 )  
               b(3) = ( -1.0000  1.0000 -1.0000 )  


     Atoms inside the unit cell: 

     Cartesian axes

     site n.  atom      mass           positions (alat units)
        1     Na  22.9900   tau(    1) = (    0.00000    0.00000    0.00000  )

     Computing dynamical matrix for 
                    q = (   0.5000000  -0.5000000   0.5000000 )

     13 Sym.Ops. (with q -> -q+G )


     G cutoff =  731.5389  (   1301 G-vectors)     FFT grid: ( 40, 40, 40)
     G cutoff =  365.7695  (    462 G-vectors)  smooth grid: ( 27, 27, 27)

     number of k points=  5740  Marzari-Vanderbilt smearing, width (Ry)=  0.0200

     PseudoPot. # 1 for Na read from file:
     /home/s1333534/quantum_espresso/qe-6.1/pseudo/Na_pbe_v1.uspp.F.UPF
     MD5 check sum: 76a99c7e9422403d3e93cbc85ab7bccb
     Pseudo is Ultrasoft, Zval =  9.0
     Generated by new atomic code, or converted to UPF format
     Using radial grid of  819 points,  5 beta functions with: 
                l(1) =   0
                l(2) =   0
                l(3) =   1
                l(4) =   1
                l(5) =   2
     Q(r) pseudized with  8 coefficients,  rinner =    1.250   1.250   1.250
                                                       1.250   1.250

     Mode symmetry, D_3d (-3m)  point group:


     Atomic displacements:
     There are   2 irreducible representations

     Representation     1      1 modes -A_2u L_2'  To be done

     Representation     2      2 modes -E_u  L_3'  To be done



     Alpha used in Ewald sum =   2.8000
     PHONON       : 28m56.57s CPU    31m19.55s WALL



     Representation #  1 mode #   1

     Self-consistent Calculation

      iter #   1 total cpu time :  1891.2 secs   av.it.:   5.7
      thresh= 1.000E-02 alpha_mix =  0.700 |ddv_scf|^2 =  1.049E-04

      iter #   2 total cpu time :  1903.7 secs   av.it.:   6.9
      thresh= 1.024E-03 alpha_mix =  0.700 |ddv_scf|^2 =  6.290E-05

      iter #   3 total cpu time :  1915.3 secs   av.it.:   6.8
      thresh= 7.931E-04 alpha_mix =  0.700 |ddv_scf|^2 =  7.435E-08

      iter #   4 total cpu time :  1927.8 secs   av.it.:   7.9
      thresh= 2.727E-05 alpha_mix =  0.700 |ddv_scf|^2 =  2.871E-10

      iter #   5 total cpu time :  1939.7 secs   av.it.:   7.0
      thresh= 1.694E-06 alpha_mix =  0.700 |ddv_scf|^2 =  6.374E-12

      iter #   6 total cpu time :  1951.0 secs   av.it.:   6.7
      thresh= 2.525E-07 alpha_mix =  0.700 |ddv_scf|^2 =  1.620E-14

      iter #   7 total cpu time :  1963.5 secs   av.it.:   7.5
      thresh= 1.273E-08 alpha_mix =  0.700 |ddv_scf|^2 =  2.771E-17

     End of self-consistent calculation

     Convergence has been achieved 


     Representation #  2 modes #   2  3

     Self-consistent Calculation

      iter #   1 total cpu time :  1986.4 secs   av.it.:   5.4
      thresh= 1.000E-02 alpha_mix =  0.700 |ddv_scf|^2 =  2.634E-06

      iter #   2 total cpu time :  2013.3 secs   av.it.:   8.4
      thresh= 1.623E-04 alpha_mix =  0.700 |ddv_scf|^2 =  4.585E-08

      iter #   3 total cpu time :  2039.8 secs   av.it.:   8.6
      thresh= 2.141E-05 alpha_mix =  0.700 |ddv_scf|^2 =  1.189E-09

      iter #   4 total cpu time :  2065.0 secs   av.it.:   7.9
      thresh= 3.448E-06 alpha_mix =  0.700 |ddv_scf|^2 =  4.223E-12

      iter #   5 total cpu time :  2091.7 secs   av.it.:   8.3
      thresh= 2.055E-07 alpha_mix =  0.700 |ddv_scf|^2 =  6.988E-15

      iter #   6 total cpu time :  2116.4 secs   av.it.:   7.8
      thresh= 8.360E-09 alpha_mix =  0.700 |ddv_scf|^2 =  2.736E-16

      iter #   7 total cpu time :  2142.8 secs   av.it.:   8.2
      thresh= 1.654E-09 alpha_mix =  0.700 |ddv_scf|^2 =  2.718E-19

     End of self-consistent calculation

     Convergence has been achieved 

     Number of q in the star =    4
     List of q in the star:
          1   0.500000000  -0.500000000   0.500000000
          2   0.500000000   0.500000000   0.500000000
          3  -0.500000000   0.500000000   0.500000000
          4   0.500000000   0.500000000  -0.500000000

     Diagonalizing the dynamical matrix

     q = (    0.500000000  -0.500000000   0.500000000 ) 

 **************************************************************************
     freq (    1) =       1.881800 [THz] =      62.770094 [cm-1]
     freq (    2) =       1.881800 [THz] =      62.770094 [cm-1]
     freq (    3) =       4.882176 [THz] =     162.851849 [cm-1]
 **************************************************************************

     Mode symmetry, D_3d (-3m)  point group:

     freq (  1 -  2) =         62.8  [cm-1]   --> E_u  L_3'          
     freq (  3 -  3) =        162.9  [cm-1]   --> A_2u L_2'          

     Calculation of q =    0.0000000   0.3333333   0.0000000

   Info: using nr1, nr2, nr3 values from input

   Info: using nr1, nr2, nr3 values from input

     Parallelization info
     --------------------
     sticks:   dense  smooth     PW     G-vecs:    dense   smooth      PW
     Min          62      31     10                 1300      461      91
     Max          63      32     11                 1303      465      94
     Sum        1003     499    169                20827     7391    1471



     bravais-lattice index     =            2
     lattice parameter (alat)  =       9.5000  a.u.
     unit-cell volume          =     214.3438 (a.u.)^3
     number of atoms/cell      =            1
     number of atomic types    =            1
     number of electrons       =         9.00
     number of Kohn-Sham states=            9
     kinetic-energy cutoff     =      40.0000  Ry
     charge density cutoff     =     320.0000  Ry
     Exchange-correlation      = SLA  PW   PBE  PBE ( 1  4  3  4 0 0)

     celldm(1)=   9.500000  celldm(2)=   0.000000  celldm(3)=   0.000000
     celldm(4)=   0.000000  celldm(5)=   0.000000  celldm(6)=   0.000000

     crystal axes: (cart. coord. in units of alat)
               a(1) = (  -0.500000   0.000000   0.500000 )  
               a(2) = (   0.000000   0.500000   0.500000 )  
               a(3) = (  -0.500000   0.500000   0.000000 )  

     reciprocal axes: (cart. coord. in units 2 pi/alat)
               b(1) = ( -1.000000 -1.000000  1.000000 )  
               b(2) = (  1.000000  1.000000  1.000000 )  
               b(3) = ( -1.000000  1.000000 -1.000000 )  


     PseudoPot. # 1 for Na read from file:
     /home/s1333534/quantum_espresso/qe-6.1/pseudo/Na_pbe_v1.uspp.F.UPF
     MD5 check sum: 76a99c7e9422403d3e93cbc85ab7bccb
     Pseudo is Ultrasoft, Zval =  9.0
     Generated by new atomic code, or converted to UPF format
     Using radial grid of  819 points,  5 beta functions with: 
                l(1) =   0
                l(2) =   0
                l(3) =   1
                l(4) =   1
                l(5) =   2
     Q(r) pseudized with  8 coefficients,  rinner =    1.250   1.250   1.250
                                                       1.250   1.250

     atomic species   valence    mass     pseudopotential
        Na             9.00    22.99000     Na( 1.00)

     48 Sym. Ops., with inversion, found



   Cartesian axes

     site n.     atom                  positions (alat units)
         1           Na  tau(   1) = (   0.0000000   0.0000000   0.0000000  )

     number of k points=  8400  Marzari-Vanderbilt smearing, width (Ry)=  0.0200

     Number of k-points >= 100: set verbosity='high' to print them.

     Dense  grid:    20827 G-vectors     FFT dimensions: (  40,  40,  40)

     Smooth grid:     7391 G-vectors     FFT dimensions: (  27,  27,  27)

     Estimated max dynamical RAM per process >       0.72MB

     Estimated total allocated dynamical RAM >      45.76MB

     The potential is recalculated from file :
     ./_ph0/na.fcc.save/charge-density.dat

     Starting wfc are    5 atomic +    4 random wfc

     Band Structure Calculation
     Davidson diagonalization with overlap

     ethr =  1.11E-10,  avg # of iterations = 18.7

     total cpu time spent up to now is      639.6 secs

     End of band structure calculation

     Number of k-points >= 100: set verbosity='high' to print the bands.

     the Fermi energy is     2.3028 ev

     Writing output data file na.fcc.save

                                                                                

     bravais-lattice index     =            2
     lattice parameter (alat)  =       9.5000  a.u.
     unit-cell volume          =     214.3438 (a.u.)^3
     number of atoms/cell      =            1
     number of atomic types    =            1
     kinetic-energy cut-off    =      40.0000  Ry
     charge density cut-off    =     320.0000  Ry
     convergence threshold     =      1.0E-16
     beta                      =       0.7000
     number of iterations used =            4
     Exchange-correlation      = SLA  PW   PBE  PBE ( 1  4  3  4 0 0)


     celldm(1)=    9.50000  celldm(2)=    0.00000  celldm(3)=    0.00000
     celldm(4)=    0.00000  celldm(5)=    0.00000  celldm(6)=    0.00000

     crystal axes: (cart. coord. in units of alat)
               a(1) = ( -0.5000  0.0000  0.5000 )  
               a(2) = (  0.0000  0.5000  0.5000 )  
               a(3) = ( -0.5000  0.5000  0.0000 )  

     reciprocal axes: (cart. coord. in units 2 pi/alat)
               b(1) = ( -1.0000 -1.0000  1.0000 )  
               b(2) = (  1.0000  1.0000  1.0000 )  
               b(3) = ( -1.0000  1.0000 -1.0000 )  


     Atoms inside the unit cell: 

     Cartesian axes

     site n.  atom      mass           positions (alat units)
        1     Na  22.9900   tau(    1) = (    0.00000    0.00000    0.00000  )

     Computing dynamical matrix for 
                    q = (   0.0000000   0.3333333   0.0000000 )

      8 Sym.Ops. (no q -> -q+G )


     G cutoff =  731.5389  (   1302 G-vectors)     FFT grid: ( 40, 40, 40)
     G cutoff =  365.7695  (    462 G-vectors)  smooth grid: ( 27, 27, 27)

     number of k points=  8400  Marzari-Vanderbilt smearing, width (Ry)=  0.0200

     PseudoPot. # 1 for Na read from file:
     /home/s1333534/quantum_espresso/qe-6.1/pseudo/Na_pbe_v1.uspp.F.UPF
     MD5 check sum: 76a99c7e9422403d3e93cbc85ab7bccb
     Pseudo is Ultrasoft, Zval =  9.0
     Generated by new atomic code, or converted to UPF format
     Using radial grid of  819 points,  5 beta functions with: 
                l(1) =   0
                l(2) =   0
                l(3) =   1
                l(4) =   1
                l(5) =   2
     Q(r) pseudized with  8 coefficients,  rinner =    1.250   1.250   1.250
                                                       1.250   1.250

     Mode symmetry, C_4v (4mm)  point group:


     Atomic displacements:
     There are   2 irreducible representations

     Representation     1      1 modes -A_1  G_1 D_1  To be done

     Representation     2      2 modes -E    G_5 D_5  To be done



     Alpha used in Ewald sum =   2.8000
     PHONON       : 35m27.95s CPU    38m20.81s WALL



     Representation #  1 mode #   1

     Self-consistent Calculation

      iter #   1 total cpu time :  2317.5 secs   av.it.:   5.7
      thresh= 1.000E-02 alpha_mix =  0.700 |ddv_scf|^2 =  1.312E-02

      iter #   2 total cpu time :  2332.5 secs   av.it.:   6.3
      thresh= 1.000E-02 alpha_mix =  0.700 |ddv_scf|^2 =  1.107E+00

      iter #   3 total cpu time :  2348.2 secs   av.it.:   6.3
      thresh= 1.000E-02 alpha_mix =  0.700 |ddv_scf|^2 =  1.925E-06

      iter #   4 total cpu time :  2365.4 secs   av.it.:   7.5
      thresh= 1.388E-04 alpha_mix =  0.700 |ddv_scf|^2 =  5.890E-08

      iter #   5 total cpu time :  2383.2 secs   av.it.:   7.6
      thresh= 2.427E-05 alpha_mix =  0.700 |ddv_scf|^2 =  1.540E-09

      iter #   6 total cpu time :  2400.7 secs   av.it.:   7.6
      thresh= 3.924E-06 alpha_mix =  0.700 |ddv_scf|^2 =  4.366E-11

      iter #   7 total cpu time :  2419.4 secs   av.it.:   8.0
      thresh= 6.608E-07 alpha_mix =  0.700 |ddv_scf|^2 =  1.117E-09

      iter #   8 total cpu time :  2433.6 secs   av.it.:   5.8
      thresh= 3.342E-06 alpha_mix =  0.700 |ddv_scf|^2 =  4.755E-11

      iter #   9 total cpu time :  2450.6 secs   av.it.:   6.7
      thresh= 6.896E-07 alpha_mix =  0.700 |ddv_scf|^2 =  1.432E-12

      iter #  10 total cpu time :  2466.3 secs   av.it.:   6.9
      thresh= 1.197E-07 alpha_mix =  0.700 |ddv_scf|^2 =  4.044E-14

      iter #  11 total cpu time :  2483.2 secs   av.it.:   7.5
      thresh= 2.011E-08 alpha_mix =  0.700 |ddv_scf|^2 =  3.204E-16

      iter #  12 total cpu time :  2501.2 secs   av.it.:   7.9
      thresh= 1.790E-09 alpha_mix =  0.700 |ddv_scf|^2 =  8.721E-17

     End of self-consistent calculation

     Convergence has been achieved 


     Representation #  2 modes #   2  3

     Self-consistent Calculation

      iter #   1 total cpu time :  2533.9 secs   av.it.:   5.5
      thresh= 1.000E-02 alpha_mix =  0.700 |ddv_scf|^2 =  2.658E-06

      iter #   2 total cpu time :  2571.3 secs   av.it.:   8.5
      thresh= 1.630E-04 alpha_mix =  0.700 |ddv_scf|^2 =  4.472E-08

      iter #   3 total cpu time :  2609.3 secs   av.it.:   8.6
      thresh= 2.115E-05 alpha_mix =  0.700 |ddv_scf|^2 =  1.399E-09

      iter #   4 total cpu time :  2646.1 secs   av.it.:   8.3
      thresh= 3.740E-06 alpha_mix =  0.700 |ddv_scf|^2 =  4.643E-12

      iter #   5 total cpu time :  2685.1 secs   av.it.:   8.6
      thresh= 2.155E-07 alpha_mix =  0.700 |ddv_scf|^2 =  5.926E-15

      iter #   6 total cpu time :  2721.0 secs   av.it.:   7.9
      thresh= 7.698E-09 alpha_mix =  0.700 |ddv_scf|^2 =  2.557E-16

      iter #   7 total cpu time :  2758.6 secs   av.it.:   8.5
      thresh= 1.599E-09 alpha_mix =  0.700 |ddv_scf|^2 =  1.780E-19

     End of self-consistent calculation

     Convergence has been achieved 

     Number of q in the star =    6
     List of q in the star:
          1   0.000000000   0.333333333   0.000000000
          2   0.333333333   0.000000000   0.000000000
          3   0.000000000   0.000000000   0.333333333
          4   0.000000000  -0.333333333   0.000000000
          5  -0.333333333   0.000000000   0.000000000
          6   0.000000000   0.000000000  -0.333333333

     Diagonalizing the dynamical matrix

     q = (    0.000000000   0.333333333   0.000000000 ) 

 **************************************************************************
     freq (    1) =       1.647370 [THz] =      54.950352 [cm-1]
     freq (    2) =       1.647370 [THz] =      54.950352 [cm-1]
     freq (    3) =       2.274754 [THz] =      75.877614 [cm-1]
 **************************************************************************

     Mode symmetry, C_4v (4mm)  point group:

     freq (  1 -  2) =         55.0  [cm-1]   --> E    G_5 D_5       
     freq (  3 -  3) =         75.9  [cm-1]   --> A_1  G_1 D_1       

     Calculation of q =   -0.1666667   0.5000000  -0.1666667

   Info: using nr1, nr2, nr3 values from input

   Info: using nr1, nr2, nr3 values from input

     Parallelization info
     --------------------
     sticks:   dense  smooth     PW     G-vecs:    dense   smooth      PW
     Min          62      31     11                 1300      461     103
     Max          63      32     12                 1303      465     106
     Sum        1003     499    187                20827     7391    1687



     bravais-lattice index     =            2
     lattice parameter (alat)  =       9.5000  a.u.
     unit-cell volume          =     214.3438 (a.u.)^3
     number of atoms/cell      =            1
     number of atomic types    =            1
     number of electrons       =         9.00
     number of Kohn-Sham states=            9
     kinetic-energy cutoff     =      40.0000  Ry
     charge density cutoff     =     320.0000  Ry
     Exchange-correlation      = SLA  PW   PBE  PBE ( 1  4  3  4 0 0)

     celldm(1)=   9.500000  celldm(2)=   0.000000  celldm(3)=   0.000000
     celldm(4)=   0.000000  celldm(5)=   0.000000  celldm(6)=   0.000000

     crystal axes: (cart. coord. in units of alat)
               a(1) = (  -0.500000   0.000000   0.500000 )  
               a(2) = (   0.000000   0.500000   0.500000 )  
               a(3) = (  -0.500000   0.500000   0.000000 )  

     reciprocal axes: (cart. coord. in units 2 pi/alat)
               b(1) = ( -1.000000 -1.000000  1.000000 )  
               b(2) = (  1.000000  1.000000  1.000000 )  
               b(3) = ( -1.000000  1.000000 -1.000000 )  


     PseudoPot. # 1 for Na read from file:
     /home/s1333534/quantum_espresso/qe-6.1/pseudo/Na_pbe_v1.uspp.F.UPF
     MD5 check sum: 76a99c7e9422403d3e93cbc85ab7bccb
     Pseudo is Ultrasoft, Zval =  9.0
     Generated by new atomic code, or converted to UPF format
     Using radial grid of  819 points,  5 beta functions with: 
                l(1) =   0
                l(2) =   0
                l(3) =   1
                l(4) =   1
                l(5) =   2
     Q(r) pseudized with  8 coefficients,  rinner =    1.250   1.250   1.250
                                                       1.250   1.250

     atomic species   valence    mass     pseudopotential
        Na             9.00    22.99000     Na( 1.00)

     48 Sym. Ops., with inversion, found



   Cartesian axes

     site n.     atom                  positions (alat units)
         1           Na  tau(   1) = (   0.0000000   0.0000000   0.0000000  )

     number of k points= 32800  Marzari-Vanderbilt smearing, width (Ry)=  0.0200

     Number of k-points >= 100: set verbosity='high' to print them.

     Dense  grid:    20827 G-vectors     FFT dimensions: (  40,  40,  40)

     Smooth grid:     7391 G-vectors     FFT dimensions: (  27,  27,  27)

     Estimated max dynamical RAM per process >       0.72MB

     Estimated total allocated dynamical RAM >      45.76MB

     The potential is recalculated from file :
     ./_ph0/na.fcc.save/charge-density.dat

     Starting wfc are    5 atomic +    4 random wfc

     Band Structure Calculation
     Davidson diagonalization with overlap

     ethr =  1.11E-10,  avg # of iterations = 18.6

     total cpu time spent up to now is     1148.7 secs

     End of band structure calculation

     Number of k-points >= 100: set verbosity='high' to print the bands.

     the Fermi energy is     2.3028 ev

     Writing output data file na.fcc.save

                                                                                

     bravais-lattice index     =            2
     lattice parameter (alat)  =       9.5000  a.u.
     unit-cell volume          =     214.3438 (a.u.)^3
     number of atoms/cell      =            1
     number of atomic types    =            1
     kinetic-energy cut-off    =      40.0000  Ry
     charge density cut-off    =     320.0000  Ry
     convergence threshold     =      1.0E-16
     beta                      =       0.7000
     number of iterations used =            4
     Exchange-correlation      = SLA  PW   PBE  PBE ( 1  4  3  4 0 0)


     celldm(1)=    9.50000  celldm(2)=    0.00000  celldm(3)=    0.00000
     celldm(4)=    0.00000  celldm(5)=    0.00000  celldm(6)=    0.00000

     crystal axes: (cart. coord. in units of alat)
               a(1) = ( -0.5000  0.0000  0.5000 )  
               a(2) = (  0.0000  0.5000  0.5000 )  
               a(3) = ( -0.5000  0.5000  0.0000 )  

     reciprocal axes: (cart. coord. in units 2 pi/alat)
               b(1) = ( -1.0000 -1.0000  1.0000 )  
               b(2) = (  1.0000  1.0000  1.0000 )  
               b(3) = ( -1.0000  1.0000 -1.0000 )  


     Atoms inside the unit cell: 

     Cartesian axes

     site n.  atom      mass           positions (alat units)
        1     Na  22.9900   tau(    1) = (    0.00000    0.00000    0.00000  )

     Computing dynamical matrix for 
                    q = (  -0.1666667   0.5000000  -0.1666667 )

      2 Sym.Ops. (no q -> -q+G )


     G cutoff =  731.5389  (   1301 G-vectors)     FFT grid: ( 40, 40, 40)
     G cutoff =  365.7695  (    462 G-vectors)  smooth grid: ( 27, 27, 27)

     number of k points= 32800  Marzari-Vanderbilt smearing, width (Ry)=  0.0200

     PseudoPot. # 1 for Na read from file:
     /home/s1333534/quantum_espresso/qe-6.1/pseudo/Na_pbe_v1.uspp.F.UPF
     MD5 check sum: 76a99c7e9422403d3e93cbc85ab7bccb
     Pseudo is Ultrasoft, Zval =  9.0
     Generated by new atomic code, or converted to UPF format
     Using radial grid of  819 points,  5 beta functions with: 
                l(1) =   0
                l(2) =   0
                l(3) =   1
                l(4) =   1
                l(5) =   2
     Q(r) pseudized with  8 coefficients,  rinner =    1.250   1.250   1.250
                                                       1.250   1.250

     Mode symmetry, C_s (m)     point group:


     Atomic displacements:
     There are   3 irreducible representations

     Representation     1      1 modes -A'  To be done

     Representation     2      1 modes -A'  To be done

     Representation     3      1 modes -A''  To be done



     Alpha used in Ewald sum =   2.8000
     PHONON       : 52m 5.30s CPU    56m10.33s WALL



     Representation #  1 mode #   1

     Self-consistent Calculation

      iter #   1 total cpu time :  3436.6 secs   av.it.:   5.8
      thresh= 1.000E-02 alpha_mix =  0.700 |ddv_scf|^2 =  5.787E-04

      iter #   2 total cpu time :  3502.5 secs   av.it.:   6.9
      thresh= 2.406E-03 alpha_mix =  0.700 |ddv_scf|^2 =  4.558E-03

      iter #   3 total cpu time :  3560.5 secs   av.it.:   5.7
      thresh= 6.751E-03 alpha_mix =  0.700 |ddv_scf|^2 =  6.317E-07

      iter #   4 total cpu time :  3632.7 secs   av.it.:   7.8
      thresh= 7.948E-05 alpha_mix =  0.700 |ddv_scf|^2 =  4.896E-09

      iter #   5 total cpu time :  3709.0 secs   av.it.:   8.4
      thresh= 6.997E-06 alpha_mix =  0.700 |ddv_scf|^2 =  5.753E-10

      iter #   6 total cpu time :  3782.3 secs   av.it.:   8.2
      thresh= 2.399E-06 alpha_mix =  0.700 |ddv_scf|^2 =  2.123E-11

      iter #   7 total cpu time :  3855.6 secs   av.it.:   8.1
      thresh= 4.607E-07 alpha_mix =  0.700 |ddv_scf|^2 =  2.972E-11

      iter #   8 total cpu time :  3921.8 secs   av.it.:   6.8
      thresh= 5.452E-07 alpha_mix =  0.700 |ddv_scf|^2 =  4.648E-12

      iter #   9 total cpu time :  3989.8 secs   av.it.:   7.2
      thresh= 2.156E-07 alpha_mix =  0.700 |ddv_scf|^2 =  1.342E-12

      iter #  10 total cpu time :  4054.2 secs   av.it.:   6.8
      thresh= 1.158E-07 alpha_mix =  0.700 |ddv_scf|^2 =  6.887E-15

      iter #  11 total cpu time :  4129.7 secs   av.it.:   8.4
      thresh= 8.299E-09 alpha_mix =  0.700 |ddv_scf|^2 =  3.987E-16

      iter #  12 total cpu time :  4201.5 secs   av.it.:   8.0
      thresh= 1.997E-09 alpha_mix =  0.700 |ddv_scf|^2 =  4.146E-17

     End of self-consistent calculation

     Convergence has been achieved 


     Representation #  2 mode #   2

     Self-consistent Calculation

      iter #   1 total cpu time :  4269.1 secs   av.it.:   5.7
      thresh= 1.000E-02 alpha_mix =  0.700 |ddv_scf|^2 =  9.795E-05

      iter #   2 total cpu time :  4338.7 secs   av.it.:   7.4
      thresh= 9.897E-04 alpha_mix =  0.700 |ddv_scf|^2 =  6.884E-04

      iter #   3 total cpu time :  4396.9 secs   av.it.:   5.7
      thresh= 2.624E-03 alpha_mix =  0.700 |ddv_scf|^2 =  2.087E-07

      iter #   4 total cpu time :  4471.3 secs   av.it.:   8.2
      thresh= 4.569E-05 alpha_mix =  0.700 |ddv_scf|^2 =  6.244E-09

      iter #   5 total cpu time :  4546.0 secs   av.it.:   8.2
      thresh= 7.902E-06 alpha_mix =  0.700 |ddv_scf|^2 =  1.978E-10

      iter #   6 total cpu time :  4620.2 secs   av.it.:   8.3
      thresh= 1.406E-06 alpha_mix =  0.700 |ddv_scf|^2 =  1.557E-11

      iter #   7 total cpu time :  4694.3 secs   av.it.:   8.2
      thresh= 3.946E-07 alpha_mix =  0.700 |ddv_scf|^2 =  1.191E-12

      iter #   8 total cpu time :  4765.9 secs   av.it.:   7.7
      thresh= 1.091E-07 alpha_mix =  0.700 |ddv_scf|^2 =  4.640E-12

      iter #   9 total cpu time :  4824.5 secs   av.it.:   5.9
      thresh= 2.154E-07 alpha_mix =  0.700 |ddv_scf|^2 =  1.496E-14

      iter #  10 total cpu time :  4894.2 secs   av.it.:   7.5
      thresh= 1.223E-08 alpha_mix =  0.700 |ddv_scf|^2 =  3.645E-15

      iter #  11 total cpu time :  4959.9 secs   av.it.:   7.0
      thresh= 6.037E-09 alpha_mix =  0.700 |ddv_scf|^2 =  1.232E-15

      iter #  12 total cpu time :  5027.3 secs   av.it.:   7.3
      thresh= 3.510E-09 alpha_mix =  0.700 |ddv_scf|^2 =  3.105E-18

     End of self-consistent calculation

     Convergence has been achieved 


     Representation #  3 mode #   3

     Self-consistent Calculation

      iter #   1 total cpu time :  5091.4 secs   av.it.:   5.5
      thresh= 1.000E-02 alpha_mix =  0.700 |ddv_scf|^2 =  1.125E-05

      iter #   2 total cpu time :  5163.1 secs   av.it.:   7.8
      thresh= 3.355E-04 alpha_mix =  0.700 |ddv_scf|^2 =  1.739E-07

      iter #   3 total cpu time :  5235.7 secs   av.it.:   8.0
      thresh= 4.170E-05 alpha_mix =  0.700 |ddv_scf|^2 =  7.842E-09

      iter #   4 total cpu time :  5304.7 secs   av.it.:   7.6
      thresh= 8.856E-06 alpha_mix =  0.700 |ddv_scf|^2 =  2.580E-11

      iter #   5 total cpu time :  5379.4 secs   av.it.:   8.0
      thresh= 5.079E-07 alpha_mix =  0.700 |ddv_scf|^2 =  2.436E-14

      iter #   6 total cpu time :  5445.3 secs   av.it.:   7.1
      thresh= 1.561E-08 alpha_mix =  0.700 |ddv_scf|^2 =  1.408E-15

      iter #   7 total cpu time :  5517.3 secs   av.it.:   7.7
      thresh= 3.752E-09 alpha_mix =  0.700 |ddv_scf|^2 =  1.409E-18

     End of self-consistent calculation

     Convergence has been achieved 

     Number of q in the star =   24
     List of q in the star:
          1  -0.166666667   0.500000000  -0.166666667
          2   0.166666667   0.500000000   0.166666667
          3  -0.166666667   0.500000000   0.166666667
          4   0.166666667   0.500000000  -0.166666667
          5   0.500000000  -0.166666667   0.166666667
          6   0.166666667  -0.166666667   0.500000000
          7  -0.166666667  -0.500000000  -0.166666667
          8   0.166666667  -0.500000000  -0.166666667
          9  -0.166666667  -0.500000000   0.166666667
         10   0.500000000  -0.166666667  -0.166666667
         11  -0.500000000  -0.166666667   0.166666667
         12   0.500000000   0.166666667   0.166666667
         13  -0.166666667   0.166666667  -0.500000000
         14  -0.166666667  -0.166666667   0.500000000
         15   0.166666667   0.166666667   0.500000000
         16   0.166666667  -0.166666667  -0.500000000
         17  -0.500000000   0.166666667  -0.166666667
         18  -0.500000000  -0.166666667  -0.166666667
         19   0.166666667  -0.500000000   0.166666667
         20   0.500000000   0.166666667  -0.166666667
         21   0.166666667   0.166666667  -0.500000000
         22  -0.166666667  -0.166666667  -0.500000000
         23  -0.500000000   0.166666667   0.166666667
         24  -0.166666667   0.166666667   0.500000000

     Diagonalizing the dynamical matrix

     q = (   -0.166666667   0.500000000  -0.166666667 ) 

 **************************************************************************
     freq (    1) =       2.167995 [THz] =      72.316541 [cm-1]
     freq (    2) =       2.222634 [THz] =      74.139095 [cm-1]
     freq (    3) =       3.810552 [THz] =     127.106332 [cm-1]
 **************************************************************************

     Mode symmetry, C_s (m)     point group:

     freq (  1 -  1) =         72.3  [cm-1]   --> A'                 
     freq (  2 -  2) =         74.1  [cm-1]   --> A''                
     freq (  3 -  3) =        127.1  [cm-1]   --> A'                 

     Calculation of q =    0.6666667  -0.3333333   0.6666667

   Info: using nr1, nr2, nr3 values from input

   Info: using nr1, nr2, nr3 values from input

     Parallelization info
     --------------------
     sticks:   dense  smooth     PW     G-vecs:    dense   smooth      PW
     Min          62      31     12                 1300      461     113
     Max          63      32     13                 1303      465     116
     Sum        1003     499    199                20827     7391    1837



     bravais-lattice index     =            2
     lattice parameter (alat)  =       9.5000  a.u.
     unit-cell volume          =     214.3438 (a.u.)^3
     number of atoms/cell      =            1
     number of atomic types    =            1
     number of electrons       =         9.00
     number of Kohn-Sham states=            9
     kinetic-energy cutoff     =      40.0000  Ry
     charge density cutoff     =     320.0000  Ry
     Exchange-correlation      = SLA  PW   PBE  PBE ( 1  4  3  4 0 0)

     celldm(1)=   9.500000  celldm(2)=   0.000000  celldm(3)=   0.000000
     celldm(4)=   0.000000  celldm(5)=   0.000000  celldm(6)=   0.000000

     crystal axes: (cart. coord. in units of alat)
               a(1) = (  -0.500000   0.000000   0.500000 )  
               a(2) = (   0.000000   0.500000   0.500000 )  
               a(3) = (  -0.500000   0.500000   0.000000 )  

     reciprocal axes: (cart. coord. in units 2 pi/alat)
               b(1) = ( -1.000000 -1.000000  1.000000 )  
               b(2) = (  1.000000  1.000000  1.000000 )  
               b(3) = ( -1.000000  1.000000 -1.000000 )  


     PseudoPot. # 1 for Na read from file:
     /home/s1333534/quantum_espresso/qe-6.1/pseudo/Na_pbe_v1.uspp.F.UPF
     MD5 check sum: 76a99c7e9422403d3e93cbc85ab7bccb
     Pseudo is Ultrasoft, Zval =  9.0
     Generated by new atomic code, or converted to UPF format
     Using radial grid of  819 points,  5 beta functions with: 
                l(1) =   0
                l(2) =   0
                l(3) =   1
                l(4) =   1
                l(5) =   2
     Q(r) pseudized with  8 coefficients,  rinner =    1.250   1.250   1.250
                                                       1.250   1.250

     atomic species   valence    mass     pseudopotential
        Na             9.00    22.99000     Na( 1.00)

     48 Sym. Ops., with inversion, found



   Cartesian axes

     site n.     atom                  positions (alat units)
         1           Na  tau(   1) = (   0.0000000   0.0000000   0.0000000  )

     number of k points= 32800  Marzari-Vanderbilt smearing, width (Ry)=  0.0200

     Number of k-points >= 100: set verbosity='high' to print them.

     Dense  grid:    20827 G-vectors     FFT dimensions: (  40,  40,  40)

     Smooth grid:     7391 G-vectors     FFT dimensions: (  27,  27,  27)

     Estimated max dynamical RAM per process >       0.72MB

     Estimated total allocated dynamical RAM >      45.76MB

     The potential is recalculated from file :
     ./_ph0/na.fcc.save/charge-density.dat

     Starting wfc are    5 atomic +    4 random wfc

     Band Structure Calculation
     Davidson diagonalization with overlap

     ethr =  1.11E-10,  avg # of iterations = 18.6

     total cpu time spent up to now is     1763.9 secs

     End of band structure calculation

     Number of k-points >= 100: set verbosity='high' to print the bands.

     the Fermi energy is     2.3028 ev

     Writing output data file na.fcc.save

                                                                                

     bravais-lattice index     =            2
     lattice parameter (alat)  =       9.5000  a.u.
     unit-cell volume          =     214.3438 (a.u.)^3
     number of atoms/cell      =            1
     number of atomic types    =            1
     kinetic-energy cut-off    =      40.0000  Ry
     charge density cut-off    =     320.0000  Ry
     convergence threshold     =      1.0E-16
     beta                      =       0.7000
     number of iterations used =            4
     Exchange-correlation      = SLA  PW   PBE  PBE ( 1  4  3  4 0 0)


     celldm(1)=    9.50000  celldm(2)=    0.00000  celldm(3)=    0.00000
     celldm(4)=    0.00000  celldm(5)=    0.00000  celldm(6)=    0.00000

     crystal axes: (cart. coord. in units of alat)
               a(1) = ( -0.5000  0.0000  0.5000 )  
               a(2) = (  0.0000  0.5000  0.5000 )  
               a(3) = ( -0.5000  0.5000  0.0000 )  

     reciprocal axes: (cart. coord. in units 2 pi/alat)
               b(1) = ( -1.0000 -1.0000  1.0000 )  
               b(2) = (  1.0000  1.0000  1.0000 )  
               b(3) = ( -1.0000  1.0000 -1.0000 )  


     Atoms inside the unit cell: 

     Cartesian axes

     site n.  atom      mass           positions (alat units)
        1     Na  22.9900   tau(    1) = (    0.00000    0.00000    0.00000  )

     Computing dynamical matrix for 
                    q = (   0.6666667  -0.3333333   0.6666667 )

      2 Sym.Ops. (no q -> -q+G )


     G cutoff =  731.5389  (   1301 G-vectors)     FFT grid: ( 40, 40, 40)
     G cutoff =  365.7695  (    462 G-vectors)  smooth grid: ( 27, 27, 27)

     number of k points= 32800  Marzari-Vanderbilt smearing, width (Ry)=  0.0200

     PseudoPot. # 1 for Na read from file:
     /home/s1333534/quantum_espresso/qe-6.1/pseudo/Na_pbe_v1.uspp.F.UPF
     MD5 check sum: 76a99c7e9422403d3e93cbc85ab7bccb
     Pseudo is Ultrasoft, Zval =  9.0
     Generated by new atomic code, or converted to UPF format
     Using radial grid of  819 points,  5 beta functions with: 
                l(1) =   0
                l(2) =   0
                l(3) =   1
                l(4) =   1
                l(5) =   2
     Q(r) pseudized with  8 coefficients,  rinner =    1.250   1.250   1.250
                                                       1.250   1.250

     Mode symmetry, C_s (m)     point group:


     Atomic displacements:
     There are   3 irreducible representations

     Representation     1      1 modes -A'  To be done

     Representation     2      1 modes -A'  To be done

     Representation     3      1 modes -A''  To be done



     Alpha used in Ewald sum =   2.8000
     PHONON       :     1h35m CPU        1h42m WALL



     Representation #  1 mode #   1

     Self-consistent Calculation

      iter #   1 total cpu time :  6232.0 secs   av.it.:   5.8
      thresh= 1.000E-02 alpha_mix =  0.700 |ddv_scf|^2 =  7.120E-05

      iter #   2 total cpu time :  6305.1 secs   av.it.:   7.4
      thresh= 8.438E-04 alpha_mix =  0.700 |ddv_scf|^2 =  4.982E-05

      iter #   3 total cpu time :  6374.5 secs   av.it.:   7.1
      thresh= 7.059E-04 alpha_mix =  0.700 |ddv_scf|^2 =  1.172E-07

      iter #   4 total cpu time :  6452.4 secs   av.it.:   8.3
      thresh= 3.424E-05 alpha_mix =  0.700 |ddv_scf|^2 =  8.905E-09

      iter #   5 total cpu time :  6531.3 secs   av.it.:   8.2
      thresh= 9.437E-06 alpha_mix =  0.700 |ddv_scf|^2 =  4.949E-10

      iter #   6 total cpu time :  6607.4 secs   av.it.:   8.0
      thresh= 2.225E-06 alpha_mix =  0.700 |ddv_scf|^2 =  7.101E-12

      iter #   7 total cpu time :  6686.4 secs   av.it.:   8.3
      thresh= 2.665E-07 alpha_mix =  0.700 |ddv_scf|^2 =  2.996E-13

      iter #   8 total cpu time :  6766.1 secs   av.it.:   8.3
      thresh= 5.474E-08 alpha_mix =  0.700 |ddv_scf|^2 =  2.483E-14

      iter #   9 total cpu time :  6845.0 secs   av.it.:   8.2
      thresh= 1.576E-08 alpha_mix =  0.700 |ddv_scf|^2 =  1.229E-15

      iter #  10 total cpu time :  6918.0 secs   av.it.:   7.5
      thresh= 3.506E-09 alpha_mix =  0.700 |ddv_scf|^2 =  7.808E-17

     End of self-consistent calculation

     Convergence has been achieved 


     Representation #  2 mode #   2

     Self-consistent Calculation

      iter #   1 total cpu time :  6991.8 secs   av.it.:   5.8
      thresh= 1.000E-02 alpha_mix =  0.700 |ddv_scf|^2 =  3.711E-05

      iter #   2 total cpu time :  7068.4 secs   av.it.:   7.8
      thresh= 6.092E-04 alpha_mix =  0.700 |ddv_scf|^2 =  1.555E-05

      iter #   3 total cpu time :  7140.7 secs   av.it.:   7.3
      thresh= 3.943E-04 alpha_mix =  0.700 |ddv_scf|^2 =  4.498E-07

      iter #   4 total cpu time :  7216.3 secs   av.it.:   7.7
      thresh= 6.707E-05 alpha_mix =  0.700 |ddv_scf|^2 =  1.417E-08

      iter #   5 total cpu time :  7294.3 secs   av.it.:   8.2
      thresh= 1.190E-05 alpha_mix =  0.700 |ddv_scf|^2 =  3.812E-10

      iter #   6 total cpu time :  7371.2 secs   av.it.:   8.1
      thresh= 1.952E-06 alpha_mix =  0.700 |ddv_scf|^2 =  1.698E-11

      iter #   7 total cpu time :  7449.1 secs   av.it.:   8.3
      thresh= 4.121E-07 alpha_mix =  0.700 |ddv_scf|^2 =  1.006E-12

      iter #   8 total cpu time :  7527.6 secs   av.it.:   8.4
      thresh= 1.003E-07 alpha_mix =  0.700 |ddv_scf|^2 =  2.944E-14

      iter #   9 total cpu time :  7605.6 secs   av.it.:   8.1
      thresh= 1.716E-08 alpha_mix =  0.700 |ddv_scf|^2 =  5.999E-15

      iter #  10 total cpu time :  7679.8 secs   av.it.:   7.7
      thresh= 7.745E-09 alpha_mix =  0.700 |ddv_scf|^2 =  1.307E-16

      iter #  11 total cpu time :  7758.2 secs   av.it.:   8.2
      thresh= 1.143E-09 alpha_mix =  0.700 |ddv_scf|^2 =  4.677E-18

     End of self-consistent calculation

     Convergence has been achieved 


     Representation #  3 mode #   3

     Self-consistent Calculation

      iter #   1 total cpu time :  7826.5 secs   av.it.:   5.5
      thresh= 1.000E-02 alpha_mix =  0.700 |ddv_scf|^2 =  1.123E-05

      iter #   2 total cpu time :  7901.6 secs   av.it.:   7.8
      thresh= 3.352E-04 alpha_mix =  0.700 |ddv_scf|^2 =  1.755E-07

      iter #   3 total cpu time :  7979.1 secs   av.it.:   8.0
      thresh= 4.189E-05 alpha_mix =  0.700 |ddv_scf|^2 =  7.653E-09

      iter #   4 total cpu time :  8052.6 secs   av.it.:   7.6
      thresh= 8.748E-06 alpha_mix =  0.700 |ddv_scf|^2 =  2.601E-11

      iter #   5 total cpu time :  8128.6 secs   av.it.:   8.0
      thresh= 5.100E-07 alpha_mix =  0.700 |ddv_scf|^2 =  2.609E-14

      iter #   6 total cpu time :  8198.0 secs   av.it.:   7.0
      thresh= 1.615E-08 alpha_mix =  0.700 |ddv_scf|^2 =  1.493E-15

      iter #   7 total cpu time :  8273.3 secs   av.it.:   7.7
      thresh= 3.864E-09 alpha_mix =  0.700 |ddv_scf|^2 =  1.553E-18

     End of self-consistent calculation

     Convergence has been achieved 

     Number of q in the star =   24
     List of q in the star:
          1   0.666666667  -0.333333333   0.666666667
          2  -0.666666667  -0.333333333  -0.666666667
          3   0.666666667  -0.333333333  -0.666666667
          4  -0.666666667  -0.333333333   0.666666667
          5  -0.333333333   0.666666667  -0.666666667
          6  -0.666666667   0.666666667  -0.333333333
          7   0.666666667   0.333333333   0.666666667
          8  -0.666666667   0.333333333   0.666666667
          9   0.666666667   0.333333333  -0.666666667
         10  -0.333333333   0.666666667   0.666666667
         11   0.333333333   0.666666667  -0.666666667
         12  -0.333333333  -0.666666667  -0.666666667
         13   0.666666667  -0.666666667   0.333333333
         14   0.666666667   0.666666667  -0.333333333
         15  -0.666666667  -0.666666667  -0.333333333
         16  -0.666666667   0.666666667   0.333333333
         17   0.333333333  -0.666666667   0.666666667
         18   0.333333333   0.666666667   0.666666667
         19  -0.666666667   0.333333333  -0.666666667
         20  -0.333333333  -0.666666667   0.666666667
         21  -0.666666667  -0.666666667   0.333333333
         22   0.666666667   0.666666667   0.333333333
         23   0.333333333  -0.666666667  -0.666666667
         24   0.666666667  -0.666666667  -0.333333333

     Diagonalizing the dynamical matrix

     q = (    0.666666667  -0.333333333   0.666666667 ) 

 **************************************************************************
     freq (    1) =       2.329658 [THz] =      77.709037 [cm-1]
     freq (    2) =       2.774802 [THz] =      92.557425 [cm-1]
     freq (    3) =       4.686062 [THz] =     156.310211 [cm-1]
 **************************************************************************

     Mode symmetry, C_s (m)     point group:

     freq (  1 -  1) =         77.7  [cm-1]   --> A''                
     freq (  2 -  2) =         92.6  [cm-1]   --> A'                 
     freq (  3 -  3) =        156.3  [cm-1]   --> A'                 

     Calculation of q =    0.5000000  -0.1666667   0.5000000

   Info: using nr1, nr2, nr3 values from input

   Info: using nr1, nr2, nr3 values from input

     Parallelization info
     --------------------
     sticks:   dense  smooth     PW     G-vecs:    dense   smooth      PW
     Min          62      31     12                 1300      461     109
     Max          63      32     14                 1303      465     110
     Sum        1003     499    199                20827     7391    1759



     bravais-lattice index     =            2
     lattice parameter (alat)  =       9.5000  a.u.
     unit-cell volume          =     214.3438 (a.u.)^3
     number of atoms/cell      =            1
     number of atomic types    =            1
     number of electrons       =         9.00
     number of Kohn-Sham states=            9
     kinetic-energy cutoff     =      40.0000  Ry
     charge density cutoff     =     320.0000  Ry
     Exchange-correlation      = SLA  PW   PBE  PBE ( 1  4  3  4 0 0)

     celldm(1)=   9.500000  celldm(2)=   0.000000  celldm(3)=   0.000000
     celldm(4)=   0.000000  celldm(5)=   0.000000  celldm(6)=   0.000000

     crystal axes: (cart. coord. in units of alat)
               a(1) = (  -0.500000   0.000000   0.500000 )  
               a(2) = (   0.000000   0.500000   0.500000 )  
               a(3) = (  -0.500000   0.500000   0.000000 )  

     reciprocal axes: (cart. coord. in units 2 pi/alat)
               b(1) = ( -1.000000 -1.000000  1.000000 )  
               b(2) = (  1.000000  1.000000  1.000000 )  
               b(3) = ( -1.000000  1.000000 -1.000000 )  


     PseudoPot. # 1 for Na read from file:
     /home/s1333534/quantum_espresso/qe-6.1/pseudo/Na_pbe_v1.uspp.F.UPF
     MD5 check sum: 76a99c7e9422403d3e93cbc85ab7bccb
     Pseudo is Ultrasoft, Zval =  9.0
     Generated by new atomic code, or converted to UPF format
     Using radial grid of  819 points,  5 beta functions with: 
                l(1) =   0
                l(2) =   0
                l(3) =   1
                l(4) =   1
                l(5) =   2
     Q(r) pseudized with  8 coefficients,  rinner =    1.250   1.250   1.250
                                                       1.250   1.250

     atomic species   valence    mass     pseudopotential
        Na             9.00    22.99000     Na( 1.00)

     48 Sym. Ops., with inversion, found



   Cartesian axes

     site n.     atom                  positions (alat units)
         1           Na  tau(   1) = (   0.0000000   0.0000000   0.0000000  )

     number of k points= 32800  Marzari-Vanderbilt smearing, width (Ry)=  0.0200

     Number of k-points >= 100: set verbosity='high' to print them.

     Dense  grid:    20827 G-vectors     FFT dimensions: (  40,  40,  40)

     Smooth grid:     7391 G-vectors     FFT dimensions: (  27,  27,  27)

     Estimated max dynamical RAM per process >       0.72MB

     Estimated total allocated dynamical RAM >      45.76MB

     The potential is recalculated from file :
     ./_ph0/na.fcc.save/charge-density.dat

     Starting wfc are    5 atomic +    4 random wfc

     Band Structure Calculation
     Davidson diagonalization with overlap

     ethr =  1.11E-10,  avg # of iterations = 18.6

     total cpu time spent up to now is     2381.1 secs

     End of band structure calculation

     Number of k-points >= 100: set verbosity='high' to print the bands.

     the Fermi energy is     2.3028 ev

     Writing output data file na.fcc.save

                                                                                

     bravais-lattice index     =            2
     lattice parameter (alat)  =       9.5000  a.u.
     unit-cell volume          =     214.3438 (a.u.)^3
     number of atoms/cell      =            1
     number of atomic types    =            1
     kinetic-energy cut-off    =      40.0000  Ry
     charge density cut-off    =     320.0000  Ry
     convergence threshold     =      1.0E-16
     beta                      =       0.7000
     number of iterations used =            4
     Exchange-correlation      = SLA  PW   PBE  PBE ( 1  4  3  4 0 0)


     celldm(1)=    9.50000  celldm(2)=    0.00000  celldm(3)=    0.00000
     celldm(4)=    0.00000  celldm(5)=    0.00000  celldm(6)=    0.00000

     crystal axes: (cart. coord. in units of alat)
               a(1) = ( -0.5000  0.0000  0.5000 )  
               a(2) = (  0.0000  0.5000  0.5000 )  
               a(3) = ( -0.5000  0.5000  0.0000 )  

     reciprocal axes: (cart. coord. in units 2 pi/alat)
               b(1) = ( -1.0000 -1.0000  1.0000 )  
               b(2) = (  1.0000  1.0000  1.0000 )  
               b(3) = ( -1.0000  1.0000 -1.0000 )  


     Atoms inside the unit cell: 

     Cartesian axes

     site n.  atom      mass           positions (alat units)
        1     Na  22.9900   tau(    1) = (    0.00000    0.00000    0.00000  )

     Computing dynamical matrix for 
                    q = (   0.5000000  -0.1666667   0.5000000 )

      2 Sym.Ops. (no q -> -q+G )


     G cutoff =  731.5389  (   1302 G-vectors)     FFT grid: ( 40, 40, 40)
     G cutoff =  365.7695  (    462 G-vectors)  smooth grid: ( 27, 27, 27)

     number of k points= 32800  Marzari-Vanderbilt smearing, width (Ry)=  0.0200

     PseudoPot. # 1 for Na read from file:
     /home/s1333534/quantum_espresso/qe-6.1/pseudo/Na_pbe_v1.uspp.F.UPF
     MD5 check sum: 76a99c7e9422403d3e93cbc85ab7bccb
     Pseudo is Ultrasoft, Zval =  9.0
     Generated by new atomic code, or converted to UPF format
     Using radial grid of  819 points,  5 beta functions with: 
                l(1) =   0
                l(2) =   0
                l(3) =   1
                l(4) =   1
                l(5) =   2
     Q(r) pseudized with  8 coefficients,  rinner =    1.250   1.250   1.250
                                                       1.250   1.250

     Mode symmetry, C_s (m)     point group:


     Atomic displacements:
     There are   3 irreducible representations

     Representation     1      1 modes -A'  To be done

     Representation     2      1 modes -A'  To be done

     Representation     3      1 modes -A''  To be done



     Alpha used in Ewald sum =   2.8000
     PHONON       :     2h17m CPU        2h28m WALL



     Representation #  1 mode #   1

     Self-consistent Calculation

      iter #   1 total cpu time :  8989.4 secs   av.it.:   5.8
      thresh= 1.000E-02 alpha_mix =  0.700 |ddv_scf|^2 =  5.585E-05

      iter #   2 total cpu time :  9065.1 secs   av.it.:   7.6
      thresh= 7.473E-04 alpha_mix =  0.700 |ddv_scf|^2 =  6.782E-05

      iter #   3 total cpu time :  9135.3 secs   av.it.:   6.8
[...]

      iter #   4 total cpu time : 21946.8 secs   av.it.:   8.3
      thresh= 1.837E-05 alpha_mix =  0.700 |ddv_scf|^2 =  1.040E-09

      iter #   5 total cpu time : 22019.2 secs   av.it.:   7.8
      thresh= 3.224E-06 alpha_mix =  0.700 |ddv_scf|^2 =  3.134E-11

      iter #   6 total cpu time : 22090.6 secs   av.it.:   7.5
      thresh= 5.598E-07 alpha_mix =  0.700 |ddv_scf|^2 =  5.691E-14

      iter #   7 total cpu time : 22164.7 secs   av.it.:   8.0
      thresh= 2.386E-08 alpha_mix =  0.700 |ddv_scf|^2 =  4.219E-15

      iter #   8 total cpu time : 22238.9 secs   av.it.:   7.9
      thresh= 6.495E-09 alpha_mix =  0.700 |ddv_scf|^2 =  1.270E-17

     End of self-consistent calculation

     Convergence has been achieved 

     Number of q in the star =   24
     List of q in the star:
          1   0.500000000  -0.166666667   0.833333333
          2   0.833333333   0.166666667   0.500000000
          3   0.500000000   0.166666667   0.833333333
          4  -0.833333333  -0.166666667   0.500000000
          5  -0.833333333  -0.166666667  -0.500000000
          6  -0.500000000  -0.166666667  -0.833333333
          7   0.833333333  -0.166666667   0.500000000
          8  -0.500000000  -0.166666667   0.833333333
          9  -0.833333333   0.166666667   0.500000000
         10   0.833333333   0.166666667  -0.500000000
         11   0.833333333  -0.166666667  -0.500000000
         12   0.500000000   0.166666667  -0.833333333
         13  -0.500000000   0.166666667   0.833333333
         14  -0.500000000   0.166666667  -0.833333333
         15  -0.833333333   0.166666667  -0.500000000
         16   0.833333333  -0.500000000   0.166666667
         17   0.833333333   0.500000000  -0.166666667
         18  -0.833333333  -0.500000000  -0.166666667
         19  -0.833333333   0.500000000   0.166666667
         20   0.166666667  -0.500000000   0.833333333
         21  -0.166666667   0.500000000   0.833333333
         22   0.166666667   0.500000000  -0.833333333
         23  -0.166666667  -0.500000000  -0.833333333
         24  -0.500000000   0.833333333   0.166666667

     Diagonalizing the dynamical matrix

     q = (    0.500000000  -0.166666667   0.833333333 ) 

 **************************************************************************
     freq (    1) =       2.757216 [THz] =      91.970816 [cm-1]
     freq (    2) =       3.785578 [THz] =     126.273290 [cm-1]
     freq (    3) =       4.465767 [THz] =     148.961964 [cm-1]
 **************************************************************************

     Mode symmetry, C_2  (2)    point group:

     freq (  1 -  1) =         92.0  [cm-1]   --> B                  
     freq (  2 -  2) =        126.3  [cm-1]   --> A                  
     freq (  3 -  3) =        149.0  [cm-1]   --> B                  

     Calculation of q =   -0.3333333  -1.0000000   0.0000000

   Info: using nr1, nr2, nr3 values from input

   Info: using nr1, nr2, nr3 values from input

     Parallelization info
     --------------------
     sticks:   dense  smooth     PW     G-vecs:    dense   smooth      PW
     Min          62      31     12                 1300      461     113
     Max          63      32     13                 1303      465     116
     Sum        1003     499    199                20827     7391    1837



     bravais-lattice index     =            2
     lattice parameter (alat)  =       9.5000  a.u.
     unit-cell volume          =     214.3438 (a.u.)^3
     number of atoms/cell      =            1
     number of atomic types    =            1
     number of electrons       =         9.00
     number of Kohn-Sham states=            9
     kinetic-energy cutoff     =      40.0000  Ry
     charge density cutoff     =     320.0000  Ry
     Exchange-correlation      = SLA  PW   PBE  PBE ( 1  4  3  4 0 0)

     celldm(1)=   9.500000  celldm(2)=   0.000000  celldm(3)=   0.000000
     celldm(4)=   0.000000  celldm(5)=   0.000000  celldm(6)=   0.000000

     crystal axes: (cart. coord. in units of alat)
               a(1) = (  -0.500000   0.000000   0.500000 )  
               a(2) = (   0.000000   0.500000   0.500000 )  
               a(3) = (  -0.500000   0.500000   0.000000 )  

     reciprocal axes: (cart. coord. in units 2 pi/alat)
               b(1) = ( -1.000000 -1.000000  1.000000 )  
               b(2) = (  1.000000  1.000000  1.000000 )  
               b(3) = ( -1.000000  1.000000 -1.000000 )  


     PseudoPot. # 1 for Na read from file:
     /home/s1333534/quantum_espresso/qe-6.1/pseudo/Na_pbe_v1.uspp.F.UPF
     MD5 check sum: 76a99c7e9422403d3e93cbc85ab7bccb
     Pseudo is Ultrasoft, Zval =  9.0
     Generated by new atomic code, or converted to UPF format
     Using radial grid of  819 points,  5 beta functions with: 
                l(1) =   0
                l(2) =   0
                l(3) =   1
                l(4) =   1
                l(5) =   2
     Q(r) pseudized with  8 coefficients,  rinner =    1.250   1.250   1.250
                                                       1.250   1.250

     atomic species   valence    mass     pseudopotential
        Na             9.00    22.99000     Na( 1.00)

     48 Sym. Ops., with inversion, found



   Cartesian axes

     site n.     atom                  positions (alat units)
         1           Na  tau(   1) = (   0.0000000   0.0000000   0.0000000  )

     number of k points= 16000  Marzari-Vanderbilt smearing, width (Ry)=  0.0200

     Number of k-points >= 100: set verbosity='high' to print them.

     Dense  grid:    20827 G-vectors     FFT dimensions: (  40,  40,  40)

     Smooth grid:     7391 G-vectors     FFT dimensions: (  27,  27,  27)

     Estimated max dynamical RAM per process >       0.72MB

     Estimated total allocated dynamical RAM >      45.76MB

     The potential is recalculated from file :
     ./_ph0/na.fcc.save/charge-density.dat

     Starting wfc are    5 atomic +    4 random wfc

     Band Structure Calculation
     Davidson diagonalization with overlap

     ethr =  1.11E-10,  avg # of iterations = 18.6

     total cpu time spent up to now is     5381.9 secs

     End of band structure calculation

     Number of k-points >= 100: set verbosity='high' to print the bands.

     the Fermi energy is     2.3028 ev

     Writing output data file na.fcc.save

                                                                                

     bravais-lattice index     =            2
     lattice parameter (alat)  =       9.5000  a.u.
     unit-cell volume          =     214.3438 (a.u.)^3
     number of atoms/cell      =            1
     number of atomic types    =            1
     kinetic-energy cut-off    =      40.0000  Ry
     charge density cut-off    =     320.0000  Ry
     convergence threshold     =      1.0E-16
     beta                      =       0.7000
     number of iterations used =            4
     Exchange-correlation      = SLA  PW   PBE  PBE ( 1  4  3  4 0 0)


     celldm(1)=    9.50000  celldm(2)=    0.00000  celldm(3)=    0.00000
     celldm(4)=    0.00000  celldm(5)=    0.00000  celldm(6)=    0.00000

     crystal axes: (cart. coord. in units of alat)
               a(1) = ( -0.5000  0.0000  0.5000 )  
               a(2) = (  0.0000  0.5000  0.5000 )  
               a(3) = ( -0.5000  0.5000  0.0000 )  

     reciprocal axes: (cart. coord. in units 2 pi/alat)
               b(1) = ( -1.0000 -1.0000  1.0000 )  
               b(2) = (  1.0000  1.0000  1.0000 )  
               b(3) = ( -1.0000  1.0000 -1.0000 )  


     Atoms inside the unit cell: 

     Cartesian axes

     site n.  atom      mass           positions (alat units)
        1     Na  22.9900   tau(    1) = (    0.00000    0.00000    0.00000  )

     Computing dynamical matrix for 
                    q = (  -0.3333333  -1.0000000   0.0000000 )

      4 Sym.Ops. (no q -> -q+G )


     G cutoff =  731.5389  (   1301 G-vectors)     FFT grid: ( 40, 40, 40)
     G cutoff =  365.7695  (    462 G-vectors)  smooth grid: ( 27, 27, 27)

     number of k points= 16000  Marzari-Vanderbilt smearing, width (Ry)=  0.0200

     PseudoPot. # 1 for Na read from file:
     /home/s1333534/quantum_espresso/qe-6.1/pseudo/Na_pbe_v1.uspp.F.UPF
     MD5 check sum: 76a99c7e9422403d3e93cbc85ab7bccb
     Pseudo is Ultrasoft, Zval =  9.0
     Generated by new atomic code, or converted to UPF format
     Using radial grid of  819 points,  5 beta functions with: 
                l(1) =   0
                l(2) =   0
                l(3) =   1
                l(4) =   1
                l(5) =   2
     Q(r) pseudized with  8 coefficients,  rinner =    1.250   1.250   1.250
                                                       1.250   1.250

     Mode symmetry, C_2v (mm2)  point group:


     Atomic displacements:
     There are   3 irreducible representations

     Representation     1      1 modes -A_1  D_1  S_1  To be done

     Representation     2      1 modes -B_1  D_3  S_3  To be done

     Representation     3      1 modes -B_2  D_4  S_4  To be done



     Alpha used in Ewald sum =   2.8000
     PHONON       :     5h46m CPU        6h15m WALL



     Representation #  1 mode #   1

     Self-consistent Calculation

      iter #   1 total cpu time : 22587.8 secs   av.it.:   5.6
      thresh= 1.000E-02 alpha_mix =  0.700 |ddv_scf|^2 =  1.679E-05

      iter #   2 total cpu time : 22625.1 secs   av.it.:   8.0
      thresh= 4.098E-04 alpha_mix =  0.700 |ddv_scf|^2 =  5.401E-07

      iter #   3 total cpu time : 22662.3 secs   av.it.:   7.8
      thresh= 7.349E-05 alpha_mix =  0.700 |ddv_scf|^2 =  1.779E-08

      iter #   4 total cpu time : 22700.3 secs   av.it.:   8.2
      thresh= 1.334E-05 alpha_mix =  0.700 |ddv_scf|^2 =  8.194E-10

      iter #   5 total cpu time : 22737.5 secs   av.it.:   8.1
      thresh= 2.862E-06 alpha_mix =  0.700 |ddv_scf|^2 =  4.539E-11

      iter #   6 total cpu time : 22775.5 secs   av.it.:   8.2
      thresh= 6.737E-07 alpha_mix =  0.700 |ddv_scf|^2 =  3.401E-12

      iter #   7 total cpu time : 22813.2 secs   av.it.:   8.1
      thresh= 1.844E-07 alpha_mix =  0.700 |ddv_scf|^2 =  5.391E-14

      iter #   8 total cpu time : 22851.0 secs   av.it.:   7.9
      thresh= 2.322E-08 alpha_mix =  0.700 |ddv_scf|^2 =  6.615E-16

      iter #   9 total cpu time : 22888.5 secs   av.it.:   8.2
      thresh= 2.572E-09 alpha_mix =  0.700 |ddv_scf|^2 =  3.547E-17

     End of self-consistent calculation

     Convergence has been achieved 


     Representation #  2 mode #   2

     Self-consistent Calculation

      iter #   1 total cpu time : 22922.1 secs   av.it.:   5.6
      thresh= 1.000E-02 alpha_mix =  0.700 |ddv_scf|^2 =  1.868E-05

      iter #   2 total cpu time : 22959.4 secs   av.it.:   7.9
      thresh= 4.322E-04 alpha_mix =  0.700 |ddv_scf|^2 =  3.799E-07

      iter #   3 total cpu time : 22995.9 secs   av.it.:   7.8
      thresh= 6.164E-05 alpha_mix =  0.700 |ddv_scf|^2 =  1.941E-08

      iter #   4 total cpu time : 23033.6 secs   av.it.:   8.0
      thresh= 1.393E-05 alpha_mix =  0.700 |ddv_scf|^2 =  2.010E-10

      iter #   5 total cpu time : 23067.8 secs   av.it.:   7.2
      thresh= 1.418E-06 alpha_mix =  0.700 |ddv_scf|^2 =  1.542E-13

      iter #   6 total cpu time : 23104.3 secs   av.it.:   7.7
      thresh= 3.926E-08 alpha_mix =  0.700 |ddv_scf|^2 =  4.896E-15

      iter #   7 total cpu time : 23141.4 secs   av.it.:   7.7
      thresh= 6.997E-09 alpha_mix =  0.700 |ddv_scf|^2 =  4.480E-17

     End of self-consistent calculation

     Convergence has been achieved 


     Representation #  3 mode #   3

     Self-consistent Calculation

      iter #   1 total cpu time : 23176.0 secs   av.it.:   5.6
      thresh= 1.000E-02 alpha_mix =  0.700 |ddv_scf|^2 =  3.621E-05

      iter #   2 total cpu time : 23212.3 secs   av.it.:   7.6
      thresh= 6.018E-04 alpha_mix =  0.700 |ddv_scf|^2 =  3.632E-06

      iter #   3 total cpu time : 23247.4 secs   av.it.:   7.3
      thresh= 1.906E-04 alpha_mix =  0.700 |ddv_scf|^2 =  3.755E-08

      iter #   4 total cpu time : 23285.8 secs   av.it.:   8.0
      thresh= 1.938E-05 alpha_mix =  0.700 |ddv_scf|^2 =  1.642E-10

      iter #   5 total cpu time : 23322.0 secs   av.it.:   7.2
      thresh= 1.282E-06 alpha_mix =  0.700 |ddv_scf|^2 =  1.862E-13

      iter #   6 total cpu time : 23357.7 secs   av.it.:   7.6
      thresh= 4.315E-08 alpha_mix =  0.700 |ddv_scf|^2 =  9.083E-15

      iter #   7 total cpu time : 23392.6 secs   av.it.:   7.2
      thresh= 9.531E-09 alpha_mix =  0.700 |ddv_scf|^2 =  1.769E-17

     End of self-consistent calculation

     Convergence has been achieved 

     Number of q in the star =   12
     List of q in the star:
          1  -0.333333333  -1.000000000   0.000000000
          2   0.000000000  -1.000000000  -0.333333333
          3   0.000000000  -1.000000000   0.333333333
          4   0.333333333  -1.000000000   0.000000000
          5  -1.000000000   0.000000000  -0.333333333
          6   1.000000000   0.000000000   0.333333333
          7   0.000000000   0.333333333   1.000000000
          8   0.000000000  -0.333333333  -1.000000000
          9  -1.000000000  -0.333333333   0.000000000
         10   1.000000000   0.333333333   0.000000000
         11  -0.333333333   0.000000000   1.000000000
         12   0.333333333   0.000000000   1.000000000

     Diagonalizing the dynamical matrix

     q = (   -0.333333333  -1.000000000   0.000000000 ) 

 **************************************************************************
     freq (    1) =       3.158112 [THz] =     105.343261 [cm-1]
     freq (    2) =       3.780496 [THz] =     126.103773 [cm-1]
     freq (    3) =       4.604865 [THz] =     153.601760 [cm-1]
 **************************************************************************

     Mode symmetry, C_2v (mm2)  point group:

     freq (  1 -  1) =        105.3  [cm-1]   --> A_1  D_1  S_1      
     freq (  2 -  2) =        126.1  [cm-1]   --> B_1  D_3  S_3      
     freq (  3 -  3) =        153.6  [cm-1]   --> B_2  D_4  S_4      

     init_run     :      3.22s CPU      3.41s WALL (      15 calls)
     electrons    :   4278.52s CPU   4530.15s WALL (      15 calls)

     Called by init_run:
     wfcinit      :      0.00s CPU      0.00s WALL (      15 calls)
     potinit      :      0.42s CPU      0.43s WALL (      15 calls)

     Called by electrons:
     c_bands      :   4277.33s CPU   4528.94s WALL (      15 calls)
     v_of_rho     :      0.17s CPU      0.17s WALL (      16 calls)
     newd         :      0.16s CPU      0.16s WALL (      16 calls)

     Called by c_bands:
     init_us_2    :     88.19s CPU     95.36s WALL ( 1264294 calls)
     cegterg      :   3362.77s CPU   3581.02s WALL (   94547 calls)

     Called by sum_band:

     Called by *egterg:
     h_psi        :  12708.76s CPU  13713.18s WALL (11605451 calls)
     s_psi        :    338.97s CPU    373.22s WALL (22584425 calls)
     g_psi        :     10.25s CPU     11.11s WALL ( 1443436 calls)
     cdiaghg      :    917.07s CPU    975.39s WALL ( 1516862 calls)

     Called by h_psi:
     h_psi:pot    :  12624.34s CPU  13619.63s WALL (11605451 calls)
     h_psi:calbec :    717.90s CPU    768.25s WALL (11605451 calls)
     vloc_psi     :  11595.25s CPU  12515.25s WALL (11605451 calls)
     add_vuspsi   :    185.09s CPU    202.32s WALL (11605451 calls)

     General routines
     calbec       :   1343.33s CPU   1445.60s WALL (24639052 calls)
     fft          :      5.08s CPU      5.31s WALL (    6466 calls)
     ffts         :     19.95s CPU     21.97s WALL (  112704 calls)
     fftw         :  12830.66s CPU  13921.18s WALL (******** calls)
     interpolate  :      0.96s CPU      1.29s WALL (     886 calls)
     davcio       :    125.51s CPU    285.73s WALL ( 5131114 calls)

     Parallel routines
     fft_scatter  :   5781.29s CPU   6267.38s WALL (******** calls)

     PHONON       :     5h59m CPU        6h29m WALL

     INITIALIZATION: 
     phq_setup    :      0.68s CPU      0.72s WALL (      16 calls)
     phq_init     :    228.64s CPU    241.92s WALL (      16 calls)

     phq_init     :    228.64s CPU    241.92s WALL (      16 calls)
     init_vloc    :      0.14s CPU      0.14s WALL (      16 calls)
     init_us_1    :      1.41s CPU      1.52s WALL (      16 calls)
     newd         :      0.16s CPU      0.16s WALL (      16 calls)
     dvanqq       :      0.59s CPU      0.60s WALL (      16 calls)
     drho         :    179.50s CPU    189.96s WALL (      16 calls)

     DYNAMICAL MATRIX:
     dynmat0      :     32.63s CPU     34.03s WALL (      16 calls)
     phqscf       :  16170.36s CPU  17713.56s WALL (      16 calls)
     dynmatrix    :      0.12s CPU      0.13s WALL (      16 calls)

     phqscf       :  16170.36s CPU  17713.56s WALL (      16 calls)
     solve_linter :  16117.80s CPU  17657.07s WALL (      40 calls)
     drhodv       :     52.30s CPU     55.71s WALL (      40 calls)

     dynmat0      :     32.63s CPU     34.03s WALL (      16 calls)
     dynmat_us    :     32.51s CPU     33.90s WALL (      16 calls)
     d2ionq       :      0.02s CPU      0.02s WALL (      16 calls)

     dynmat_us    :     32.51s CPU     33.90s WALL (      16 calls)
     addusdynmat  :      0.00s CPU      0.00s WALL (      16 calls)

     phqscf       :  16170.36s CPU  17713.56s WALL (      16 calls)
     solve_linter :  16117.80s CPU  17657.07s WALL (      40 calls)

     solve_linter :  16117.80s CPU  17657.07s WALL (      40 calls)
     dvqpsi_us    :    321.49s CPU    343.68s WALL (  110718 calls)
     ortho        :    205.27s CPU    220.42s WALL (  984932 calls)
     cgsolve      :  12809.24s CPU  13893.36s WALL (  984932 calls)
     incdrhoscf   :   1236.63s CPU   1405.30s WALL (  984932 calls)
     addusddens   :      4.54s CPU      4.59s WALL (     389 calls)
     vpsifft      :   1013.67s CPU   1099.81s WALL (  874214 calls)
     dv_of_drho   :      3.64s CPU      3.72s WALL (     403 calls)
     mix_pot      :      0.69s CPU      2.91s WALL (     349 calls)
     ef_shift     :      0.04s CPU      0.11s WALL (       7 calls)
     localdos     :      0.22s CPU      0.23s WALL (       1 calls)
     psymdvscf    :     25.67s CPU     26.31s WALL (     349 calls)
     newdq        :      4.45s CPU      4.54s WALL (     349 calls)
     adddvscf     :     53.44s CPU     57.30s WALL (  874214 calls)
     drhodvus     :      0.01s CPU      0.01s WALL (      40 calls)

     dvqpsi_us    :    321.49s CPU    343.68s WALL (  110718 calls)
     dvqpsi_us_on :     52.57s CPU     55.12s WALL (  110718 calls)

     cgsolve      :  12809.24s CPU  13893.36s WALL (  984932 calls)
     ch_psi       :  12109.57s CPU  13125.57s WALL ( 9994042 calls)

     ch_psi       :  12109.57s CPU  13125.57s WALL ( 9994042 calls)
     h_psi        :  12708.76s CPU  13713.18s WALL (11605451 calls)
     last         :   1236.94s CPU   1346.96s WALL ( 9994042 calls)

     h_psi        :  12708.76s CPU  13713.18s WALL (11605451 calls)
     add_vuspsi   :    185.09s CPU    202.32s WALL (11605451 calls)

     incdrhoscf   :   1236.63s CPU   1405.30s WALL (  984932 calls)
     addusdbec    :    100.90s CPU    107.17s WALL ( 1095650 calls)

     drhodvus     :      0.01s CPU      0.01s WALL (      40 calls)

      General routines
     calbec       :   1343.33s CPU   1445.60s WALL (24639052 calls)
     fft          :      5.08s CPU      5.31s WALL (    6466 calls)
     ffts         :     19.95s CPU     21.97s WALL (  112704 calls)
     fftw         :  12830.66s CPU  13921.18s WALL (******** calls)
     davcio       :    125.51s CPU    285.73s WALL ( 5131114 calls)
     write_rec    :      1.38s CPU      3.36s WALL (     389 calls)


     PHONON       :     5h59m CPU        6h29m WALL


   This run was terminated on:   1:17:48   2Feb2018            

=------------------------------------------------------------------------------=
   JOB DONE.
=------------------------------------------------------------------------------=
