<PP_INFO>
Generated using Vanderbilt code, version   7  3  6                              
Author: mmc        Generation date:   11   10 2017                              
Automatically converted from original format                                    
    1        The Pseudo was generated with a Scalar-Relativistic Calculation
  1.80000000000E+00    Local Potential cutoff radius
nl pn  l   occ               Rcut            Rcut US             E pseu
3S  3  0  2.00      1.25000000000      1.80000000000     -0.79473152840
3P  3  1  2.00      1.25000000000      1.80000000000     -0.29996307725
</PP_INFO>


<PP_HEADER>
   0                   Version Number
  Si                   Element
   US                  Ultrasoft pseudopotential
    T                  Nonlinear Core Correction
 SLA  PW   PBX  PBC    PBE  Exchange-Correlation functional
    4.00000000000      Z valence
  -13.04196563285      Total energy
   25.00000  200.00000 Suggested cutoff for wfc and rho
    2                  Max angular momentum component
  899                  Number of points in mesh
    2    6             Number of Wavefunctions, Number of Projectors
 Wavefunctions         nl  l   occ
                       3S  0  2.00
                       3P  1  2.00
</PP_HEADER>


<PP_MESH>
  <PP_R>
  0.00000000000E+00  1.09467068474E-06  2.20773876668E-06  3.33951343854E-06
  4.49030908945E-06  5.66044539229E-06  6.85024739243E-06  8.06004559807E-06
  9.29017607207E-06  1.05409805252E-05  1.18128064113E-05  1.31060070233E-05
  1.44209415922E-05  1.57579753858E-05  1.71174798111E-05  1.84998325169E-05
  1.99054174990E-05  2.13346252067E-05  2.27878526514E-05  2.42655035165E-05
  2.57679882704E-05  2.72957242794E-05  2.88491359245E-05  3.04286547189E-05
  3.20347194281E-05  3.36677761914E-05  3.53282786462E-05  3.70166880538E-05
  3.87334734278E-05  4.04791116640E-05  4.22540876731E-05  4.40588945154E-05
  4.58940335378E-05  4.77600145130E-05  4.96573557809E-05  5.15865843930E-05
  5.35482362585E-05  5.55428562934E-05  5.75709985716E-05  5.96332264790E-05
  6.17301128700E-05  6.38622402264E-05  6.60302008196E-05  6.82345968748E-05
  7.04760407384E-05  7.27551550481E-05  7.50725729059E-05  7.74289380538E-05
  7.98249050529E-05  8.22611394651E-05  8.47383180376E-05  8.72571288917E-05
  8.98182717131E-05  9.24224579470E-05  9.50704109951E-05  9.77628664170E-05
  1.00500572134E-04  1.03284288638E-04  1.06114789202E-04  1.08992860093E-04
  1.11919300794E-04  1.14894924224E-04  1.17920556965E-04  1.20997039490E-04
  1.24125226396E-04  1.27305986645E-04  1.30540203801E-04  1.33828776280E-04
  1.37172617594E-04  1.40572656610E-04  1.44029837805E-04  1.47545121529E-04
  1.51119484273E-04  1.54753918938E-04  1.58449435113E-04  1.62207059354E-04
  1.66027835469E-04  1.69912824810E-04  1.73863106565E-04  1.77879778061E-04
  1.81963955065E-04  1.86116772097E-04  1.90339382744E-04  1.94632959981E-04
  1.98998696495E-04  2.03437805019E-04  2.07951518668E-04  2.12541091280E-04
  2.17207797766E-04  2.21952934462E-04  2.26777819494E-04  2.31683793137E-04
  2.36672218194E-04  2.41744480371E-04  2.46901988662E-04  2.52146175741E-04
  2.57478498361E-04  2.62900437757E-04  2.68413500057E-04  2.74019216704E-04
  2.79719144877E-04  2.85514867926E-04  2.91407995811E-04  2.97400165551E-04
  3.03493041675E-04  3.09688316688E-04  3.15987711539E-04  3.22392976102E-04
  3.28905889658E-04  3.35528261390E-04  3.42261930889E-04  3.49108768663E-04
  3.56070676655E-04  3.63149588773E-04  3.70347471426E-04  3.77666324073E-04
  3.85108179776E-04  3.92675105764E-04  4.00369204011E-04  4.08192611815E-04
  4.16147502395E-04  4.24236085494E-04  4.32460607994E-04  4.40823354536E-04
  4.49326648159E-04  4.57972850944E-04  4.66764364669E-04  4.75703631479E-04
  4.84793134561E-04  4.94035398834E-04  5.03432991654E-04  5.12988523524E-04
  5.22704648819E-04  5.32584066526E-04  5.42629520991E-04  5.52843802683E-04
  5.63229748968E-04  5.73790244897E-04  5.84528224010E-04  5.95446669148E-04
  6.06548613281E-04  6.17837140356E-04  6.29315386147E-04  6.40986539128E-04
  6.52853841363E-04  6.64920589399E-04  6.77190135190E-04  6.89665887021E-04
  7.02351310459E-04  7.15249929315E-04  7.28365326621E-04  7.41701145626E-04
  7.55261090812E-04  7.69048928917E-04  7.83068489985E-04  7.97323668427E-04
  8.11818424108E-04  8.26556783442E-04  8.41542840512E-04  8.56780758209E-04
  8.72274769385E-04  8.88029178031E-04  9.04048360475E-04  9.20336766591E-04
  9.36898921041E-04  9.53739424532E-04  9.70862955088E-04  9.88274269355E-04
  1.00597820392E-03  1.02397967666E-03  1.04228368810E-03  1.06089532281E-03
  1.07981975079E-03  1.09906222897E-03  1.11862810259E-03  1.13852280674E-03
  1.15875186787E-03  1.17932090528E-03  1.20023563273E-03  1.22150186000E-03
  1.24312549451E-03  1.26511254297E-03  1.28746911303E-03  1.31020141499E-03
  1.33331576353E-03  1.35681857944E-03  1.38071639145E-03  1.40501583798E-03
  1.42972366903E-03  1.45484674806E-03  1.48039205385E-03  1.50636668250E-03
  1.53277784933E-03  1.55963289096E-03  1.58693926729E-03  1.61470456360E-03
  1.64293649266E-03  1.67164289684E-03  1.70083175034E-03  1.73051116135E-03
  1.76068937435E-03  1.79137477237E-03  1.82257587933E-03  1.85430136239E-03
  1.88656003441E-03  1.91936085633E-03  1.95271293969E-03  1.98662554919E-03
  2.02110810521E-03  2.05617018646E-03  2.09182153263E-03  2.12807204710E-03
  2.16493179969E-03  2.20241102947E-03  2.24052014756E-03  2.27926974008E-03
  2.31867057106E-03  2.35873358541E-03  2.39946991203E-03  2.44089086681E-03
  2.48300795584E-03  2.52583287858E-03  2.56937753112E-03  2.61365400948E-03
  2.65867461296E-03  2.70445184758E-03  2.75099842953E-03  2.79832728872E-03
  2.84645157234E-03  2.89538464858E-03  2.94514011027E-03  2.99573177868E-03
  3.04717370738E-03  3.09948018614E-03  3.15266574486E-03  3.20674515765E-03
  3.26173344692E-03  3.31764588754E-03  3.37449801112E-03  3.43230561026E-03
  3.49108474302E-03  3.55085173730E-03  3.61162319544E-03  3.67341599878E-03
  3.73624731238E-03  3.80013458980E-03  3.86509557792E-03  3.93114832186E-03
  3.99831117004E-03  4.06660277923E-03  4.13604211978E-03  4.20664848082E-03
  4.27844147569E-03  4.35144104735E-03  4.42566747394E-03  4.50114137437E-03
  4.57788371411E-03  4.65591581096E-03  4.73525934101E-03  4.81593634465E-03
  4.89796923266E-03  4.98138079249E-03  5.06619419455E-03  5.15243299867E-03
  5.24012116063E-03  5.32928303880E-03  5.41994340096E-03  5.51212743111E-03
  5.60586073654E-03  5.70116935486E-03  5.79807976131E-03  5.89661887607E-03
  5.99681407175E-03  6.09869318099E-03  6.20228450420E-03  6.30761681741E-03
  6.41471938028E-03  6.52362194420E-03  6.63435476059E-03  6.74694858929E-03
  6.86143470706E-03  6.97784491636E-03  7.09621155409E-03  7.21656750064E-03
  7.33894618900E-03  7.46338161402E-03  7.58990834191E-03  7.71856151979E-03
  7.84937688548E-03  7.98239077743E-03  8.11764014480E-03  8.25516255771E-03
  8.39499621773E-03  8.53717996844E-03  8.68175330624E-03  8.82875639133E-03
  8.97823005882E-03  9.13021583016E-03  9.28475592458E-03  9.44189327089E-03
  9.60167151936E-03  9.76413505386E-03  9.92932900420E-03  1.00972992586E-02
  1.02680924767E-02  1.04417561020E-02  1.06183383755E-02  1.07978883491E-02
  1.09804558988E-02  1.11660917391E-02  1.13548474367E-02  1.15467754249E-02
  1.17419290183E-02  1.19403624274E-02  1.21421307740E-02  1.23472901061E-02
  1.25558974136E-02  1.27680106446E-02  1.29836887205E-02  1.32029915535E-02
  1.34259800623E-02  1.36527161897E-02  1.38832629193E-02  1.41176842934E-02
  1.43560454307E-02  1.45984125439E-02  1.48448529589E-02  1.50954351329E-02
  1.53502286738E-02  1.56093043591E-02  1.58727341559E-02  1.61405912410E-02
  1.64129500207E-02  1.66898861520E-02  1.69714765635E-02  1.72577994764E-02
  1.75489344269E-02  1.78449622875E-02  1.81459652901E-02  1.84520270486E-02
  1.87632325822E-02  1.90796683387E-02  1.94014222192E-02  1.97285836016E-02
  2.00612433664E-02  2.03994939210E-02  2.07434292263E-02  2.10931448219E-02
  2.14487378533E-02  2.18103070987E-02  2.21779529964E-02  2.25517776724E-02
  2.29318849694E-02  2.33183804753E-02  2.37113715523E-02  2.41109673672E-02
  2.45172789214E-02  2.49304190818E-02  2.53505026123E-02  2.57776462053E-02
  2.62119685147E-02  2.66535901883E-02  2.71026339017E-02  2.75592243921E-02
  2.80234884931E-02  2.84955551699E-02  2.89755555554E-02  2.94636229858E-02
  2.99598930388E-02  3.04645035702E-02  3.09775947530E-02  3.14993091156E-02
  3.20297915823E-02  3.25691895125E-02  3.31176527425E-02  3.36753336268E-02
  3.42423870803E-02  3.48189706215E-02  3.54052444161E-02  3.60013713219E-02
  3.66075169334E-02  3.72238496282E-02  3.78505406140E-02  3.84877639756E-02
  3.91356967235E-02  3.97945188432E-02  4.04644133451E-02  4.11455663154E-02
  4.18381669675E-02  4.25424076950E-02  4.32584841248E-02  4.39865951717E-02
  4.47269430934E-02  4.54797335469E-02  4.62451756454E-02  4.70234820168E-02
  4.78148688621E-02  4.86195560163E-02  4.94377670086E-02  5.02697291252E-02
  5.11156734720E-02  5.19758350390E-02  5.28504527654E-02  5.37397696064E-02
  5.46440325999E-02  5.55634929361E-02  5.64984060265E-02  5.74490315752E-02
  5.84156336509E-02  5.93984807604E-02  6.03978459232E-02  6.14140067471E-02
  6.24472455055E-02  6.34978492159E-02  6.45661097193E-02  6.56523237617E-02
  6.67567930761E-02  6.78798244668E-02  6.90217298940E-02  7.01828265611E-02
  7.13634370025E-02  7.25638891729E-02  7.37845165391E-02  7.50256581722E-02
  7.62876588415E-02  7.75708691111E-02  7.88756454364E-02  8.02023502638E-02
  8.15513521307E-02  8.29230257688E-02  8.43177522071E-02  8.57359188789E-02
  8.71779197282E-02  8.86441553202E-02  9.01350329520E-02  9.16509667659E-02
  9.31923778642E-02  9.47596944268E-02  9.63533518293E-02  9.79737927647E-02
  9.96214673658E-02  1.01296833331E-01  1.03000356049E-01  1.04732508734E-01
  1.06493772548E-01  1.08284636744E-01  1.10105598796E-01  1.11957164537E-01
  1.13839848304E-01  1.15754173077E-01  1.17700670624E-01  1.19679881652E-01
  1.21692355954E-01  1.23738652564E-01  1.25819339912E-01  1.27934995978E-01
  1.30086208459E-01  1.32273574928E-01  1.34497703000E-01  1.36759210503E-01
  1.39058725649E-01  1.41396887206E-01  1.43774344679E-01  1.46191758487E-01
  1.48649800151E-01  1.51149152475E-01  1.53690509740E-01  1.56274577894E-01
  1.58902074752E-01  1.61573730190E-01  1.64290286352E-01  1.67052497854E-01
  1.69861131996E-01  1.72716968971E-01  1.75620802085E-01  1.78573437978E-01
  1.81575696846E-01  1.84628412668E-01  1.87732433441E-01  1.90888621412E-01
  1.94097853321E-01  1.97361020642E-01  2.00679029831E-01  2.04052802578E-01
  2.07483276065E-01  2.10971403223E-01  2.14518152999E-01  2.18124510622E-01
  2.21791477884E-01  2.25520073409E-01  2.29311332942E-01  2.33166309635E-01
  2.37086074341E-01  2.41071715907E-01  2.45124341482E-01  2.49245076821E-01
  2.53435066600E-01  2.57695474731E-01  2.62027484690E-01  2.66432299838E-01
  2.70911143766E-01  2.75465260624E-01  2.80095915474E-01  2.84804394640E-01
  2.89592006063E-01  2.94460079665E-01  2.99409967720E-01  3.04443045229E-01
  3.09560710301E-01  3.14764384544E-01  3.20055513455E-01  3.25435566827E-01
  3.30906039153E-01  3.36468450045E-01  3.42124344651E-01  3.47875294091E-01
  3.53722895888E-01  3.59668774412E-01  3.65714581335E-01  3.71861996087E-01
  3.78112726322E-01  3.84468508394E-01  3.90931107840E-01  3.97502319867E-01
  4.04183969855E-01  4.10977913860E-01  4.17886039132E-01  4.24910264641E-01
  4.32052541603E-01  4.39314854032E-01  4.46699219284E-01  4.54207688617E-01
  4.61842347766E-01  4.69605317520E-01  4.77498754308E-01  4.85524850803E-01
  4.93685836527E-01  5.01983978473E-01  5.10421581735E-01  5.19000990144E-01
  5.27724586926E-01  5.36594795358E-01  5.45614079443E-01  5.54784944596E-01
  5.64109938339E-01  5.73591651007E-01  5.83232716472E-01  5.93035812867E-01
  6.03003663340E-01  6.13139036801E-01  6.23444748697E-01  6.33923661792E-01
  6.44578686962E-01  6.55412784006E-01  6.66428962464E-01  6.77630282457E-01
  6.89019855534E-01  7.00600845540E-01  7.12376469489E-01  7.24349998466E-01
  7.36524758526E-01  7.48904131626E-01  7.61491556560E-01  7.74290529917E-01
  7.87304607048E-01  8.00537403060E-01  8.13992593813E-01  8.27673916947E-01
  8.41585172918E-01  8.55730226053E-01  8.70113005624E-01  8.84737506941E-01
  8.99607792458E-01  9.14727992907E-01  9.30102308440E-01  9.45735009799E-01
  9.61630439503E-01  9.77793013049E-01  9.94227220146E-01  1.01093762596E+00
  1.02792887237E+00  1.04520567928E+00  1.06277284592E+00  1.08063525217E+00
  1.09879785991E+00  1.11726571444E+00  1.13604394584E+00  1.15513777040E+00
  1.17455249208E+00  1.19429350399E+00  1.21436628987E+00  1.23477642561E+00
  1.25552958085E+00  1.27663152046E+00  1.29808810625E+00  1.31990529850E+00
  1.34208915770E+00  1.36464584616E+00  1.38758162978E+00  1.41090287976E+00
  1.43461607437E+00  1.45872780077E+00  1.48324475680E+00  1.50817375290E+00
  1.53352171394E+00  1.55929568119E+00  1.58550281425E+00  1.61215039304E+00
  1.63924581985E+00  1.66679662136E+00  1.69481045073E+00  1.72329508978E+00
  1.75225845108E+00  1.78170858020E+00  1.81165365792E+00  1.84210200252E+00
  1.87306207205E+00  1.90454246673E+00  1.93655193134E+00  1.96909935757E+00
  2.00219378661E+00  2.03584441156E+00  2.07006058002E+00  2.10485179672E+00
  2.14022772610E+00  2.17619819504E+00  2.21277319556E+00  2.24996288763E+00
  2.28777760194E+00  2.32622784284E+00  2.36532429119E+00  2.40507780737E+00
  2.44549943428E+00  2.48660040040E+00  2.52839212294E+00  2.57088621098E+00
  2.61409446869E+00  2.65802889867E+00  2.70270170518E+00  2.74812529765E+00
  2.79431229401E+00  2.84127552430E+00  2.88902803415E+00  2.93758308846E+00
  2.98695417505E+00  3.03715500844E+00  3.08819953361E+00  3.14010192994E+00
  3.19287661510E+00  3.24653824904E+00  3.30110173814E+00  3.35658223926E+00
  3.41299516401E+00  3.47035618301E+00  3.52868123025E+00  3.58798650751E+00
  3.64828848885E+00  3.70960392520E+00  3.77194984904E+00  3.83534357908E+00
  3.89980272508E+00  3.96534519279E+00  4.03198918887E+00  4.09975322596E+00
  4.16865612785E+00  4.23871703467E+00  4.30995540824E+00  4.38239103745E+00
  4.45604404378E+00  4.53093488687E+00  4.60708437021E+00  4.68451364692E+00
  4.76324422564E+00  4.84329797648E+00  4.92469713710E+00  5.00746431891E+00
  5.09162251332E+00  5.17719509815E+00  5.26420584412E+00  5.35267892142E+00
  5.44263890650E+00  5.53411078881E+00  5.62711997779E+00  5.72169230993E+00
  5.81785405593E+00  5.91563192800E+00  6.01505308730E+00  6.11614515145E+00
  6.21893620222E+00  6.32345479336E+00  6.42972995847E+00  6.53779121912E+00
  6.64766859301E+00  6.75939260235E+00  6.87299428231E+00  6.98850518963E+00
  7.10595741143E+00  7.22538357406E+00  7.34681685225E+00  7.47029097822E+00
  7.59584025116E+00  7.72349954665E+00  7.85330432644E+00  7.98529064824E+00
  8.11949517578E+00  8.25595518894E+00  8.39470859417E+00  8.53579393498E+00
  8.67925040263E+00  8.82511784707E+00  8.97343678797E+00  9.12424842600E+00
  9.27759465425E+00  9.43351806987E+00  9.59206198593E+00  9.75327044342E+00
  9.91718822351E+00  1.00838608600E+01  1.02533346518E+01  1.04256566762E+01
  1.06008748015E+01  1.07790377004E+01  1.09601948640E+01  1.11443966146E+01
  1.13316941207E+01  1.15221394106E+01  1.17157853870E+01  1.19126858416E+01
  1.21128954703E+01  1.23164698882E+01  1.25234656450E+01  1.27339402409E+01
  1.29479521424E+01  1.31655607986E+01  1.33868266577E+01  1.36118111840E+01
  1.38405768746E+01  1.40731872770E+01  1.43097070066E+01  1.45502017650E+01
  1.47947383577E+01  1.50433847132E+01  1.52962099015E+01  1.55532841534E+01
  1.58146788802E+01  1.60804666930E+01  1.63507214237E+01  1.66255181447E+01
  1.69049331901E+01  1.71890441772E+01  1.74779300273E+01  1.77716709885E+01
  1.80703486573E+01  1.83740460017E+01  1.86828473840E+01  1.89968385844E+01
  1.93161068246E+01  1.96407407923E+01  1.99708306658E+01  2.03064681387E+01
  2.06477464459E+01  2.09947603891E+01  2.13476063632E+01  2.17063823834E+01
  2.20711881119E+01  2.24421248860E+01  2.28192957461E+01  2.32028054642E+01
  2.35927605734E+01  2.39892693970E+01  2.43924420789E+01  2.48023906141E+01
  2.52192288798E+01  2.56430726671E+01  2.60740397131E+01  2.65122497337E+01
  2.69578244567E+01  2.74108876557E+01  2.78715651844E+01  2.83399850120E+01
  2.88162772579E+01  2.93005742287E+01  2.97930104543E+01  3.02937227259E+01
  3.08028501333E+01  3.13205341042E+01  3.18469184429E+01  3.23821493707E+01
  3.29263755663E+01  3.34797482072E+01  3.40424210115E+01  3.46145502808E+01
  3.51962949437E+01  3.57878165995E+01  3.63892795638E+01  3.70008509133E+01
  3.76227005330E+01  3.82550011629E+01  3.88979284460E+01  3.95516609775E+01
  4.02163803539E+01  4.08922712237E+01  4.15795213388E+01  4.22783216064E+01
  4.29888661422E+01  4.37113523241E+01  4.44459808476E+01  4.51929557807E+01
  4.59524846214E+01  4.67247783547E+01  4.75100515116E+01  4.83085222286E+01
  4.91204123084E+01  4.99459472810E+01  5.07853564671E+01  5.16388730414E+01
  5.25067340971E+01  5.33891807126E+01  5.42864580173E+01  5.51988152609E+01
  5.61265058818E+01  5.70697875778E+01  5.80289223775E+01  5.90041767136E+01
  5.99958214963E+01  6.10041321889E+01  6.20293888840E+01  6.30718763819E+01
  6.41318842692E+01  6.52097069992E+01  6.63056439741E+01  6.74199996278E+01
  6.85530835109E+01  6.97052103760E+01  7.08767002659E+01  7.20678786020E+01
  7.32790762747E+01  7.45106297356E+01  7.57628810909E+01  7.70361781962E+01
  7.83308747533E+01  7.96473304085E+01  8.09859108524E+01  8.23469879215E+01
  8.37309397015E+01  8.51381506324E+01  8.65690116150E+01  8.80239201201E+01
  8.95032802982E+01  9.10075030922E+01  9.25370063515E+01  9.40922149479E+01
  9.56735608937E+01  9.72814834620E+01  9.89164293082E+01  1.00578852594E+02
  1.02269215116E+02  1.03987986428E+02  1.05735643979E+02  1.07512673240E+02
  1.09319567842E+02  1.11156829711E+02  1.13024969211E+02  1.14924505280E+02
  1.16855965580E+02  1.18819886639E+02  1.20816814005E+02  1.22847302392E+02
  1.24911915838E+02  1.27011227860E+02  1.29145821612E+02  1.31316290053E+02
  1.33523236104E+02  1.35767272818E+02  1.38049023556E+02  1.40369122150E+02
  1.42728213087E+02  1.45126951687E+02  1.47566004279E+02  1.50046048396E+02
  1.52567772953E+02  1.55131878446E+02  1.57739077143E+02  1.60390093283E+02
  1.63085663276E+02  1.65826535909E+02  1.68613472553E+02  1.71447247375E+02
  1.74328647553E+02  1.77258473494E+02  1.80237539058E+02  1.83266671782E+02
  1.86346713112E+02  1.89478518633E+02  1.92662958313E+02  1.95900916739E+02
  1.99193293363E+02  2.02541002757E+02  2.05944974860E+02
  </PP_R>
  <PP_RAB>
  1.08557376852E-06  1.10381827993E-06  1.12236941463E-06  1.14123232583E-06
  1.16041225334E-06  1.17991452506E-06  1.19974455839E-06  1.21990786182E-06
  1.24041003639E-06  1.26125677727E-06  1.28245387537E-06  1.30400721891E-06
  1.32592279505E-06  1.34820669161E-06  1.37086509870E-06  1.39390431047E-06
  1.41733072683E-06  1.44115085530E-06  1.46537131271E-06  1.48999882713E-06
  1.51504023969E-06  1.54050250651E-06  1.56639270059E-06  1.59271801383E-06
  1.61948575899E-06  1.64670337171E-06  1.67437841262E-06  1.70251856941E-06
  1.73113165898E-06  1.76022562958E-06  1.78980856307E-06  1.81988867711E-06
  1.85047432748E-06  1.88157401040E-06  1.91319636487E-06  1.94535017507E-06
  1.97804437283E-06  2.01128804007E-06  2.04509041138E-06  2.07946087650E-06
  2.11440898302E-06  2.14994443896E-06  2.18607711551E-06  2.22281704976E-06
  2.26017444749E-06  2.29815968599E-06  2.33678331695E-06  2.37605606941E-06
  2.41598885273E-06  2.45659275960E-06  2.49787906914E-06  2.53985925004E-06
  2.58254496374E-06  2.62594806763E-06  2.67008061844E-06  2.71495487547E-06
  2.76058330409E-06  2.80697857916E-06  2.85415358854E-06  2.90212143673E-06
  2.95089544841E-06  3.00048917225E-06  3.05091638460E-06  3.10219109334E-06
  3.15432754178E-06  3.20734021259E-06  3.26124383187E-06  3.31605337318E-06
  3.37178406174E-06  3.42845137868E-06  3.48607106526E-06  3.54465912733E-06
  3.60423183973E-06  3.66480575082E-06  3.72639768707E-06  3.78902475775E-06
  3.85270435967E-06  3.91745418202E-06  3.98329221128E-06  4.05023673620E-06
  4.11830635293E-06  4.18751997013E-06  4.25789681425E-06  4.32945643486E-06
  4.40221871010E-06  4.47620385217E-06  4.55143241299E-06  4.62792528985E-06
  4.70570373128E-06  4.78478934288E-06  4.86520409341E-06  4.94697032080E-06
  5.03011073842E-06  5.11464844137E-06  5.20060691289E-06  5.28801003087E-06
  5.37688207454E-06  5.46724773113E-06  5.55913210280E-06  5.65256071359E-06
  5.74755951647E-06  5.84415490061E-06  5.94237369870E-06  6.04224319436E-06
  6.14379112976E-06  6.24704571331E-06  6.35203562751E-06  6.45879003689E-06
  6.56733859614E-06  6.67771145835E-06  6.78993928334E-06  6.90405324624E-06
  7.02008504610E-06  7.13806691473E-06  7.25803162561E-06  7.38001250307E-06
  7.50404343145E-06  7.63015886459E-06  7.75839383537E-06  7.88878396543E-06
  8.02136547510E-06  8.15617519343E-06  8.29325056841E-06  8.43262967744E-06
  8.57435123783E-06  8.71845461758E-06  8.86497984634E-06  9.01396762650E-06
  9.16545934453E-06  9.31949708241E-06  9.47612362941E-06  9.63538249391E-06
  9.79731791550E-06  9.96197487729E-06  1.01293991184E-05  1.02996371466E-05
  1.04727362513E-05  1.06487445168E-05  1.08277108354E-05  1.10096849210E-05
  1.11947173232E-05  1.13828594411E-05  1.15741635376E-05  1.17686827540E-05
  1.19664711246E-05  1.21675835918E-05  1.23720760217E-05  1.25800052189E-05
  1.27914289428E-05  1.30064059238E-05  1.32249958789E-05  1.34472595290E-05
  1.36732586154E-05  1.39030559171E-05  1.41367152683E-05  1.43743015756E-05
  1.46158808370E-05  1.48615201592E-05  1.51112877771E-05  1.53652530720E-05
  1.56234865916E-05  1.58860600690E-05  1.61530464431E-05  1.64245198784E-05
  1.67005557859E-05  1.69812308440E-05  1.72666230200E-05  1.75568115911E-05
  1.78518771672E-05  1.81519017129E-05  1.84569685702E-05  1.87671624820E-05
  1.90825696151E-05  1.94032775846E-05  1.97293754783E-05  2.00609538809E-05
  2.03981048997E-05  2.07409221899E-05  2.10895009807E-05  2.14439381019E-05
  2.18043320104E-05  2.21707828180E-05  2.25433923190E-05  2.29222640183E-05
  2.33075031606E-05  2.36992167592E-05  2.40975136260E-05  2.45025044014E-05
  2.49143015857E-05  2.53330195695E-05  2.57587746661E-05  2.61916851434E-05
  2.66318712573E-05  2.70794552845E-05  2.75345615567E-05  2.79973164952E-05
  2.84678486462E-05  2.89462887159E-05  2.94327696075E-05  2.99274264578E-05
  3.04303966744E-05  3.09418199747E-05  3.14618384240E-05  3.19905964751E-05
  3.25282410087E-05  3.30749213740E-05  3.36307894301E-05  3.41959995884E-05
  3.47707088554E-05  3.53550768761E-05  3.59492659790E-05  3.65534412201E-05
  3.71677704300E-05  3.77924242596E-05  3.84275762278E-05  3.90734027698E-05
  3.97300832861E-05  4.03978001921E-05  4.10767389690E-05  4.17670882153E-05
  4.24690396991E-05  4.31827884115E-05  4.39085326205E-05  4.46464739265E-05
  4.53968173179E-05  4.61597712282E-05  4.69355475941E-05  4.77243619138E-05
  4.85264333076E-05  4.93419845782E-05  5.01712422729E-05  5.10144367465E-05
  5.18718022249E-05  5.27435768708E-05  5.36300028495E-05  5.45313263960E-05
  5.54477978838E-05  5.63796718942E-05  5.73272072871E-05  5.82906672729E-05
  5.92703194856E-05  6.02664360569E-05  6.12792936925E-05  6.23091737481E-05
  6.33563623082E-05  6.44211502653E-05  6.55038334005E-05  6.66047124662E-05
  6.77240932692E-05  6.88622867558E-05  7.00196090981E-05  7.11963817822E-05
  7.23929316967E-05  7.36095912244E-05  7.48466983341E-05  7.61045966747E-05
  7.73836356703E-05  7.86841706178E-05  8.00065627854E-05  8.13511795127E-05
  8.27183943129E-05  8.41085869767E-05  8.55221436778E-05  8.69594570797E-05
  8.84209264456E-05  8.99069577485E-05  9.14179637845E-05  9.29543642871E-05
  9.45165860441E-05  9.61050630162E-05  9.77202364570E-05  9.93625550363E-05
  1.01032474964E-04  1.02730460118E-04  1.04456982172E-04  1.06212520725E-04
  1.07997563440E-04  1.09812606172E-04  1.11658153112E-04  1.13534716923E-04
  1.15442818886E-04  1.17382989041E-04  1.19355766337E-04  1.21361698779E-04
  1.23401343585E-04  1.25475267336E-04  1.27584046134E-04  1.29728265765E-04
  1.31908521860E-04  1.34125420059E-04  1.36379576182E-04  1.38671616397E-04
  1.41002177397E-04  1.43371906576E-04  1.45781462206E-04  1.48231513624E-04
  1.50722741416E-04  1.53255837605E-04  1.55831505845E-04  1.58450461617E-04
  1.61113432425E-04  1.63821158000E-04  1.66574390505E-04  1.69373894746E-04
  1.72220448380E-04  1.75114842134E-04  1.78057880027E-04  1.81050379587E-04
  1.84093172082E-04  1.87187102754E-04  1.90333031047E-04  1.93531830850E-04
  1.96784390740E-04  2.00091614226E-04  2.03454420002E-04  2.06873742203E-04
  2.10350530663E-04  2.13885751178E-04  2.17480385777E-04  2.21135432993E-04
  2.24851908140E-04  2.28630843596E-04  2.32473289090E-04  2.36380311993E-04
  2.40352997613E-04  2.44392449500E-04  2.48499789750E-04  2.52676159318E-04
  2.56922718332E-04  2.61240646420E-04  2.65631143034E-04  2.70095427785E-04
  2.74634740780E-04  2.79250342969E-04  2.83943516493E-04  2.88715565042E-04
  2.93567814216E-04  2.98501611893E-04  3.03518328603E-04  3.08619357912E-04
  3.13806116804E-04  3.19080046081E-04  3.24442610755E-04  3.29895300463E-04
  3.35439629875E-04  3.41077139119E-04  3.46809394207E-04  3.52637987467E-04
  3.58564537991E-04  3.64590692081E-04  3.70718123708E-04  3.76948534975E-04
  3.83283656592E-04  3.89725248357E-04  3.96275099641E-04  4.02935029889E-04
  4.09706889125E-04  4.16592558466E-04  4.23593950640E-04  4.30713010524E-04
  4.37951715680E-04  4.45312076907E-04  4.52796138797E-04  4.60405980303E-04
  4.68143715320E-04  4.76011493268E-04  4.84011499691E-04  4.92145956866E-04
  5.00417124415E-04  5.08827299939E-04  5.17378819651E-04  5.26074059029E-04
  5.34915433473E-04  5.43905398977E-04  5.53046452811E-04  5.62341134215E-04
  5.71792025107E-04  5.81401750793E-04  5.91172980704E-04  6.01108429133E-04
  6.11210855991E-04  6.21483067573E-04  6.31927917336E-04  6.42548306695E-04
  6.53347185826E-04  6.64327554488E-04  6.75492462854E-04  6.86845012358E-04
  6.98388356560E-04  7.10125702018E-04  7.22060309182E-04  7.34195493297E-04
  7.46534625325E-04  7.59081132883E-04  7.71838501192E-04  7.84810274048E-04
  7.98000054804E-04  8.11411507374E-04  8.25048357246E-04  8.38914392522E-04
  8.53013464969E-04  8.67349491085E-04  8.81926453193E-04  8.96748400541E-04
  9.11819450434E-04  9.27143789371E-04  9.42725674210E-04  9.58569433355E-04
  9.74679467950E-04  9.91060253109E-04  1.00771633916E-03  1.02465235289E-03
  1.04187299886E-03  1.05938306070E-03  1.07718740242E-03  1.09529096980E-03
  1.11369879170E-03  1.13241598155E-03  1.15144773867E-03  1.17079934979E-03
  1.19047619048E-03  1.21048372665E-03  1.23082751609E-03  1.25151320997E-03
  1.27254655446E-03  1.29393339229E-03  1.31567966438E-03  1.33779141150E-03
  1.36027477595E-03  1.38313600325E-03  1.40638144389E-03  1.43001755508E-03
  1.45405090257E-03  1.47848816244E-03  1.50333612297E-03  1.52860168653E-03
  1.55429187151E-03  1.58041381422E-03  1.60697477092E-03  1.63398211985E-03
  1.66144336320E-03  1.68936612928E-03  1.71775817459E-03  1.74662738600E-03
  1.77598178291E-03  1.80582951951E-03  1.83617888704E-03  1.86703831606E-03
  1.89841637884E-03  1.93032179172E-03  1.96276341750E-03  1.99575026796E-03
  2.02929150634E-03  2.06339644984E-03  2.09807457230E-03  2.13333550673E-03
  2.16918904808E-03  2.20564515590E-03  2.24271395710E-03  2.28040574883E-03
  2.31873100126E-03  2.35770036054E-03  2.39732465175E-03  2.43761488189E-03
  2.47858224295E-03  2.52023811502E-03  2.56259406943E-03  2.60566187200E-03
  2.64945348630E-03  2.69398107693E-03  2.73925701297E-03  2.78529387134E-03
  2.83210444037E-03  2.87970172328E-03  2.92809894185E-03  2.97730954007E-03
  3.02734718787E-03  3.07822578490E-03  3.12995946444E-03  3.18256259730E-03
  3.23604979578E-03  3.29043591780E-03  3.34573607095E-03  3.40196561674E-03
  3.45914017486E-03  3.51727562749E-03  3.57638812375E-03  3.63649408414E-03
  3.69761020517E-03  3.75975346392E-03  3.82294112280E-03  3.88719073436E-03
  3.95252014611E-03  4.01894750555E-03  4.08649126513E-03  4.15517018745E-03
  4.22500335044E-03  4.29601015263E-03  4.36821031859E-03  4.44162390441E-03
  4.51627130319E-03  4.59217325083E-03  4.66935083167E-03  4.74782548444E-03
  4.82761900815E-03  4.90875356818E-03  4.99125170243E-03  5.07513632758E-03
  5.16043074546E-03  5.24715864950E-03  5.33534413135E-03  5.42501168755E-03
  5.51618622632E-03  5.60889307451E-03  5.70315798462E-03  5.79900714196E-03
  5.89646717190E-03  5.99556514730E-03  6.09632859602E-03  6.19878550855E-03
  6.30296434580E-03  6.40889404701E-03  6.51660403777E-03  6.62612423823E-03
  6.73748507135E-03  6.85071747144E-03  6.96585289264E-03  7.08292331778E-03
  7.20196126716E-03  7.32299980764E-03  7.44607256183E-03  7.57121371738E-03
  7.69845803654E-03  7.82784086577E-03  7.95939814557E-03  8.09316642048E-03
  8.22918284921E-03  8.36748521499E-03  8.50811193601E-03  8.65110207617E-03
  8.79649535587E-03  8.94433216306E-03  9.09465356448E-03  9.24750131703E-03
  9.40291787941E-03  9.56094642389E-03  9.72163084829E-03  9.88501578822E-03
  1.00511466294E-02  1.02200695204E-02  1.03918313854E-02  1.05664799370E-02
  1.07440636898E-02  1.09246319739E-02  1.11082349482E-02  1.12949236147E-02
  1.14847498327E-02  1.16777663328E-02  1.18740267319E-02  1.20735855482E-02
  1.22764982159E-02  1.24828211009E-02  1.26926115164E-02  1.29059277390E-02
  1.31228290246E-02  1.33433756248E-02  1.35676288040E-02  1.37956508562E-02