
     Program PHONON v.6.1 (svn rev. 13369) starts on 13Feb2018 at 17:52: 7 

     This program is part of the open-source Quantum ESPRESSO suite
     for quantum simulation of materials; please cite
         "P. Giannozzi et al., J. Phys.:Condens. Matter 21 395502 (2009);
          URL http://www.quantum-espresso.org", 
     in publications or presentations arising from this work. More details at
     http://www.quantum-espresso.org/quote

     Parallel version (MPI), running on    64 processors
     K-points division:     npool     =       4
     R & G space division:  proc/nbgrp/npool/nimage =      16

     Reading data from directory:
     ./na.fcc.save

   Info: using nr1, nr2, nr3 values from input

   Info: using nr1, nr2, nr3 values from input

     IMPORTANT: XC functional enforced from input :
     Exchange-correlation      = SLA  PW   PBE  PBE ( 1  4  3  4 0 0)
     Any further DFT definition will be discarded
     Please, verify this is what you really want


     Parallelization info
     --------------------
     sticks:   dense  smooth     PW     G-vecs:    dense   smooth      PW
     Min          60      30     10                 1255      444      87
     Max          62      32     11                 1257      446      90
     Sum         967     499    163                20107     7119    1411



     Dynamical matrices for ( 6, 6, 6)  uniform grid of q-points
     (  16q-points):
       N         xq(1)         xq(2)         xq(3) 
       1   0.000000000   0.000000000   0.000000000
       2  -0.166666667   0.166666667  -0.166666667
       3  -0.333333333   0.333333333  -0.333333333
       4   0.500000000  -0.500000000   0.500000000
       5   0.000000000   0.333333333   0.000000000
       6  -0.166666667   0.500000000  -0.166666667
       7   0.666666667  -0.333333333   0.666666667
       8   0.500000000  -0.166666667   0.500000000
       9   0.333333333   0.000000000   0.333333333
      10   0.000000000   0.666666667   0.000000000
      11   0.833333333  -0.166666667   0.833333333
      12   0.666666667  -0.000000000   0.666666667
      13   0.000000000  -1.000000000   0.000000000
      14   0.666666667  -0.333333333   1.000000000
      15   0.500000000  -0.166666667   0.833333333
      16  -0.333333333  -1.000000000   0.000000000

     Calculation of q =    0.0000000   0.0000000   0.0000000

                                                                                

     bravais-lattice index     =            2
     lattice parameter (alat)  =       9.4000  a.u.
     unit-cell volume          =     207.6460 (a.u.)^3
     number of atoms/cell      =            1
     number of atomic types    =            1
     kinetic-energy cut-off    =      40.0000  Ry
     charge density cut-off    =     320.0000  Ry
     convergence threshold     =      1.0E-16
     beta                      =       0.7000
     number of iterations used =            4
     Exchange-correlation      = SLA  PW   PBE  PBE ( 1  4  3  4 0 0)


     celldm(1)=    9.40000  celldm(2)=    0.00000  celldm(3)=    0.00000
     celldm(4)=    0.00000  celldm(5)=    0.00000  celldm(6)=    0.00000

     crystal axes: (cart. coord. in units of alat)
               a(1) = ( -0.5000  0.0000  0.5000 )  
               a(2) = (  0.0000  0.5000  0.5000 )  
               a(3) = ( -0.5000  0.5000  0.0000 )  

     reciprocal axes: (cart. coord. in units 2 pi/alat)
               b(1) = ( -1.0000 -1.0000  1.0000 )  
               b(2) = (  1.0000  1.0000  1.0000 )  
               b(3) = ( -1.0000  1.0000 -1.0000 )  


     Atoms inside the unit cell: 

     Cartesian axes

     site n.  atom      mass           positions (alat units)
        1     Na  22.9900   tau(    1) = (    0.00000    0.00000    0.00000  )

     Computing dynamical matrix for 
                    q = (   0.0000000   0.0000000   0.0000000 )

     49 Sym.Ops. (with q -> -q+G )


     G cutoff =  716.2192  (   1257 G-vectors)     FFT grid: ( 40, 40, 40)
     G cutoff =  358.1096  (    446 G-vectors)  smooth grid: ( 27, 27, 27)

     number of k points=   770  Marzari-Vanderbilt smearing, width (Ry)=  0.0200

     PseudoPot. # 1 for Na read from file:
     /home/s1333534/quantum_espresso/qe-6.1/pseudo/Na_pbe_v1.uspp.F.UPF
     MD5 check sum: 76a99c7e9422403d3e93cbc85ab7bccb
     Pseudo is Ultrasoft, Zval =  9.0
     Generated by new atomic code, or converted to UPF format
     Using radial grid of  819 points,  5 beta functions with: 
                l(1) =   0
                l(2) =   0
                l(3) =   1
                l(4) =   1
                l(5) =   2
     Q(r) pseudized with  8 coefficients,  rinner =    1.250   1.250   1.250
                                                       1.250   1.250

     Mode symmetry, O_h (m-3m)  point group:


     Atomic displacements:
     There are   1 irreducible representations

     Representation     1      3 modes -T_1u G_15  G_4-  To be done



     Alpha used in Ewald sum =   2.8000
     PHONON       :     7.47s CPU         7.95s WALL



     Representation #  1 modes #   1  2  3

     Self-consistent Calculation

     Pert. #  1: Fermi energy shift (Ry) =    -6.5485E-25    -1.8808E-37
     Pert. #  2: Fermi energy shift (Ry) =     2.7573E-25     1.7241E-37
     Pert. #  3: Fermi energy shift (Ry) =    -3.3604E-25     6.5828E-37

      iter #   1 total cpu time :    17.8 secs   av.it.:   5.4
      thresh= 1.000E-02 alpha_mix =  0.700 |ddv_scf|^2 =  1.124E-06

     Pert. #  1: Fermi energy shift (Ry) =     1.6694E-26    -2.4489E-40
     Pert. #  2: Fermi energy shift (Ry) =    -2.4503E-26     1.3469E-39
     Pert. #  3: Fermi energy shift (Ry) =     1.0703E-25    -2.2041E-39

      iter #   2 total cpu time :    29.2 secs   av.it.:   8.4
      thresh= 1.060E-04 alpha_mix =  0.700 |ddv_scf|^2 =  2.132E-08

     Pert. #  1: Fermi energy shift (Ry) =    -2.1541E-26     1.8367E-40
     Pert. #  2: Fermi energy shift (Ry) =     2.5849E-26    -1.6837E-40
     Pert. #  3: Fermi energy shift (Ry) =     9.6935E-27    -6.4285E-40

      iter #   3 total cpu time :    40.6 secs   av.it.:   8.7
      thresh= 1.460E-05 alpha_mix =  0.700 |ddv_scf|^2 =  3.279E-10

     Pert. #  1: Fermi energy shift (Ry) =    -1.7233E-26     0.0000E+00
     Pert. #  2: Fermi energy shift (Ry) =     8.6165E-27     2.2959E-41
     Pert. #  3: Fermi energy shift (Ry) =     4.6313E-26     2.4872E-41

      iter #   4 total cpu time :    51.7 secs   av.it.:   8.1
      thresh= 1.811E-06 alpha_mix =  0.700 |ddv_scf|^2 =  1.241E-12

     Pert. #  1: Fermi energy shift (Ry) =    -1.2925E-26    -6.6963E-42
     Pert. #  2: Fermi energy shift (Ry) =    -1.7233E-26     4.7831E-43
     Pert. #  3: Fermi energy shift (Ry) =    -2.0464E-26    -6.2180E-42

      iter #   5 total cpu time :    62.8 secs   av.it.:   8.4
      thresh= 1.114E-07 alpha_mix =  0.700 |ddv_scf|^2 =  3.057E-15

     Pert. #  1: Fermi energy shift (Ry) =     3.0158E-26    -6.6963E-42
     Pert. #  2: Fermi energy shift (Ry) =     1.5079E-26     4.7831E-43
     Pert. #  3: Fermi energy shift (Ry) =     9.6935E-27    -6.2180E-42

      iter #   6 total cpu time :    74.1 secs   av.it.:   8.2
      thresh= 5.529E-09 alpha_mix =  0.700 |ddv_scf|^2 =  5.376E-17

     End of self-consistent calculation

     Convergence has been achieved 

     Number of q in the star =    1
     List of q in the star:
          1   0.000000000   0.000000000   0.000000000

     Diagonalizing the dynamical matrix

     q = (    0.000000000   0.000000000   0.000000000 ) 

 **************************************************************************
     freq (    1) =      -0.342070 [THz] =     -11.410216 [cm-1]
     freq (    2) =      -0.342070 [THz] =     -11.410216 [cm-1]
     freq (    3) =      -0.342070 [THz] =     -11.410216 [cm-1]
 **************************************************************************

     Mode symmetry, O_h (m-3m)  point group:

     freq (  1 -  3) =        -11.4  [cm-1]   --> T_1u G_15  G_4- I  

     Calculation of q =   -0.1666667   0.1666667  -0.1666667

   Info: using nr1, nr2, nr3 values from input

   Info: using nr1, nr2, nr3 values from input

     Parallelization info
     --------------------
     sticks:   dense  smooth     PW     G-vecs:    dense   smooth      PW
     Min          60      30     10                 1255      444      90
     Max          62      32     11                 1257      446      94
     Sum         967     499    163                20107     7119    1459



     bravais-lattice index     =            2
     lattice parameter (alat)  =       9.4000  a.u.
     unit-cell volume          =     207.6460 (a.u.)^3
     number of atoms/cell      =            1
     number of atomic types    =            1
     number of electrons       =         9.00
     number of Kohn-Sham states=            9
     kinetic-energy cutoff     =      40.0000  Ry
     charge density cutoff     =     320.0000  Ry
     Exchange-correlation      = SLA  PW   PBE  PBE ( 1  4  3  4 0 0)

     celldm(1)=   9.400000  celldm(2)=   0.000000  celldm(3)=   0.000000
     celldm(4)=   0.000000  celldm(5)=   0.000000  celldm(6)=   0.000000

     crystal axes: (cart. coord. in units of alat)
               a(1) = (  -0.500000   0.000000   0.500000 )  
               a(2) = (   0.000000   0.500000   0.500000 )  
               a(3) = (  -0.500000   0.500000   0.000000 )  

     reciprocal axes: (cart. coord. in units 2 pi/alat)
               b(1) = ( -1.000000 -1.000000  1.000000 )  
               b(2) = (  1.000000  1.000000  1.000000 )  
               b(3) = ( -1.000000  1.000000 -1.000000 )  


     PseudoPot. # 1 for Na read from file:
     /home/s1333534/quantum_espresso/qe-6.1/pseudo/Na_pbe_v1.uspp.F.UPF
     MD5 check sum: 76a99c7e9422403d3e93cbc85ab7bccb
     Pseudo is Ultrasoft, Zval =  9.0
     Generated by new atomic code, or converted to UPF format
     Using radial grid of  819 points,  5 beta functions with: 
                l(1) =   0
                l(2) =   0
                l(3) =   1
                l(4) =   1
                l(5) =   2
     Q(r) pseudized with  8 coefficients,  rinner =    1.250   1.250   1.250
                                                       1.250   1.250

     atomic species   valence    mass     pseudopotential
        Na             9.00    22.99000     Na( 1.00)

     48 Sym. Ops., with inversion, found



   Cartesian axes

     site n.     atom                  positions (alat units)
         1           Na  tau(   1) = (   0.0000000   0.0000000   0.0000000  )

     number of k points= 11480  Marzari-Vanderbilt smearing, width (Ry)=  0.0200

     Number of k-points >= 100: set verbosity='high' to print them.

     Dense  grid:    20107 G-vectors     FFT dimensions: (  40,  40,  40)

     Smooth grid:     7119 G-vectors     FFT dimensions: (  27,  27,  27)

     Estimated max dynamical RAM per process >       0.69MB

     Estimated total allocated dynamical RAM >      44.18MB

     The potential is recalculated from file :
     ./_ph0/na.fcc.save/charge-density.dat

     Starting wfc are    5 atomic +    4 random wfc

     Band Structure Calculation
     Davidson diagonalization with overlap

     ethr =  1.11E-10,  avg # of iterations = 18.5

     total cpu time spent up to now is      171.0 secs

     End of band structure calculation

     Number of k-points >= 100: set verbosity='high' to print the bands.

     the Fermi energy is     2.4614 ev

     Writing output data file na.fcc.save

                                                                                

     bravais-lattice index     =            2
     lattice parameter (alat)  =       9.4000  a.u.
     unit-cell volume          =     207.6460 (a.u.)^3
     number of atoms/cell      =            1
     number of atomic types    =            1
     kinetic-energy cut-off    =      40.0000  Ry
     charge density cut-off    =     320.0000  Ry
     convergence threshold     =      1.0E-16
     beta                      =       0.7000
     number of iterations used =            4
     Exchange-correlation      = SLA  PW   PBE  PBE ( 1  4  3  4 0 0)


     celldm(1)=    9.40000  celldm(2)=    0.00000  celldm(3)=    0.00000
     celldm(4)=    0.00000  celldm(5)=    0.00000  celldm(6)=    0.00000

     crystal axes: (cart. coord. in units of alat)
               a(1) = ( -0.5000  0.0000  0.5000 )  
               a(2) = (  0.0000  0.5000  0.5000 )  
               a(3) = ( -0.5000  0.5000  0.0000 )  

     reciprocal axes: (cart. coord. in units 2 pi/alat)
               b(1) = ( -1.0000 -1.0000  1.0000 )  
               b(2) = (  1.0000  1.0000  1.0000 )  
               b(3) = ( -1.0000  1.0000 -1.0000 )  


     Atoms inside the unit cell: 

     Cartesian axes

     site n.  atom      mass           positions (alat units)
        1     Na  22.9900   tau(    1) = (    0.00000    0.00000    0.00000  )

     Computing dynamical matrix for 
                    q = (  -0.1666667   0.1666667  -0.1666667 )

      6 Sym.Ops. (no q -> -q+G )


     G cutoff =  716.2192  (   1257 G-vectors)     FFT grid: ( 40, 40, 40)
     G cutoff =  358.1096  (    446 G-vectors)  smooth grid: ( 27, 27, 27)

     number of k points= 11480  Marzari-Vanderbilt smearing, width (Ry)=  0.0200

     PseudoPot. # 1 for Na read from file:
     /home/s1333534/quantum_espresso/qe-6.1/pseudo/Na_pbe_v1.uspp.F.UPF
     MD5 check sum: 76a99c7e9422403d3e93cbc85ab7bccb
     Pseudo is Ultrasoft, Zval =  9.0
     Generated by new atomic code, or converted to UPF format
     Using radial grid of  819 points,  5 beta functions with: 
                l(1) =   0
                l(2) =   0
                l(3) =   1
                l(4) =   1
                l(5) =   2
     Q(r) pseudized with  8 coefficients,  rinner =    1.250   1.250   1.250
                                                       1.250   1.250

     Mode symmetry, C_3v (3m)   point group:


     Atomic displacements:
     There are   2 irreducible representations

     Representation     1      1 modes -A_1  L_1  To be done

     Representation     2      2 modes -E    L_3  To be done



     Alpha used in Ewald sum =   2.8000
     PHONON       :  4m30.11s CPU     4m46.76s WALL



     Representation #  1 mode #   1

     Self-consistent Calculation

      iter #   1 total cpu time :   308.2 secs   av.it.:   5.7
      thresh= 1.000E-02 alpha_mix =  0.700 |ddv_scf|^2 =  3.155E-02

      iter #   2 total cpu time :   329.8 secs   av.it.:   6.6
      thresh= 1.000E-02 alpha_mix =  0.700 |ddv_scf|^2 =  4.833E+00

      iter #   3 total cpu time :   350.5 secs   av.it.:   6.5
      thresh= 1.000E-02 alpha_mix =  0.700 |ddv_scf|^2 =  2.526E-07

      iter #   4 total cpu time :   375.3 secs   av.it.:   8.2
      thresh= 5.026E-05 alpha_mix =  0.700 |ddv_scf|^2 =  5.728E-08

      iter #   5 total cpu time :   398.3 secs   av.it.:   7.5
      thresh= 2.393E-05 alpha_mix =  0.700 |ddv_scf|^2 =  4.119E-09

      iter #   6 total cpu time :   421.6 secs   av.it.:   7.5
      thresh= 6.418E-06 alpha_mix =  0.700 |ddv_scf|^2 =  8.578E-09

      iter #   7 total cpu time :   437.5 secs   av.it.:   4.4
      thresh= 9.262E-06 alpha_mix =  0.700 |ddv_scf|^2 =  1.492E-09

      iter #   8 total cpu time :   458.8 secs   av.it.:   6.9
      thresh= 3.863E-06 alpha_mix =  0.700 |ddv_scf|^2 =  3.647E-11

      iter #   9 total cpu time :   481.0 secs   av.it.:   7.3
      thresh= 6.039E-07 alpha_mix =  0.700 |ddv_scf|^2 =  1.281E-12

      iter #  10 total cpu time :   503.0 secs   av.it.:   7.3
      thresh= 1.132E-07 alpha_mix =  0.700 |ddv_scf|^2 =  1.233E-13

      iter #  11 total cpu time :   525.0 secs   av.it.:   7.2
      thresh= 3.512E-08 alpha_mix =  0.700 |ddv_scf|^2 =  5.670E-16

      iter #  12 total cpu time :   548.4 secs   av.it.:   7.8
      thresh= 2.381E-09 alpha_mix =  0.700 |ddv_scf|^2 =  3.231E-16

      iter #  13 total cpu time :   570.6 secs   av.it.:   7.1
      thresh= 1.797E-09 alpha_mix =  0.700 |ddv_scf|^2 =  7.682E-15

      iter #  14 total cpu time :   589.2 secs   av.it.:   5.7
      thresh= 8.765E-09 alpha_mix =  0.700 |ddv_scf|^2 =  4.741E-18

     End of self-consistent calculation

     Convergence has been achieved 


     Representation #  2 modes #   2  3

     Self-consistent Calculation

      iter #   1 total cpu time :   631.6 secs   av.it.:   5.5
      thresh= 1.000E-02 alpha_mix =  0.700 |ddv_scf|^2 =  2.573E-06

      iter #   2 total cpu time :   683.0 secs   av.it.:   8.5
      thresh= 1.604E-04 alpha_mix =  0.700 |ddv_scf|^2 =  4.762E-08

      iter #   3 total cpu time :   734.0 secs   av.it.:   8.6
      thresh= 2.182E-05 alpha_mix =  0.700 |ddv_scf|^2 =  8.545E-10

      iter #   4 total cpu time :   782.6 secs   av.it.:   8.4
      thresh= 2.923E-06 alpha_mix =  0.700 |ddv_scf|^2 =  3.175E-12

      iter #   5 total cpu time :   832.6 secs   av.it.:   8.6
      thresh= 1.782E-07 alpha_mix =  0.700 |ddv_scf|^2 =  6.802E-15

      iter #   6 total cpu time :   881.6 secs   av.it.:   8.2
      thresh= 8.248E-09 alpha_mix =  0.700 |ddv_scf|^2 =  1.682E-16

      iter #   7 total cpu time :   932.2 secs   av.it.:   8.6
      thresh= 1.297E-09 alpha_mix =  0.700 |ddv_scf|^2 =  1.631E-19

     End of self-consistent calculation

     Convergence has been achieved 

     Number of q in the star =    8
     List of q in the star:
          1  -0.166666667   0.166666667  -0.166666667
          2   0.166666667   0.166666667   0.166666667
          3  -0.166666667  -0.166666667  -0.166666667
          4   0.166666667  -0.166666667   0.166666667
          5   0.166666667  -0.166666667  -0.166666667
          6   0.166666667   0.166666667  -0.166666667
          7  -0.166666667  -0.166666667   0.166666667
          8  -0.166666667   0.166666667   0.166666667

     Diagonalizing the dynamical matrix

     q = (   -0.166666667   0.166666667  -0.166666667 ) 

 **************************************************************************
     freq (    1) =       0.946290 [THz] =      31.564851 [cm-1]
     freq (    2) =       0.946290 [THz] =      31.564851 [cm-1]
     freq (    3) =       2.557575 [THz] =      85.311526 [cm-1]
 **************************************************************************

     Mode symmetry, C_3v (3m)   point group:

     freq (  1 -  2) =         31.6  [cm-1]   --> E    L_3           
     freq (  3 -  3) =         85.3  [cm-1]   --> A_1  L_1           

     Calculation of q =   -0.3333333   0.3333333  -0.3333333

   Info: using nr1, nr2, nr3 values from input

   Info: using nr1, nr2, nr3 values from input

     Parallelization info
     --------------------
     sticks:   dense  smooth     PW     G-vecs:    dense   smooth      PW
     Min          60      30     11                 1255      444     101
     Max          62      32     12                 1257      446     103
     Sum         967     499    187                20107     7119    1639



     bravais-lattice index     =            2
     lattice parameter (alat)  =       9.4000  a.u.
     unit-cell volume          =     207.6460 (a.u.)^3
     number of atoms/cell      =            1
     number of atomic types    =            1
     number of electrons       =         9.00
     number of Kohn-Sham states=            9
     kinetic-energy cutoff     =      40.0000  Ry
     charge density cutoff     =     320.0000  Ry
     Exchange-correlation      = SLA  PW   PBE  PBE ( 1  4  3  4 0 0)

     celldm(1)=   9.400000  celldm(2)=   0.000000  celldm(3)=   0.000000
     celldm(4)=   0.000000  celldm(5)=   0.000000  celldm(6)=   0.000000

     crystal axes: (cart. coord. in units of alat)
               a(1) = (  -0.500000   0.000000   0.500000 )  
               a(2) = (   0.000000   0.500000   0.500000 )  
               a(3) = (  -0.500000   0.500000   0.000000 )  

     reciprocal axes: (cart. coord. in units 2 pi/alat)
               b(1) = ( -1.000000 -1.000000  1.000000 )  
               b(2) = (  1.000000  1.000000  1.000000 )  
               b(3) = ( -1.000000  1.000000 -1.000000 )  


     PseudoPot. # 1 for Na read from file:
     /home/s1333534/quantum_espresso/qe-6.1/pseudo/Na_pbe_v1.uspp.F.UPF
     MD5 check sum: 76a99c7e9422403d3e93cbc85ab7bccb
     Pseudo is Ultrasoft, Zval =  9.0
     Generated by new atomic code, or converted to UPF format
     Using radial grid of  819 points,  5 beta functions with: 
                l(1) =   0
                l(2) =   0
                l(3) =   1
                l(4) =   1
                l(5) =   2
     Q(r) pseudized with  8 coefficients,  rinner =    1.250   1.250   1.250
                                                       1.250   1.250

     atomic species   valence    mass     pseudopotential
        Na             9.00    22.99000     Na( 1.00)

     48 Sym. Ops., with inversion, found



   Cartesian axes

     site n.     atom                  positions (alat units)
         1           Na  tau(   1) = (   0.0000000   0.0000000   0.0000000  )

     number of k points= 11480  Marzari-Vanderbilt smearing, width (Ry)=  0.0200

     Number of k-points >= 100: set verbosity='high' to print them.

     Dense  grid:    20107 G-vectors     FFT dimensions: (  40,  40,  40)

     Smooth grid:     7119 G-vectors     FFT dimensions: (  27,  27,  27)

     Estimated max dynamical RAM per process >       0.69MB

     Estimated total allocated dynamical RAM >      44.18MB

     The potential is recalculated from file :
     ./_ph0/na.fcc.save/charge-density.dat

     Starting wfc are    5 atomic +    4 random wfc

     Band Structure Calculation
     Davidson diagonalization with overlap

     ethr =  1.11E-10,  avg # of iterations = 18.5

     total cpu time spent up to now is      370.0 secs

     End of band structure calculation

     Number of k-points >= 100: set verbosity='high' to print the bands.

     the Fermi energy is     2.4614 ev

     Writing output data file na.fcc.save

                                                                                

     bravais-lattice index     =            2
     lattice parameter (alat)  =       9.4000  a.u.
     unit-cell volume          =     207.6460 (a.u.)^3
     number of atoms/cell      =            1
     number of atomic types    =            1
     kinetic-energy cut-off    =      40.0000  Ry
     charge density cut-off    =     320.0000  Ry
     convergence threshold     =      1.0E-16
     beta                      =       0.7000
     number of iterations used =            4
     Exchange-correlation      = SLA  PW   PBE  PBE ( 1  4  3  4 0 0)


     celldm(1)=    9.40000  celldm(2)=    0.00000  celldm(3)=    0.00000
     celldm(4)=    0.00000  celldm(5)=    0.00000  celldm(6)=    0.00000

     crystal axes: (cart. coord. in units of alat)
               a(1) = ( -0.5000  0.0000  0.5000 )  
               a(2) = (  0.0000  0.5000  0.5000 )  
               a(3) = ( -0.5000  0.5000  0.0000 )  

     reciprocal axes: (cart. coord. in units 2 pi/alat)
               b(1) = ( -1.0000 -1.0000  1.0000 )  
               b(2) = (  1.0000  1.0000  1.0000 )  
               b(3) = ( -1.0000  1.0000 -1.0000 )  


     Atoms inside the unit cell: 

     Cartesian axes

     site n.  atom      mass           positions (alat units)
        1     Na  22.9900   tau(    1) = (    0.00000    0.00000    0.00000  )

     Computing dynamical matrix for 
                    q = (  -0.3333333   0.3333333  -0.3333333 )

      6 Sym.Ops. (no q -> -q+G )


     G cutoff =  716.2192  (   1257 G-vectors)     FFT grid: ( 40, 40, 40)
     G cutoff =  358.1096  (    446 G-vectors)  smooth grid: ( 27, 27, 27)

     number of k points= 11480  Marzari-Vanderbilt smearing, width (Ry)=  0.0200

     PseudoPot. # 1 for Na read from file:
     /home/s1333534/quantum_espresso/qe-6.1/pseudo/Na_pbe_v1.uspp.F.UPF
     MD5 check sum: 76a99c7e9422403d3e93cbc85ab7bccb
     Pseudo is Ultrasoft, Zval =  9.0
     Generated by new atomic code, or converted to UPF format
     Using radial grid of  819 points,  5 beta functions with: 
                l(1) =   0
                l(2) =   0
                l(3) =   1
                l(4) =   1
                l(5) =   2
     Q(r) pseudized with  8 coefficients,  rinner =    1.250   1.250   1.250
                                                       1.250   1.250

     Mode symmetry, C_3v (3m)   point group:


     Atomic displacements:
     There are   2 irreducible representations

     Representation     1      1 modes -A_1  L_1  To be done

     Representation     2      2 modes -E    L_3  To be done



     Alpha used in Ewald sum =   2.8000
     PHONON       : 17m37.33s CPU    19m 1.39s WALL



     Representation #  1 mode #   1

     Self-consistent Calculation

      iter #   1 total cpu time :  1162.9 secs   av.it.:   5.7
      thresh= 1.000E-02 alpha_mix =  0.700 |ddv_scf|^2 =  5.352E-04

      iter #   2 total cpu time :  1185.0 secs   av.it.:   6.7
      thresh= 2.313E-03 alpha_mix =  0.700 |ddv_scf|^2 =  3.272E-03

      iter #   3 total cpu time :  1204.6 secs   av.it.:   5.8
      thresh= 5.720E-03 alpha_mix =  0.700 |ddv_scf|^2 =  5.917E-07

      iter #   4 total cpu time :  1229.0 secs   av.it.:   7.8
      thresh= 7.692E-05 alpha_mix =  0.700 |ddv_scf|^2 =  8.660E-09

      iter #   5 total cpu time :  1254.2 secs   av.it.:   8.3
      thresh= 9.306E-06 alpha_mix =  0.700 |ddv_scf|^2 =  4.266E-10

      iter #   6 total cpu time :  1278.8 secs   av.it.:   8.1
      thresh= 2.065E-06 alpha_mix =  0.700 |ddv_scf|^2 =  1.846E-11

      iter #   7 total cpu time :  1302.8 secs   av.it.:   7.7
      thresh= 4.296E-07 alpha_mix =  0.700 |ddv_scf|^2 =  5.205E-13

      iter #   8 total cpu time :  1327.4 secs   av.it.:   8.1
      thresh= 7.214E-08 alpha_mix =  0.700 |ddv_scf|^2 =  1.522E-14

      iter #   9 total cpu time :  1350.4 secs   av.it.:   7.3
      thresh= 1.234E-08 alpha_mix =  0.700 |ddv_scf|^2 =  7.183E-14

      iter #  10 total cpu time :  1371.2 secs   av.it.:   6.4
      thresh= 2.680E-08 alpha_mix =  0.700 |ddv_scf|^2 =  3.500E-16

      iter #  11 total cpu time :  1394.8 secs   av.it.:   7.8
      thresh= 1.871E-09 alpha_mix =  0.700 |ddv_scf|^2 =  4.494E-17

     End of self-consistent calculation

     Convergence has been achieved 


     Representation #  2 modes #   2  3

     Self-consistent Calculation

      iter #   1 total cpu time :  1438.1 secs   av.it.:   5.6
      thresh= 1.000E-02 alpha_mix =  0.700 |ddv_scf|^2 =  2.656E-06

      iter #   2 total cpu time :  1488.8 secs   av.it.:   8.5
      thresh= 1.630E-04 alpha_mix =  0.700 |ddv_scf|^2 =  4.713E-08

      iter #   3 total cpu time :  1539.4 secs   av.it.:   8.7
      thresh= 2.171E-05 alpha_mix =  0.700 |ddv_scf|^2 =  1.067E-09

      iter #   4 total cpu time :  1589.0 secs   av.it.:   8.4
      thresh= 3.266E-06 alpha_mix =  0.700 |ddv_scf|^2 =  3.878E-12

      iter #   5 total cpu time :  1640.9 secs   av.it.:   8.7
      thresh= 1.969E-07 alpha_mix =  0.700 |ddv_scf|^2 =  6.938E-15

      iter #   6 total cpu time :  1690.6 secs   av.it.:   8.1
      thresh= 8.330E-09 alpha_mix =  0.700 |ddv_scf|^2 =  2.428E-16

      iter #   7 total cpu time :  1743.2 secs   av.it.:   8.6
      thresh= 1.558E-09 alpha_mix =  0.700 |ddv_scf|^2 =  2.733E-19

     End of self-consistent calculation

     Convergence has been achieved 

     Number of q in the star =    8
     List of q in the star:
          1  -0.333333333   0.333333333  -0.333333333
          2   0.333333333   0.333333333   0.333333333
          3  -0.333333333  -0.333333333  -0.333333333
          4   0.333333333  -0.333333333   0.333333333
          5   0.333333333  -0.333333333  -0.333333333
          6   0.333333333   0.333333333  -0.333333333
          7  -0.333333333  -0.333333333   0.333333333
          8  -0.333333333   0.333333333   0.333333333

     Diagonalizing the dynamical matrix

     q = (   -0.333333333   0.333333333  -0.333333333 ) 

 **************************************************************************
     freq (    1) =       1.640740 [THz] =      54.729209 [cm-1]
     freq (    2) =       1.640740 [THz] =      54.729209 [cm-1]
     freq (    3) =       4.410704 [THz] =     147.125253 [cm-1]
 **************************************************************************

     Mode symmetry, C_3v (3m)   point group:

     freq (  1 -  2) =         54.7  [cm-1]   --> E    L_3           
     freq (  3 -  3) =        147.1  [cm-1]   --> A_1  L_1           

     Calculation of q =    0.5000000  -0.5000000   0.5000000

   Info: using nr1, nr2, nr3 values from input

   Info: using nr1, nr2, nr3 values from input

     Parallelization info
     --------------------
     sticks:   dense  smooth     PW     G-vecs:    dense   smooth      PW
     Min          60      30     12                 1255      444     109
     Max          62      32     14                 1257      446     110
     Sum         967     499    199                20107     7119    1759



     bravais-lattice index     =            2
     lattice parameter (alat)  =       9.4000  a.u.
     unit-cell volume          =     207.6460 (a.u.)^3
     number of atoms/cell      =            1
     number of atomic types    =            1
     number of electrons       =         9.00
     number of Kohn-Sham states=            9
     kinetic-energy cutoff     =      40.0000  Ry
     charge density cutoff     =     320.0000  Ry
     Exchange-correlation      = SLA  PW   PBE  PBE ( 1  4  3  4 0 0)

     celldm(1)=   9.400000  celldm(2)=   0.000000  celldm(3)=   0.000000
     celldm(4)=   0.000000  celldm(5)=   0.000000  celldm(6)=   0.000000

     crystal axes: (cart. coord. in units of alat)
               a(1) = (  -0.500000   0.000000   0.500000 )  
               a(2) = (   0.000000   0.500000   0.500000 )  
               a(3) = (  -0.500000   0.500000   0.000000 )  

     reciprocal axes: (cart. coord. in units 2 pi/alat)
               b(1) = ( -1.000000 -1.000000  1.000000 )  
               b(2) = (  1.000000  1.000000  1.000000 )  
               b(3) = ( -1.000000  1.000000 -1.000000 )  


     PseudoPot. # 1 for Na read from file:
     /home/s1333534/quantum_espresso/qe-6.1/pseudo/Na_pbe_v1.uspp.F.UPF
     MD5 check sum: 76a99c7e9422403d3e93cbc85ab7bccb
     Pseudo is Ultrasoft, Zval =  9.0
     Generated by new atomic code, or converted to UPF format
     Using radial grid of  819 points,  5 beta functions with: 
                l(1) =   0
                l(2) =   0
                l(3) =   1
                l(4) =   1
                l(5) =   2
     Q(r) pseudized with  8 coefficients,  rinner =    1.250   1.250   1.250
                                                       1.250   1.250

     atomic species   valence    mass     pseudopotential
        Na             9.00    22.99000     Na( 1.00)

     48 Sym. Ops., with inversion, found



   Cartesian axes

     site n.     atom                  positions (alat units)
         1           Na  tau(   1) = (   0.0000000   0.0000000   0.0000000  )

     number of k points=  5740  Marzari-Vanderbilt smearing, width (Ry)=  0.0200

     Number of k-points >= 100: set verbosity='high' to print them.

     Dense  grid:    20107 G-vectors     FFT dimensions: (  40,  40,  40)

     Smooth grid:     7119 G-vectors     FFT dimensions: (  27,  27,  27)

     Estimated max dynamical RAM per process >       0.69MB

     Estimated total allocated dynamical RAM >      44.18MB

     The potential is recalculated from file :
     ./_ph0/na.fcc.save/charge-density.dat

     Starting wfc are    5 atomic +    4 random wfc

     Band Structure Calculation
     Davidson diagonalization with overlap

     ethr =  1.11E-10,  avg # of iterations = 18.5

     total cpu time spent up to now is      489.1 secs

     End of band structure calculation

     Number of k-points >= 100: set verbosity='high' to print the bands.

     the Fermi energy is     2.4614 ev

     Writing output data file na.fcc.save

                                                                                

     bravais-lattice index     =            2
     lattice parameter (alat)  =       9.4000  a.u.
     unit-cell volume          =     207.6460 (a.u.)^3
     number of atoms/cell      =            1
     number of atomic types    =            1
     kinetic-energy cut-off    =      40.0000  Ry
     charge density cut-off    =     320.0000  Ry
     convergence threshold     =      1.0E-16
     beta                      =       0.7000
     number of iterations used =            4
     Exchange-correlation      = SLA  PW   PBE  PBE ( 1  4  3  4 0 0)


     celldm(1)=    9.40000  celldm(2)=    0.00000  celldm(3)=    0.00000
     celldm(4)=    0.00000  celldm(5)=    0.00000  celldm(6)=    0.00000

     crystal axes: (cart. coord. in units of alat)
               a(1) = ( -0.5000  0.0000  0.5000 )  
               a(2) = (  0.0000  0.5000  0.5000 )  
               a(3) = ( -0.5000  0.5000  0.0000 )  

     reciprocal axes: (cart. coord. in units 2 pi/alat)
               b(1) = ( -1.0000 -1.0000  1.0000 )  
               b(2) = (  1.0000  1.0000  1.0000 )  
               b(3) = ( -1.0000  1.0000 -1.0000 )  


     Atoms inside the unit cell: 

     Cartesian axes

     site n.  atom      mass           positions (alat units)
        1     Na  22.9900   tau(    1) = (    0.00000    0.00000    0.00000  )

     Computing dynamical matrix for 
                    q = (   0.5000000  -0.5000000   0.5000000 )

     13 Sym.Ops. (with q -> -q+G )


     G cutoff =  716.2192  (   1257 G-vectors)     FFT grid: ( 40, 40, 40)
     G cutoff =  358.1096  (    446 G-vectors)  smooth grid: ( 27, 27, 27)

     number of k points=  5740  Marzari-Vanderbilt smearing, width (Ry)=  0.0200

     PseudoPot. # 1 for Na read from file:
     /home/s1333534/quantum_espresso/qe-6.1/pseudo/Na_pbe_v1.uspp.F.UPF
     MD5 check sum: 76a99c7e9422403d3e93cbc85ab7bccb
     Pseudo is Ultrasoft, Zval =  9.0
     Generated by new atomic code, or converted to UPF format
     Using radial grid of  819 points,  5 beta functions with: 
                l(1) =   0
                l(2) =   0
                l(3) =   1
                l(4) =   1
                l(5) =   2
     Q(r) pseudized with  8 coefficients,  rinner =    1.250   1.250   1.250
                                                       1.250   1.250

     Mode symmetry, D_3d (-3m)  point group:


     Atomic displacements:
     There are   2 irreducible representations

     Representation     1      1 modes -A_2u L_2'  To be done

     Representation     2      2 modes -E_u  L_3'  To be done



     Alpha used in Ewald sum =   2.8000
     PHONON       : 28m25.32s CPU    30m51.64s WALL



     Representation #  1 mode #   1

     Self-consistent Calculation

      iter #   1 total cpu time :  1863.3 secs   av.it.:   5.7
      thresh= 1.000E-02 alpha_mix =  0.700 |ddv_scf|^2 =  1.083E-04

      iter #   2 total cpu time :  1875.2 secs   av.it.:   6.9
      thresh= 1.041E-03 alpha_mix =  0.700 |ddv_scf|^2 =  6.445E-05

      iter #   3 total cpu time :  1886.8 secs   av.it.:   6.8
      thresh= 8.028E-04 alpha_mix =  0.700 |ddv_scf|^2 =  7.506E-08

      iter #   4 total cpu time :  1899.7 secs   av.it.:   7.9
      thresh= 2.740E-05 alpha_mix =  0.700 |ddv_scf|^2 =  2.875E-10

      iter #   5 total cpu time :  1911.2 secs   av.it.:   7.0
      thresh= 1.695E-06 alpha_mix =  0.700 |ddv_scf|^2 =  6.484E-12

      iter #   6 total cpu time :  1922.4 secs   av.it.:   6.6
      thresh= 2.546E-07 alpha_mix =  0.700 |ddv_scf|^2 =  1.643E-14

      iter #   7 total cpu time :  1934.8 secs   av.it.:   7.5
      thresh= 1.282E-08 alpha_mix =  0.700 |ddv_scf|^2 =  2.613E-17

     End of self-consistent calculation

     Convergence has been achieved 


     Representation #  2 modes #   2  3

     Self-consistent Calculation

      iter #   1 total cpu time :  1956.7 secs   av.it.:   5.4
      thresh= 1.000E-02 alpha_mix =  0.700 |ddv_scf|^2 =  2.694E-06

      iter #   2 total cpu time :  1983.3 secs   av.it.:   8.4
      thresh= 1.641E-04 alpha_mix =  0.700 |ddv_scf|^2 =  4.701E-08

      iter #   3 total cpu time :  2010.0 secs   av.it.:   8.6
      thresh= 2.168E-05 alpha_mix =  0.700 |ddv_scf|^2 =  1.156E-09

      iter #   4 total cpu time :  2035.3 secs   av.it.:   7.9
      thresh= 3.400E-06 alpha_mix =  0.700 |ddv_scf|^2 =  4.202E-12

      iter #   5 total cpu time :  2061.8 secs   av.it.:   8.3
      thresh= 2.050E-07 alpha_mix =  0.700 |ddv_scf|^2 =  7.122E-15

      iter #   6 total cpu time :  2087.0 secs   av.it.:   7.8
      thresh= 8.439E-09 alpha_mix =  0.700 |ddv_scf|^2 =  2.711E-16

      iter #   7 total cpu time :  2113.3 secs   av.it.:   8.3
      thresh= 1.646E-09 alpha_mix =  0.700 |ddv_scf|^2 =  2.684E-19

     End of self-consistent calculation

     Convergence has been achieved 

     Number of q in the star =    4
     List of q in the star:
          1   0.500000000  -0.500000000   0.500000000
          2   0.500000000   0.500000000   0.500000000
          3  -0.500000000   0.500000000   0.500000000
          4   0.500000000   0.500000000  -0.500000000

     Diagonalizing the dynamical matrix

     q = (    0.500000000  -0.500000000   0.500000000 ) 

 **************************************************************************
     freq (    1) =       1.911663 [THz] =      63.766198 [cm-1]
     freq (    2) =       1.911663 [THz] =      63.766198 [cm-1]
     freq (    3) =       5.089149 [THz] =     169.755737 [cm-1]
 **************************************************************************

     Mode symmetry, D_3d (-3m)  point group:

     freq (  1 -  2) =         63.8  [cm-1]   --> E_u  L_3'          
     freq (  3 -  3) =        169.8  [cm-1]   --> A_2u L_2'          

     Calculation of q =    0.0000000   0.3333333   0.0000000

   Info: using nr1, nr2, nr3 values from input

   Info: using nr1, nr2, nr3 values from input

     Parallelization info
     --------------------
     sticks:   dense  smooth     PW     G-vecs:    dense   smooth      PW
     Min          60      30     10                 1255      444      91
     Max          62      32     11                 1257      446      94
     Sum         967     499    169                20107     7119    1471



     bravais-lattice index     =            2
     lattice parameter (alat)  =       9.4000  a.u.
     unit-cell volume          =     207.6460 (a.u.)^3
     number of atoms/cell      =            1
     number of atomic types    =            1
     number of electrons       =         9.00
     number of Kohn-Sham states=            9
     kinetic-energy cutoff     =      40.0000  Ry
     charge density cutoff     =     320.0000  Ry
     Exchange-correlation      = SLA  PW   PBE  PBE ( 1  4  3  4 0 0)

     celldm(1)=   9.400000  celldm(2)=   0.000000  celldm(3)=   0.000000
     celldm(4)=   0.000000  celldm(5)=   0.000000  celldm(6)=   0.000000

     crystal axes: (cart. coord. in units of alat)
               a(1) = (  -0.500000   0.000000   0.500000 )  
               a(2) = (   0.000000   0.500000   0.500000 )  
               a(3) = (  -0.500000   0.500000   0.000000 )  

     reciprocal axes: (cart. coord. in units 2 pi/alat)
               b(1) = ( -1.000000 -1.000000  1.000000 )  
               b(2) = (  1.000000  1.000000  1.000000 )  
               b(3) = ( -1.000000  1.000000 -1.000000 )  


     PseudoPot. # 1 for Na read from file:
     /home/s1333534/quantum_espresso/qe-6.1/pseudo/Na_pbe_v1.uspp.F.UPF
     MD5 check sum: 76a99c7e9422403d3e93cbc85ab7bccb
     Pseudo is Ultrasoft, Zval =  9.0
     Generated by new atomic code, or converted to UPF format
     Using radial grid of  819 points,  5 beta functions with: 
                l(1) =   0
                l(2) =   0
                l(3) =   1
                l(4) =   1
                l(5) =   2
     Q(r) pseudized with  8 coefficients,  rinner =    1.250   1.250   1.250
                                                       1.250   1.250

     atomic species   valence    mass     pseudopotential
        Na             9.00    22.99000     Na( 1.00)

     48 Sym. Ops., with inversion, found



   Cartesian axes

     site n.     atom                  positions (alat units)
         1           Na  tau(   1) = (   0.0000000   0.0000000   0.0000000  )

     number of k points=  8400  Marzari-Vanderbilt smearing, width (Ry)=  0.0200

     Number of k-points >= 100: set verbosity='high' to print them.

     Dense  grid:    20107 G-vectors     FFT dimensions: (  40,  40,  40)

     Smooth grid:     7119 G-vectors     FFT dimensions: (  27,  27,  27)

     Estimated max dynamical RAM per process >       0.69MB

     Estimated total allocated dynamical RAM >      44.18MB

     The potential is recalculated from file :
     ./_ph0/na.fcc.save/charge-density.dat

     Starting wfc are    5 atomic +    4 random wfc

     Band Structure Calculation
     Davidson diagonalization with overlap

     ethr =  1.11E-10,  avg # of iterations = 18.5

     total cpu time spent up to now is      626.2 secs

     End of band structure calculation

     Number of k-points >= 100: set verbosity='high' to print the bands.

     the Fermi energy is     2.4614 ev

     Writing output data file na.fcc.save

                                                                                

     bravais-lattice index     =            2
     lattice parameter (alat)  =       9.4000  a.u.
     unit-cell volume          =     207.6460 (a.u.)^3
     number of atoms/cell      =            1
     number of atomic types    =            1
     kinetic-energy cut-off    =      40.0000  Ry
     charge density cut-off    =     320.0000  Ry
     convergence threshold     =      1.0E-16
     beta                      =       0.7000
     number of iterations used =            4
     Exchange-correlation      = SLA  PW   PBE  PBE ( 1  4  3  4 0 0)


     celldm(1)=    9.40000  celldm(2)=    0.00000  celldm(3)=    0.00000
     celldm(4)=    0.00000  celldm(5)=    0.00000  celldm(6)=    0.00000

     crystal axes: (cart. coord. in units of alat)
               a(1) = ( -0.5000  0.0000  0.5000 )  
               a(2) = (  0.0000  0.5000  0.5000 )  
               a(3) = ( -0.5000  0.5000  0.0000 )  

     reciprocal axes: (cart. coord. in units 2 pi/alat)
               b(1) = ( -1.0000 -1.0000  1.0000 )  
               b(2) = (  1.0000  1.0000  1.0000 )  
               b(3) = ( -1.0000  1.0000 -1.0000 )  


     Atoms inside the unit cell: 

     Cartesian axes

     site n.  atom      mass           positions (alat units)
        1     Na  22.9900   tau(    1) = (    0.00000    0.00000    0.00000  )

     Computing dynamical matrix for 
                    q = (   0.0000000   0.3333333   0.0000000 )

      8 Sym.Ops. (no q -> -q+G )


     G cutoff =  716.2192  (   1257 G-vectors)     FFT grid: ( 40, 40, 40)
     G cutoff =  358.1096  (    446 G-vectors)  smooth grid: ( 27, 27, 27)

     number of k points=  8400  Marzari-Vanderbilt smearing, width (Ry)=  0.0200

     PseudoPot. # 1 for Na read from file:
     /home/s1333534/quantum_espresso/qe-6.1/pseudo/Na_pbe_v1.uspp.F.UPF
     MD5 check sum: 76a99c7e9422403d3e93cbc85ab7bccb
     Pseudo is Ultrasoft, Zval =  9.0
     Generated by new atomic code, or converted to UPF format
     Using radial grid of  819 points,  5 beta functions with: 
                l(1) =   0
                l(2) =   0
                l(3) =   1
                l(4) =   1
                l(5) =   2
     Q(r) pseudized with  8 coefficients,  rinner =    1.250   1.250   1.250
                                                       1.250   1.250

     Mode symmetry, C_4v (4mm)  point group:


     Atomic displacements:
     There are   2 irreducible representations

     Representation     1      1 modes -A_1  G_1 D_1  To be done

     Representation     2      2 modes -E    G_5 D_5  To be done



     Alpha used in Ewald sum =   2.8000
     PHONON       : 34m51.91s CPU    37m46.95s WALL



     Representation #  1 mode #   1

     Self-consistent Calculation

      iter #   1 total cpu time :  2283.5 secs   av.it.:   5.7
      thresh= 1.000E-02 alpha_mix =  0.700 |ddv_scf|^2 =  1.351E-02

      iter #   2 total cpu time :  2298.6 secs   av.it.:   6.3
      thresh= 1.000E-02 alpha_mix =  0.700 |ddv_scf|^2 =  1.124E+00

      iter #   3 total cpu time :  2313.9 secs   av.it.:   6.3
      thresh= 1.000E-02 alpha_mix =  0.700 |ddv_scf|^2 =  2.027E-06

      iter #   4 total cpu time :  2330.9 secs   av.it.:   7.4
      thresh= 1.424E-04 alpha_mix =  0.700 |ddv_scf|^2 =  6.249E-08

      iter #   5 total cpu time :  2348.0 secs   av.it.:   7.5
      thresh= 2.500E-05 alpha_mix =  0.700 |ddv_scf|^2 =  1.554E-09

      iter #   6 total cpu time :  2365.2 secs   av.it.:   7.7
      thresh= 3.942E-06 alpha_mix =  0.700 |ddv_scf|^2 =  1.297E-09

      iter #   7 total cpu time :  2379.8 secs   av.it.:   6.2
      thresh= 3.601E-06 alpha_mix =  0.700 |ddv_scf|^2 =  3.360E-09

      iter #   8 total cpu time :  2394.8 secs   av.it.:   6.4
      thresh= 5.797E-06 alpha_mix =  0.700 |ddv_scf|^2 =  4.387E-11

      iter #   9 total cpu time :  2410.7 secs   av.it.:   6.8
      thresh= 6.623E-07 alpha_mix =  0.700 |ddv_scf|^2 =  1.562E-12

      iter #  10 total cpu time :  2426.6 secs   av.it.:   6.9
      thresh= 1.250E-07 alpha_mix =  0.700 |ddv_scf|^2 =  3.872E-14

      iter #  11 total cpu time :  2443.5 secs   av.it.:   7.5
      thresh= 1.968E-08 alpha_mix =  0.700 |ddv_scf|^2 =  2.942E-16

      iter #  12 total cpu time :  2461.5 secs   av.it.:   8.0
      thresh= 1.715E-09 alpha_mix =  0.700 |ddv_scf|^2 =  1.256E-16

      iter #  13 total cpu time :  2478.7 secs   av.it.:   7.6
      thresh= 1.121E-09 alpha_mix =  0.700 |ddv_scf|^2 =  2.657E-15

      iter #  14 total cpu time :  2492.4 secs   av.it.:   5.7
      thresh= 5.154E-09 alpha_mix =  0.700 |ddv_scf|^2 =  5.489E-18

     End of self-consistent calculation

     Convergence has been achieved 


     Representation #  2 modes #   2  3

     Self-consistent Calculation

      iter #   1 total cpu time :  2523.1 secs   av.it.:   5.5
      thresh= 1.000E-02 alpha_mix =  0.700 |ddv_scf|^2 =  2.719E-06

      iter #   2 total cpu time :  2559.7 secs   av.it.:   8.5
      thresh= 1.649E-04 alpha_mix =  0.700 |ddv_scf|^2 =  4.577E-08

      iter #   3 total cpu time :  2596.7 secs   av.it.:   8.6
      thresh= 2.139E-05 alpha_mix =  0.700 |ddv_scf|^2 =  1.366E-09

      iter #   4 total cpu time :  2633.4 secs   av.it.:   8.3
      thresh= 3.696E-06 alpha_mix =  0.700 |ddv_scf|^2 =  4.623E-12

      iter #   5 total cpu time :  2670.8 secs   av.it.:   8.6
      thresh= 2.150E-07 alpha_mix =  0.700 |ddv_scf|^2 =  6.053E-15

      iter #   6 total cpu time :  2705.8 secs   av.it.:   8.0
      thresh= 7.780E-09 alpha_mix =  0.700 |ddv_scf|^2 =  2.582E-16

      iter #   7 total cpu time :  2742.7 secs   av.it.:   8.5
      thresh= 1.607E-09 alpha_mix =  0.700 |ddv_scf|^2 =  1.965E-19

     End of self-consistent calculation

     Convergence has been achieved 

     Number of q in the star =    6
     List of q in the star:
          1   0.000000000   0.333333333   0.000000000
          2   0.333333333   0.000000000   0.000000000
          3   0.000000000   0.000000000   0.333333333
          4   0.000000000  -0.333333333   0.000000000
          5  -0.333333333   0.000000000   0.000000000
          6   0.000000000   0.000000000  -0.333333333

     Diagonalizing the dynamical matrix

     q = (    0.000000000   0.333333333   0.000000000 ) 

 **************************************************************************
     freq (    1) =       1.679905 [THz] =      56.035590 [cm-1]
     freq (    2) =       1.679905 [THz] =      56.035590 [cm-1]
     freq (    3) =       2.362459 [THz] =      78.803161 [cm-1]
 **************************************************************************

     Mode symmetry, C_4v (4mm)  point group:

     freq (  1 -  2) =         56.0  [cm-1]   --> E    G_5 D_5       
     freq (  3 -  3) =         78.8  [cm-1]   --> A_1  G_1 D_1       

     Calculation of q =   -0.1666667   0.5000000  -0.1666667

   Info: using nr1, nr2, nr3 values from input

   Info: using nr1, nr2, nr3 values from input

     Parallelization info
     --------------------
     sticks:   dense  smooth     PW     G-vecs:    dense   smooth      PW
     Min          60      30     11                 1255      444     101
     Max          62      32     12                 1257      446     103
     Sum         967     499    187                20107     7119    1639



     bravais-lattice index     =            2
     lattice parameter (alat)  =       9.4000  a.u.
     unit-cell volume          =     207.6460 (a.u.)^3
     number of atoms/cell      =            1
     number of atomic types    =            1
     number of electrons       =         9.00
     number of Kohn-Sham states=            9
     kinetic-energy cutoff     =      40.0000  Ry
     charge density cutoff     =     320.0000  Ry
     Exchange-correlation      = SLA  PW   PBE  PBE ( 1  4  3  4 0 0)

     celldm(1)=   9.400000  celldm(2)=   0.000000  celldm(3)=   0.000000
     celldm(4)=   0.000000  celldm(5)=   0.000000  celldm(6)=   0.000000

     crystal axes: (cart. coord. in units of alat)
               a(1) = (  -0.500000   0.000000   0.500000 )  
               a(2) = (   0.000000   0.500000   0.500000 )  
               a(3) = (  -0.500000   0.500000   0.000000 )  

     reciprocal axes: (cart. coord. in units 2 pi/alat)
               b(1) = ( -1.000000 -1.000000  1.000000 )  
               b(2) = (  1.000000  1.000000  1.000000 )  
               b(3) = ( -1.000000  1.000000 -1.000000 )  


     PseudoPot. # 1 for Na read from file:
     /home/s1333534/quantum_espresso/qe-6.1/pseudo/Na_pbe_v1.uspp.F.UPF
     MD5 check sum: 76a99c7e9422403d3e93cbc85ab7bccb
     Pseudo is Ultrasoft, Zval =  9.0
     Generated by new atomic code, or converted to UPF format
     Using radial grid of  819 points,  5 beta functions with: 
                l(1) =   0
                l(2) =   0
                l(3) =   1
                l(4) =   1
                l(5) =   2
     Q(r) pseudized with  8 coefficients,  rinner =    1.250   1.250   1.250
                                                       1.250   1.250

     atomic species   valence    mass     pseudopotential
        Na             9.00    22.99000     Na( 1.00)

     48 Sym. Ops., with inversion, found



   Cartesian axes

     site n.     atom                  positions (alat units)
         1           Na  tau(   1) = (   0.0000000   0.0000000   0.0000000  )

     number of k points= 32800  Marzari-Vanderbilt smearing, width (Ry)=  0.0200

     Number of k-points >= 100: set verbosity='high' to print them.

     Dense  grid:    20107 G-vectors     FFT dimensions: (  40,  40,  40)

     Smooth grid:     7119 G-vectors     FFT dimensions: (  27,  27,  27)

     Estimated max dynamical RAM per process >       0.69MB

     Estimated total allocated dynamical RAM >      44.18MB

     The potential is recalculated from file :
     ./_ph0/na.fcc.save/charge-density.dat

     Starting wfc are    5 atomic +    4 random wfc

     Band Structure Calculation
     Davidson diagonalization with overlap

     ethr =  1.11E-10,  avg # of iterations = 18.4

     total cpu time spent up to now is     1126.2 secs

     End of band structure calculation

     Number of k-points >= 100: set verbosity='high' to print the bands.

     the Fermi energy is     2.4614 ev

     Writing output data file na.fcc.save

                                                                                

     bravais-lattice index     =            2
     lattice parameter (alat)  =       9.4000  a.u.
     unit-cell volume          =     207.6460 (a.u.)^3
     number of atoms/cell      =            1
     number of atomic types    =            1
     kinetic-energy cut-off    =      40.0000  Ry
     charge density cut-off    =     320.0000  Ry
     convergence threshold     =      1.0E-16
     beta                      =       0.7000
     number of iterations used =            4
     Exchange-correlation      = SLA  PW   PBE  PBE ( 1  4  3  4 0 0)


     celldm(1)=    9.40000  celldm(2)=    0.00000  celldm(3)=    0.00000
     celldm(4)=    0.00000  celldm(5)=    0.00000  celldm(6)=    0.00000

     crystal axes: (cart. coord. in units of alat)
               a(1) = ( -0.5000  0.0000  0.5000 )  
               a(2) = (  0.0000  0.5000  0.5000 )  
               a(3) = ( -0.5000  0.5000  0.0000 )  

     reciprocal axes: (cart. coord. in units 2 pi/alat)
               b(1) = ( -1.0000 -1.0000  1.0000 )  
               b(2) = (  1.0000  1.0000  1.0000 )  
               b(3) = ( -1.0000  1.0000 -1.0000 )  


     Atoms inside the unit cell: 

     Cartesian axes

     site n.  atom      mass           positions (alat units)
        1     Na  22.9900   tau(    1) = (    0.00000    0.00000    0.00000  )

     Computing dynamical matrix for 
                    q = (  -0.1666667   0.5000000  -0.1666667 )

      2 Sym.Ops. (no q -> -q+G )


     G cutoff =  716.2192  (   1257 G-vectors)     FFT grid: ( 40, 40, 40)
     G cutoff =  358.1096  (    446 G-vectors)  smooth grid: ( 27, 27, 27)

     number of k points= 32800  Marzari-Vanderbilt smearing, width (Ry)=  0.0200

     PseudoPot. # 1 for Na read from file:
     /home/s1333534/quantum_espresso/qe-6.1/pseudo/Na_pbe_v1.uspp.F.UPF
     MD5 check sum: 76a99c7e9422403d3e93cbc85ab7bccb
     Pseudo is Ultrasoft, Zval =  9.0
     Generated by new atomic code, or converted to UPF format
     Using radial grid of  819 points,  5 beta functions with: 
                l(1) =   0
                l(2) =   0
                l(3) =   1
                l(4) =   1
                l(5) =   2
     Q(r) pseudized with  8 coefficients,  rinner =    1.250   1.250   1.250
                                                       1.250   1.250

     Mode symmetry, C_s (m)     point group:


     Atomic displacements:
     There are   3 irreducible representations

     Representation     1      1 modes -A'  To be done

     Representation     2      1 modes -A'  To be done

     Representation     3      1 modes -A''  To be done



     Alpha used in Ewald sum =   2.8000
     PHONON       : 51m37.14s CPU    55m43.28s WALL



     Representation #  1 mode #   1

     Self-consistent Calculation

      iter #   1 total cpu time :  3406.9 secs   av.it.:   5.8
      thresh= 1.000E-02 alpha_mix =  0.700 |ddv_scf|^2 =  5.962E-04

      iter #   2 total cpu time :  3471.1 secs   av.it.:   6.9
      thresh= 2.442E-03 alpha_mix =  0.700 |ddv_scf|^2 =  4.632E-03

      iter #   3 total cpu time :  3527.3 secs   av.it.:   5.7
      thresh= 6.806E-03 alpha_mix =  0.700 |ddv_scf|^2 =  6.495E-07

      iter #   4 total cpu time :  3597.4 secs   av.it.:   7.8
      thresh= 8.059E-05 alpha_mix =  0.700 |ddv_scf|^2 =  4.816E-09

      iter #   5 total cpu time :  3669.3 secs   av.it.:   8.4
      thresh= 6.940E-06 alpha_mix =  0.700 |ddv_scf|^2 =  5.980E-10

      iter #   6 total cpu time :  3740.9 secs   av.it.:   8.2
      thresh= 2.445E-06 alpha_mix =  0.700 |ddv_scf|^2 =  2.029E-11

      iter #   7 total cpu time :  3812.3 secs   av.it.:   8.1
      thresh= 4.504E-07 alpha_mix =  0.700 |ddv_scf|^2 =  2.599E-11

      iter #   8 total cpu time :  3874.3 secs   av.it.:   6.8
      thresh= 5.098E-07 alpha_mix =  0.700 |ddv_scf|^2 =  4.809E-12

      iter #   9 total cpu time :  3939.3 secs   av.it.:   7.2
      thresh= 2.193E-07 alpha_mix =  0.700 |ddv_scf|^2 =  1.132E-12

      iter #  10 total cpu time :  4002.3 secs   av.it.:   6.9
      thresh= 1.064E-07 alpha_mix =  0.700 |ddv_scf|^2 =  6.788E-15

      iter #  11 total cpu time :  4075.8 secs   av.it.:   8.4
      thresh= 8.239E-09 alpha_mix =  0.700 |ddv_scf|^2 =  3.678E-16

      iter #  12 total cpu time :  4146.8 secs   av.it.:   8.0
      thresh= 1.918E-09 alpha_mix =  0.700 |ddv_scf|^2 =  4.416E-17

     End of self-consistent calculation

     Convergence has been achieved 


     Representation #  2 mode #   2

     Self-consistent Calculation

      iter #   1 total cpu time :  4212.5 secs   av.it.:   5.7
      thresh= 1.000E-02 alpha_mix =  0.700 |ddv_scf|^2 =  1.009E-04

      iter #   2 total cpu time :  4280.7 secs   av.it.:   7.4
      thresh= 1.004E-03 alpha_mix =  0.700 |ddv_scf|^2 =  7.000E-04

      iter #   3 total cpu time :  4336.8 secs   av.it.:   5.7
      thresh= 2.646E-03 alpha_mix =  0.700 |ddv_scf|^2 =  2.084E-07

      iter #   4 total cpu time :  4409.5 secs   av.it.:   8.2
      thresh= 4.565E-05 alpha_mix =  0.700 |ddv_scf|^2 =  6.185E-09

      iter #   5 total cpu time :  4482.2 secs   av.it.:   8.2
      thresh= 7.865E-06 alpha_mix =  0.700 |ddv_scf|^2 =  2.004E-10

      iter #   6 total cpu time :  4554.6 secs   av.it.:   8.3
      thresh= 1.416E-06 alpha_mix =  0.700 |ddv_scf|^2 =  1.574E-11

      iter #   7 total cpu time :  4626.0 secs   av.it.:   8.1
      thresh= 3.967E-07 alpha_mix =  0.700 |ddv_scf|^2 =  1.303E-12

      iter #   8 total cpu time :  4694.2 secs   av.it.:   7.6
      thresh= 1.142E-07 alpha_mix =  0.700 |ddv_scf|^2 =  5.247E-12

      iter #   9 total cpu time :  4752.5 secs   av.it.:   5.9
      thresh= 2.291E-07 alpha_mix =  0.700 |ddv_scf|^2 =  1.364E-14

      iter #  10 total cpu time :  4820.0 secs   av.it.:   7.5
      thresh= 1.168E-08 alpha_mix =  0.700 |ddv_scf|^2 =  3.496E-16

      iter #  11 total cpu time :  4890.0 secs   av.it.:   7.8
      thresh= 1.870E-09 alpha_mix =  0.700 |ddv_scf|^2 =  1.215E-15

      iter #  12 total cpu time :  4950.7 secs   av.it.:   6.6
      thresh= 3.486E-09 alpha_mix =  0.700 |ddv_scf|^2 =  3.622E-18

     End of self-consistent calculation

     Convergence has been achieved 


     Representation #  3 mode #   3

     Self-consistent Calculation

      iter #   1 total cpu time :  5013.8 secs   av.it.:   5.5
      thresh= 1.000E-02 alpha_mix =  0.700 |ddv_scf|^2 =  1.152E-05

      iter #   2 total cpu time :  5083.1 secs   av.it.:   7.8
      thresh= 3.394E-04 alpha_mix =  0.700 |ddv_scf|^2 =  1.775E-07

      iter #   3 total cpu time :  5154.7 secs   av.it.:   8.0
      thresh= 4.213E-05 alpha_mix =  0.700 |ddv_scf|^2 =  7.700E-09

      iter #   4 total cpu time :  5221.7 secs   av.it.:   7.6
      thresh= 8.775E-06 alpha_mix =  0.700 |ddv_scf|^2 =  2.576E-11

      iter #   5 total cpu time :  5293.1 secs   av.it.:   7.9
      thresh= 5.076E-07 alpha_mix =  0.700 |ddv_scf|^2 =  2.489E-14

      iter #   6 total cpu time :  5357.8 secs   av.it.:   7.1
      thresh= 1.578E-08 alpha_mix =  0.700 |ddv_scf|^2 =  1.429E-15

      iter #   7 total cpu time :  5427.3 secs   av.it.:   7.7
      thresh= 3.780E-09 alpha_mix =  0.700 |ddv_scf|^2 =  1.441E-18

     End of self-consistent calculation

     Convergence has been achieved 

     Number of q in the star =   24
     List of q in the star:
          1  -0.166666667   0.500000000  -0.166666667
          2   0.166666667   0.500000000   0.166666667
          3  -0.166666667   0.500000000   0.166666667
          4   0.166666667   0.500000000  -0.166666667
          5   0.500000000  -0.166666667   0.166666667
          6   0.166666667  -0.166666667   0.500000000
          7  -0.166666667  -0.500000000  -0.166666667
          8   0.166666667  -0.500000000  -0.166666667
          9  -0.166666667  -0.500000000   0.166666667
         10   0.500000000  -0.166666667  -0.166666667
         11  -0.500000000  -0.166666667   0.166666667
         12   0.500000000   0.166666667   0.166666667
         13  -0.166666667   0.166666667  -0.500000000
         14  -0.166666667  -0.166666667   0.500000000
         15   0.166666667   0.166666667   0.500000000
         16   0.166666667  -0.166666667  -0.500000000
         17  -0.500000000   0.166666667  -0.166666667
         18  -0.500000000  -0.166666667  -0.166666667
         19   0.166666667  -0.500000000   0.166666667
         20   0.500000000   0.166666667  -0.166666667
         21   0.166666667   0.166666667  -0.500000000
         22  -0.166666667  -0.166666667  -0.500000000
         23  -0.500000000   0.166666667   0.166666667
         24  -0.166666667   0.166666667   0.500000000

     Diagonalizing the dynamical matrix

     q = (   -0.166666667   0.500000000  -0.166666667 ) 

 **************************************************************************
     freq (    1) =       2.227360 [THz] =      74.296722 [cm-1]
     freq (    2) =       2.271543 [THz] =      75.770525 [cm-1]
     freq (    3) =       3.961171 [THz] =     132.130426 [cm-1]
 **************************************************************************

     Mode symmetry, C_s (m)     point group:

     freq (  1 -  1) =         74.3  [cm-1]   --> A'                 
     freq (  2 -  2) =         75.8  [cm-1]   --> A''                
     freq (  3 -  3) =        132.1  [cm-1]   --> A'                 

     Calculation of q =    0.6666667  -0.3333333   0.6666667

   Info: using nr1, nr2, nr3 values from input

   Info: using nr1, nr2, nr3 values from input

     Parallelization info
     --------------------
     sticks:   dense  smooth     PW     G-vecs:    dense   smooth      PW
     Min          60      30     12                 1255      444     112
     Max          62      32     13                 1257      446     114
     Sum         967     499    199                20107     7119    1807



     bravais-lattice index     =            2
     lattice parameter (alat)  =       9.4000  a.u.
     unit-cell volume          =     207.6460 (a.u.)^3
     number of atoms/cell      =            1
     number of atomic types    =            1
     number of electrons       =         9.00
     number of Kohn-Sham states=            9
     kinetic-energy cutoff     =      40.0000  Ry
     charge density cutoff     =     320.0000  Ry
     Exchange-correlation      = SLA  PW   PBE  PBE ( 1  4  3  4 0 0)

     celldm(1)=   9.400000  celldm(2)=   0.000000  celldm(3)=   0.000000
     celldm(4)=   0.000000  celldm(5)=   0.000000  celldm(6)=   0.000000

     crystal axes: (cart. coord. in units of alat)
               a(1) = (  -0.500000   0.000000   0.500000 )  
               a(2) = (   0.000000   0.500000   0.500000 )  
               a(3) = (  -0.500000   0.500000   0.000000 )  

     reciprocal axes: (cart. coord. in units 2 pi/alat)
               b(1) = ( -1.000000 -1.000000  1.000000 )  
               b(2) = (  1.000000  1.000000  1.000000 )  
               b(3) = ( -1.000000  1.000000 -1.000000 )  


     PseudoPot. # 1 for Na read from file:
     /home/s1333534/quantum_espresso/qe-6.1/pseudo/Na_pbe_v1.uspp.F.UPF
     MD5 check sum: 76a99c7e9422403d3e93cbc85ab7bccb
     Pseudo is Ultrasoft, Zval =  9.0
     Generated by new atomic code, or converted to UPF format
     Using radial grid of  819 points,  5 beta functions with: 
                l(1) =   0
                l(2) =   0
                l(3) =   1
                l(4) =   1
                l(5) =   2
     Q(r) pseudized with  8 coefficients,  rinner =    1.250   1.250   1.250
                                                       1.250   1.250

     atomic species   valence    mass     pseudopotential
        Na             9.00    22.99000     Na( 1.00)

     48 Sym. Ops., with inversion, found



   Cartesian axes

     site n.     atom                  positions (alat units)
         1           Na  tau(   1) = (   0.0000000   0.0000000   0.0000000  )

     number of k points= 32800  Marzari-Vanderbilt smearing, width (Ry)=  0.0200

     Number of k-points >= 100: set verbosity='high' to print them.

     Dense  grid:    20107 G-vectors     FFT dimensions: (  40,  40,  40)

     Smooth grid:     7119 G-vectors     FFT dimensions: (  27,  27,  27)

     Estimated max dynamical RAM per process >       0.69MB

     Estimated total allocated dynamical RAM >      44.18MB

     The potential is recalculated from file :
     ./_ph0/na.fcc.save/charge-density.dat

     Starting wfc are    5 atomic +    4 random wfc

     Band Structure Calculation
     Davidson diagonalization with overlap

     ethr =  1.11E-10,  avg # of iterations = 18.4

     total cpu time spent up to now is     1719.6 secs

     End of band structure calculation

     Number of k-points >= 100: set verbosity='high' to print the bands.

     the Fermi energy is     2.4614 ev

     Writing output data file na.fcc.save

                                                                                

     bravais-lattice index     =            2
     lattice parameter (alat)  =       9.4000  a.u.
     unit-cell volume          =     207.6460 (a.u.)^3
     number of atoms/cell      =            1
     number of atomic types    =            1
     kinetic-energy cut-off    =      40.0000  Ry
     charge density cut-off    =     320.0000  Ry
     convergence threshold     =      1.0E-16
     beta                      =       0.7000
     number of iterations used =            4
     Exchange-correlation      = SLA  PW   PBE  PBE ( 1  4  3  4 0 0)


     celldm(1)=    9.40000  celldm(2)=    0.00000  celldm(3)=    0.00000
     celldm(4)=    0.00000  celldm(5)=    0.00000  celldm(6)=    0.00000

     crystal axes: (cart. coord. in units of alat)
               a(1) = ( -0.5000  0.0000  0.5000 )  
               a(2) = (  0.0000  0.5000  0.5000 )  
               a(3) = ( -0.5000  0.5000  0.0000 )  

     reciprocal axes: (cart. coord. in units 2 pi/alat)
               b(1) = ( -1.0000 -1.0000  1.0000 )  
               b(2) = (  1.0000  1.0000  1.0000 )  
               b(3) = ( -1.0000  1.0000 -1.0000 )  


     Atoms inside the unit cell: 

     Cartesian axes

     site n.  atom      mass           positions (alat units)
        1     Na  22.9900   tau(    1) = (    0.00000    0.00000    0.00000  )

     Computing dynamical matrix for 
                    q = (   0.6666667  -0.3333333   0.6666667 )

      2 Sym.Ops. (no q -> -q+G )


     G cutoff =  716.2192  (   1257 G-vectors)     FFT grid: ( 40, 40, 40)
     G cutoff =  358.1096  (    446 G-vectors)  smooth grid: ( 27, 27, 27)

     number of k points= 32800  Marzari-Vanderbilt smearing, width (Ry)=  0.0200

     PseudoPot. # 1 for Na read from file:
     /home/s1333534/quantum_espresso/qe-6.1/pseudo/Na_pbe_v1.uspp.F.UPF
     MD5 check sum: 76a99c7e9422403d3e93cbc85ab7bccb
     Pseudo is Ultrasoft, Zval =  9.0
     Generated by new atomic code, or converted to UPF format
     Using radial grid of  819 points,  5 beta functions with: 
                l(1) =   0
                l(2) =   0
                l(3) =   1
                l(4) =   1
                l(5) =   2
     Q(r) pseudized with  8 coefficients,  rinner =    1.250   1.250   1.250
                                                       1.250   1.250

     Mode symmetry, C_s (m)     point group:


     Atomic displacements:
     There are   3 irreducible representations

     Representation     1      1 modes -A'  To be done

     Representation     2      1 modes -A'  To be done

     Representation     3      1 modes -A''  To be done



     Alpha used in Ewald sum =   2.8000
     PHONON       :     1h33m CPU        1h40m WALL



     Representation #  1 mode #   1

     Self-consistent Calculation

      iter #   1 total cpu time :  6117.8 secs   av.it.:   5.8
      thresh= 1.000E-02 alpha_mix =  0.700 |ddv_scf|^2 =  7.339E-05

      iter #   2 total cpu time :  6189.5 secs   av.it.:   7.4
      thresh= 8.567E-04 alpha_mix =  0.700 |ddv_scf|^2 =  5.079E-05

      iter #   3 total cpu time :  6258.9 secs   av.it.:   7.1
      thresh= 7.127E-04 alpha_mix =  0.700 |ddv_scf|^2 =  1.166E-07

      iter #   4 total cpu time :  6336.7 secs   av.it.:   8.3
      thresh= 3.414E-05 alpha_mix =  0.700 |ddv_scf|^2 =  8.798E-09

      iter #   5 total cpu time :  6413.8 secs   av.it.:   8.2
      thresh= 9.380E-06 alpha_mix =  0.700 |ddv_scf|^2 =  4.885E-10

      iter #   6 total cpu time :  6491.0 secs   av.it.:   8.0
      thresh= 2.210E-06 alpha_mix =  0.700 |ddv_scf|^2 =  7.241E-12

      iter #   7 total cpu time :  6569.7 secs   av.it.:   8.3
      thresh= 2.691E-07 alpha_mix =  0.700 |ddv_scf|^2 =  3.017E-13

      iter #   8 total cpu time :  6647.3 secs   av.it.:   8.3
      thresh= 5.492E-08 alpha_mix =  0.700 |ddv_scf|^2 =  2.475E-14

      iter #   9 total cpu time :  6724.8 secs   av.it.:   8.2
      thresh= 1.573E-08 alpha_mix =  0.700 |ddv_scf|^2 =  1.272E-15

      iter #  10 total cpu time :  6798.0 secs   av.it.:   7.4
      thresh= 3.567E-09 alpha_mix =  0.700 |ddv_scf|^2 =  7.528E-17

     End of self-consistent calculation

     Convergence has been achieved 


     Representation #  2 mode #   2

     Self-consistent Calculation

      iter #   1 total cpu time :  6868.0 secs   av.it.:   5.8
      thresh= 1.000E-02 alpha_mix =  0.700 |ddv_scf|^2 =  3.824E-05

      iter #   2 total cpu time :  6943.4 secs   av.it.:   7.7
      thresh= 6.184E-04 alpha_mix =  0.700 |ddv_scf|^2 =  1.591E-05

      iter #   3 total cpu time :  7015.1 secs   av.it.:   7.3
      thresh= 3.988E-04 alpha_mix =  0.700 |ddv_scf|^2 =  4.524E-07

      iter #   4 total cpu time :  7088.8 secs   av.it.:   7.7
      thresh= 6.726E-05 alpha_mix =  0.700 |ddv_scf|^2 =  1.392E-08

      iter #   5 total cpu time :  7165.6 secs   av.it.:   8.2
      thresh= 1.180E-05 alpha_mix =  0.700 |ddv_scf|^2 =  3.712E-10

      iter #   6 total cpu time :  7242.5 secs   av.it.:   8.1
      thresh= 1.927E-06 alpha_mix =  0.700 |ddv_scf|^2 =  1.765E-11

      iter #   7 total cpu time :  7320.6 secs   av.it.:   8.3
      thresh= 4.202E-07 alpha_mix =  0.700 |ddv_scf|^2 =  1.016E-12

      iter #   8 total cpu time :  7398.8 secs   av.it.:   8.4
      thresh= 1.008E-07 alpha_mix =  0.700 |ddv_scf|^2 =  2.955E-14

      iter #   9 total cpu time :  7476.9 secs   av.it.:   8.1
      thresh= 1.719E-08 alpha_mix =  0.700 |ddv_scf|^2 =  6.102E-15

      iter #  10 total cpu time :  7550.8 secs   av.it.:   7.6
      thresh= 7.812E-09 alpha_mix =  0.700 |ddv_scf|^2 =  1.299E-16

      iter #  11 total cpu time :  7628.0 secs   av.it.:   8.2
      thresh= 1.140E-09 alpha_mix =  0.700 |ddv_scf|^2 =  4.307E-18

     End of self-consistent calculation

     Convergence has been achieved 


     Representation #  3 mode #   3

     Self-consistent Calculation

      iter #   1 total cpu time :  7696.5 secs   av.it.:   5.5
      thresh= 1.000E-02 alpha_mix =  0.700 |ddv_scf|^2 =  1.150E-05

      iter #   2 total cpu time :  7771.5 secs   av.it.:   7.8
      thresh= 3.390E-04 alpha_mix =  0.700 |ddv_scf|^2 =  1.793E-07

      iter #   3 total cpu time :  7847.5 secs   av.it.:   8.0
      thresh= 4.234E-05 alpha_mix =  0.700 |ddv_scf|^2 =  7.506E-09

      iter #   4 total cpu time :  7920.3 secs   av.it.:   7.6
      thresh= 8.663E-06 alpha_mix =  0.700 |ddv_scf|^2 =  2.596E-11

      iter #   5 total cpu time :  7996.4 secs   av.it.:   8.0
      thresh= 5.095E-07 alpha_mix =  0.700 |ddv_scf|^2 =  2.655E-14

      iter #   6 total cpu time :  8064.8 secs   av.it.:   7.0
      thresh= 1.629E-08 alpha_mix =  0.700 |ddv_scf|^2 =  1.505E-15

      iter #   7 total cpu time :  8138.5 secs   av.it.:   7.7
      thresh= 3.879E-09 alpha_mix =  0.700 |ddv_scf|^2 =  1.531E-18

     End of self-consistent calculation

     Convergence has been achieved 

     Number of q in the star =   24
     List of q in the star:
          1   0.666666667  -0.333333333   0.666666667
          2  -0.666666667  -0.333333333  -0.666666667
          3   0.666666667  -0.333333333  -0.666666667
          4  -0.666666667  -0.333333333   0.666666667
          5  -0.333333333   0.666666667  -0.666666667
          6  -0.666666667   0.666666667  -0.333333333
          7   0.666666667   0.333333333   0.666666667
          8  -0.666666667   0.333333333   0.666666667
          9   0.666666667   0.333333333  -0.666666667
         10  -0.333333333   0.666666667   0.666666667
         11   0.333333333   0.666666667  -0.666666667
         12  -0.333333333  -0.666666667  -0.666666667
         13   0.666666667  -0.666666667   0.333333333
         14   0.666666667   0.666666667  -0.333333333
         15  -0.666666667  -0.666666667  -0.333333333
         16  -0.666666667   0.666666667   0.333333333
         17   0.333333333  -0.666666667   0.666666667
         18   0.333333333   0.666666667   0.666666667
         19  -0.666666667   0.333333333  -0.666666667
         20  -0.333333333  -0.666666667   0.666666667
         21  -0.666666667  -0.666666667   0.333333333
         22   0.666666667   0.666666667   0.333333333
         23   0.333333333  -0.666666667  -0.666666667
         24   0.666666667  -0.666666667  -0.333333333

     Diagonalizing the dynamical matrix

     q = (    0.666666667  -0.333333333   0.666666667 ) 

 **************************************************************************
     freq (    1) =       2.378247 [THz] =      79.329789 [cm-1]
     freq (    2) =       2.858959 [THz] =      95.364623 [cm-1]
     freq (    3) =       4.878935 [THz] =     162.743749 [cm-1]
 **************************************************************************

     Mode symmetry, C_s (m)     point group:

     freq (  1 -  1) =         79.3  [cm-1]   --> A''                
     freq (  2 -  2) =         95.4  [cm-1]   --> A'                 
     freq (  3 -  3) =        162.7  [cm-1]   --> A'                 

     Calculation of q =    0.5000000  -0.1666667   0.5000000

   Info: using nr1, nr2, nr3 values from input

   Info: using nr1, nr2, nr3 values from input

     Parallelization info
     --------------------
     sticks:   dense  smooth     PW     G-vecs:    dense   smooth      PW
     Min          60      30     11                 1255      444     103
     Max          62      32     12                 1257      446     106
     Sum         967     499    187                20107     7119    1687



     bravais-lattice index     =            2
     lattice parameter (alat)  =       9.4000  a.u.
     unit-cell volume          =     207.6460 (a.u.)^3
     number of atoms/cell      =            1
     number of atomic types    =            1
     number of electrons       =         9.00
     number of Kohn-Sham states=            9
     kinetic-energy cutoff     =      40.0000  Ry
     charge density cutoff     =     320.0000  Ry
     Exchange-correlation      = SLA  PW   PBE  PBE ( 1  4  3  4 0 0)

     celldm(1)=   9.400000  celldm(2)=   0.000000  celldm(3)=   0.000000
     celldm(4)=   0.000000  celldm(5)=   0.000000  celldm(6)=   0.000000

     crystal axes: (cart. coord. in units of alat)
               a(1) = (  -0.500000   0.000000   0.500000 )  
               a(2) = (   0.000000   0.500000   0.500000 )  
               a(3) = (  -0.500000   0.500000   0.000000 )  

     reciprocal axes: (cart. coord. in units 2 pi/alat)
               b(1) = ( -1.000000 -1.000000  1.000000 )  
               b(2) = (  1.000000  1.000000  1.000000 )  
               b(3) = ( -1.000000  1.000000 -1.000000 )  


     PseudoPot. # 1 for Na read from file:
     /home/s1333534/quantum_espresso/qe-6.1/pseudo/Na_pbe_v1.uspp.F.UPF
     MD5 check sum: 76a99c7e9422403d3e93cbc85ab7bccb
     Pseudo is Ultrasoft, Zval =  9.0
     Generated by new atomic code, or converted to UPF format
     Using radial grid of  819 points,  5 beta functions with: 
                l(1) =   0
                l(2) =   0
                l(3) =   1
                l(4) =   1
                l(5) =   2
     Q(r) pseudized with  8 coefficients,  rinner =    1.250   1.250   1.250
                                                       1.250   1.250

     atomic species   valence    mass     pseudopotential
        Na             9.00    22.99000     Na( 1.00)

     48 Sym. Ops., with inversion, found



   Cartesian axes

     site n.     atom                  positions (alat units)
         1           Na  tau(   1) = (   0.0000000   0.0000000   0.0000000  )

     number of k points= 32800  Marzari-Vanderbilt smearing, width (Ry)=  0.0200

     Number of k-points >= 100: set verbosity='high' to print them.

     Dense  grid:    20107 G-vectors     FFT dimensions: (  40,  40,  40)

     Smooth grid:     7119 G-vectors     FFT dimensions: (  27,  27,  27)

     Estimated max dynamical RAM per process >       0.69MB

     Estimated total allocated dynamical RAM >      44.18MB

     The potential is recalculated from file :
     ./_ph0/na.fcc.save/charge-density.dat

     Starting wfc are    5 atomic +    4 random wfc

     Band Structure Calculation
     Davidson diagonalization with overlap

     ethr =  1.11E-10,  avg # of iterations = 18.4

     total cpu time spent up to now is     2308.4 secs

     End of band structure calculation

     Number of k-points >= 100: set verbosity='high' to print the bands.

     the Fermi energy is     2.4614 ev

     Writing output data file na.fcc.save

                                                                                

     bravais-lattice index     =            2
     lattice parameter (alat)  =       9.4000  a.u.
     unit-cell volume          =     207.6460 (a.u.)^3
     number of atoms/cell      =            1
     number of atomic types    =            1
     kinetic-energy cut-off    =      40.0000  Ry
     charge density cut-off    =     320.0000  Ry
     convergence threshold     =      1.0E-16
     beta                      =       0.7000
     number of iterations used =            4
     Exchange-correlation      = SLA  PW   PBE  PBE ( 1  4  3  4 0 0)


     celldm(1)=    9.40000  celldm(2)=    0.00000  celldm(3)=    0.00000
     celldm(4)=    0.00000  celldm(5)=    0.00000  celldm(6)=    0.00000

     crystal axes: (cart. coord. in units of alat)
               a(1) = ( -0.5000  0.0000  0.5000 )  
               a(2) = (  0.0000  0.5000  0.5000 )  
               a(3) = ( -0.5000  0.5000  0.0000 )  

     reciprocal axes: (cart. coord. in units 2 pi/alat)
               b(1) = ( -1.0000 -1.0000  1.0000 )  
               b(2) = (  1.0000  1.0000  1.0000 )  
               b(3) = ( -1.0000  1.0000 -1.0000 )  


     Atoms inside the unit cell: 

     Cartesian axes

     site n.  atom      mass           positions (alat units)
        1     Na  22.9900   tau(    1) = (    0.00000    0.00000    0.00000  )

     Computing dynamical matrix for 
                    q = (   0.5000000  -0.1666667   0.5000000 )

      2 Sym.Ops. (no q -> -q+G )


     G cutoff =  716.2192  (   1257 G-vectors)     FFT grid: ( 40, 40, 40)
     G cutoff =  358.1096  (    446 G-vectors)  smooth grid: ( 27, 27, 27)

     number of k points= 32800  Marzari-Vanderbilt smearing, width (Ry)=  0.0200

     PseudoPot. # 1 for Na read from file:
     /home/s1333534/quantum_espresso/qe-6.1/pseudo/Na_pbe_v1.uspp.F.UPF
     MD5 check sum: 76a99c7e9422403d3e93cbc85ab7bccb
     Pseudo is Ultrasoft, Zval =  9.0
     Generated by new atomic code, or converted to UPF format
     Using radial grid of  819 points,  5 beta functions with: 
                l(1) =   0
                l(2) =   0
                l(3) =   1
                l(4) =   1
                l(5) =   2
     Q(r) pseudized with  8 coefficients,  rinner =    1.250   1.250   1.250
                                                       1.250   1.250

     Mode symmetry, C_s (m)     point group:


     Atomic displacements:
     There are   3 irreducible representations

     Representation     1      1 modes -A'  To be done

     Representation     2      1 modes -A'  To be done

     Representation     3      1 modes -A''  To be done



     Alpha used in Ewald sum =   2.8000
     PHONON       :     2h14m CPU        2h25m WALL



     Representation #  1 mode #   1

     Self-consistent Calculation

      iter #   1 total cpu time :  8821.0 secs   av.it.:   5.8
[...]

      iter #   4 total cpu time : 21371.0 secs   av.it.:   8.3
      thresh= 1.852E-05 alpha_mix =  0.700 |ddv_scf|^2 =  1.018E-09

      iter #   5 total cpu time : 21443.2 secs   av.it.:   7.8
      thresh= 3.191E-06 alpha_mix =  0.700 |ddv_scf|^2 =  3.107E-11

      iter #   6 total cpu time : 21514.1 secs   av.it.:   7.6
      thresh= 5.574E-07 alpha_mix =  0.700 |ddv_scf|^2 =  5.769E-14

      iter #   7 total cpu time : 21586.5 secs   av.it.:   8.0
      thresh= 2.402E-08 alpha_mix =  0.700 |ddv_scf|^2 =  4.261E-15

      iter #   8 total cpu time : 21659.0 secs   av.it.:   7.9
      thresh= 6.527E-09 alpha_mix =  0.700 |ddv_scf|^2 =  1.248E-17

     End of self-consistent calculation

     Convergence has been achieved 

     Number of q in the star =   24
     List of q in the star:
          1   0.500000000  -0.166666667   0.833333333
          2   0.833333333   0.166666667   0.500000000
          3   0.500000000   0.166666667   0.833333333
          4  -0.833333333  -0.166666667   0.500000000
          5  -0.833333333  -0.166666667  -0.500000000
          6  -0.500000000  -0.166666667  -0.833333333
          7   0.833333333  -0.166666667   0.500000000
          8  -0.500000000  -0.166666667   0.833333333
          9  -0.833333333   0.166666667   0.500000000
         10   0.833333333   0.166666667  -0.500000000
         11   0.833333333  -0.166666667  -0.500000000
         12   0.500000000   0.166666667  -0.833333333
         13  -0.500000000   0.166666667   0.833333333
         14  -0.500000000   0.166666667  -0.833333333
         15  -0.833333333   0.166666667  -0.500000000
         16   0.833333333  -0.500000000   0.166666667
         17   0.833333333   0.500000000  -0.166666667
         18  -0.833333333  -0.500000000  -0.166666667
         19  -0.833333333   0.500000000   0.166666667
         20   0.166666667  -0.500000000   0.833333333
         21  -0.166666667   0.500000000   0.833333333
         22   0.166666667   0.500000000  -0.833333333
         23  -0.166666667  -0.500000000  -0.833333333
         24  -0.500000000   0.833333333   0.166666667

     Diagonalizing the dynamical matrix

     q = (    0.500000000  -0.166666667   0.833333333 ) 

 **************************************************************************
     freq (    1) =       2.835340 [THz] =      94.576751 [cm-1]
     freq (    2) =       3.919557 [THz] =     130.742337 [cm-1]
     freq (    3) =       4.640802 [THz] =     154.800481 [cm-1]
 **************************************************************************

     Mode symmetry, C_2  (2)    point group:

     freq (  1 -  1) =         94.6  [cm-1]   --> B                  
     freq (  2 -  2) =        130.7  [cm-1]   --> A                  
     freq (  3 -  3) =        154.8  [cm-1]   --> B                  

     Calculation of q =   -0.3333333  -1.0000000   0.0000000

   Info: using nr1, nr2, nr3 values from input

   Info: using nr1, nr2, nr3 values from input

     Parallelization info
     --------------------
     sticks:   dense  smooth     PW     G-vecs:    dense   smooth      PW
     Min          60      30     12                 1255      444     113
     Max          62      32     13                 1257      446     116
     Sum         967     499    199                20107     7119    1837



     bravais-lattice index     =            2
     lattice parameter (alat)  =       9.4000  a.u.
     unit-cell volume          =     207.6460 (a.u.)^3
     number of atoms/cell      =            1
     number of atomic types    =            1
     number of electrons       =         9.00
     number of Kohn-Sham states=            9
     kinetic-energy cutoff     =      40.0000  Ry
     charge density cutoff     =     320.0000  Ry
     Exchange-correlation      = SLA  PW   PBE  PBE ( 1  4  3  4 0 0)

     celldm(1)=   9.400000  celldm(2)=   0.000000  celldm(3)=   0.000000
     celldm(4)=   0.000000  celldm(5)=   0.000000  celldm(6)=   0.000000

     crystal axes: (cart. coord. in units of alat)
               a(1) = (  -0.500000   0.000000   0.500000 )  
               a(2) = (   0.000000   0.500000   0.500000 )  
               a(3) = (  -0.500000   0.500000   0.000000 )  

     reciprocal axes: (cart. coord. in units 2 pi/alat)
               b(1) = ( -1.000000 -1.000000  1.000000 )  
               b(2) = (  1.000000  1.000000  1.000000 )  
               b(3) = ( -1.000000  1.000000 -1.000000 )  


     PseudoPot. # 1 for Na read from file:
     /home/s1333534/quantum_espresso/qe-6.1/pseudo/Na_pbe_v1.uspp.F.UPF
     MD5 check sum: 76a99c7e9422403d3e93cbc85ab7bccb
     Pseudo is Ultrasoft, Zval =  9.0
     Generated by new atomic code, or converted to UPF format
     Using radial grid of  819 points,  5 beta functions with: 
                l(1) =   0
                l(2) =   0
                l(3) =   1
                l(4) =   1
                l(5) =   2
     Q(r) pseudized with  8 coefficients,  rinner =    1.250   1.250   1.250
                                                       1.250   1.250

     atomic species   valence    mass     pseudopotential
        Na             9.00    22.99000     Na( 1.00)

     48 Sym. Ops., with inversion, found



   Cartesian axes

     site n.     atom                  positions (alat units)
         1           Na  tau(   1) = (   0.0000000   0.0000000   0.0000000  )

     number of k points= 16000  Marzari-Vanderbilt smearing, width (Ry)=  0.0200

     Number of k-points >= 100: set verbosity='high' to print them.

     Dense  grid:    20107 G-vectors     FFT dimensions: (  40,  40,  40)

     Smooth grid:     7119 G-vectors     FFT dimensions: (  27,  27,  27)

     Estimated max dynamical RAM per process >       0.69MB

     Estimated total allocated dynamical RAM >      44.18MB

     The potential is recalculated from file :
     ./_ph0/na.fcc.save/charge-density.dat

     Starting wfc are    5 atomic +    4 random wfc

     Band Structure Calculation
     Davidson diagonalization with overlap

     ethr =  1.11E-10,  avg # of iterations = 18.4

     total cpu time spent up to now is     5241.1 secs

     End of band structure calculation

     Number of k-points >= 100: set verbosity='high' to print the bands.

     the Fermi energy is     2.4614 ev

     Writing output data file na.fcc.save

                                                                                

     bravais-lattice index     =            2
     lattice parameter (alat)  =       9.4000  a.u.
     unit-cell volume          =     207.6460 (a.u.)^3
     number of atoms/cell      =            1
     number of atomic types    =            1
     kinetic-energy cut-off    =      40.0000  Ry
     charge density cut-off    =     320.0000  Ry
     convergence threshold     =      1.0E-16
     beta                      =       0.7000
     number of iterations used =            4
     Exchange-correlation      = SLA  PW   PBE  PBE ( 1  4  3  4 0 0)


     celldm(1)=    9.40000  celldm(2)=    0.00000  celldm(3)=    0.00000
     celldm(4)=    0.00000  celldm(5)=    0.00000  celldm(6)=    0.00000

     crystal axes: (cart. coord. in units of alat)
               a(1) = ( -0.5000  0.0000  0.5000 )  
               a(2) = (  0.0000  0.5000  0.5000 )  
               a(3) = ( -0.5000  0.5000  0.0000 )  

     reciprocal axes: (cart. coord. in units 2 pi/alat)
               b(1) = ( -1.0000 -1.0000  1.0000 )  
               b(2) = (  1.0000  1.0000  1.0000 )  
               b(3) = ( -1.0000  1.0000 -1.0000 )  


     Atoms inside the unit cell: 

     Cartesian axes

     site n.  atom      mass           positions (alat units)
        1     Na  22.9900   tau(    1) = (    0.00000    0.00000    0.00000  )

     Computing dynamical matrix for 
                    q = (  -0.3333333  -1.0000000   0.0000000 )

      4 Sym.Ops. (no q -> -q+G )


     G cutoff =  716.2192  (   1257 G-vectors)     FFT grid: ( 40, 40, 40)
     G cutoff =  358.1096  (    446 G-vectors)  smooth grid: ( 27, 27, 27)

     number of k points= 16000  Marzari-Vanderbilt smearing, width (Ry)=  0.0200

     PseudoPot. # 1 for Na read from file:
     /home/s1333534/quantum_espresso/qe-6.1/pseudo/Na_pbe_v1.uspp.F.UPF
     MD5 check sum: 76a99c7e9422403d3e93cbc85ab7bccb
     Pseudo is Ultrasoft, Zval =  9.0
     Generated by new atomic code, or converted to UPF format
     Using radial grid of  819 points,  5 beta functions with: 
                l(1) =   0
                l(2) =   0
                l(3) =   1
                l(4) =   1
                l(5) =   2
     Q(r) pseudized with  8 coefficients,  rinner =    1.250   1.250   1.250
                                                       1.250   1.250

     Mode symmetry, C_2v (mm2)  point group:


     Atomic displacements:
     There are   3 irreducible representations

     Representation     1      1 modes -A_1  D_1  S_1  To be done

     Representation     2      1 modes -B_1  D_3  S_3  To be done

     Representation     3      1 modes -B_2  D_4  S_4  To be done



     Alpha used in Ewald sum =   2.8000
     PHONON       :     5h37m CPU        6h 6m WALL



     Representation #  1 mode #   1

     Self-consistent Calculation

      iter #   1 total cpu time : 22002.6 secs   av.it.:   5.6
      thresh= 1.000E-02 alpha_mix =  0.700 |ddv_scf|^2 =  1.725E-05

      iter #   2 total cpu time : 22040.1 secs   av.it.:   8.0
      thresh= 4.153E-04 alpha_mix =  0.700 |ddv_scf|^2 =  5.544E-07

      iter #   3 total cpu time : 22076.8 secs   av.it.:   7.8
      thresh= 7.446E-05 alpha_mix =  0.700 |ddv_scf|^2 =  1.793E-08

      iter #   4 total cpu time : 22114.3 secs   av.it.:   8.2
      thresh= 1.339E-05 alpha_mix =  0.700 |ddv_scf|^2 =  8.091E-10

      iter #   5 total cpu time : 22151.0 secs   av.it.:   8.1
      thresh= 2.844E-06 alpha_mix =  0.700 |ddv_scf|^2 =  4.585E-11

      iter #   6 total cpu time : 22189.0 secs   av.it.:   8.2
      thresh= 6.772E-07 alpha_mix =  0.700 |ddv_scf|^2 =  3.444E-12

      iter #   7 total cpu time : 22226.1 secs   av.it.:   8.1
      thresh= 1.856E-07 alpha_mix =  0.700 |ddv_scf|^2 =  5.963E-14

      iter #   8 total cpu time : 22262.6 secs   av.it.:   7.9
      thresh= 2.442E-08 alpha_mix =  0.700 |ddv_scf|^2 =  6.436E-16

      iter #   9 total cpu time : 22300.2 secs   av.it.:   8.2
      thresh= 2.537E-09 alpha_mix =  0.700 |ddv_scf|^2 =  3.666E-17

     End of self-consistent calculation

     Convergence has been achieved 


     Representation #  2 mode #   2

     Self-consistent Calculation

      iter #   1 total cpu time : 22333.2 secs   av.it.:   5.6
      thresh= 1.000E-02 alpha_mix =  0.700 |ddv_scf|^2 =  1.917E-05

      iter #   2 total cpu time : 22369.8 secs   av.it.:   7.9
      thresh= 4.378E-04 alpha_mix =  0.700 |ddv_scf|^2 =  3.816E-07

      iter #   3 total cpu time : 22406.2 secs   av.it.:   7.8
      thresh= 6.177E-05 alpha_mix =  0.700 |ddv_scf|^2 =  1.948E-08

      iter #   4 total cpu time : 22444.2 secs   av.it.:   8.0
      thresh= 1.396E-05 alpha_mix =  0.700 |ddv_scf|^2 =  1.992E-10

      iter #   5 total cpu time : 22478.2 secs   av.it.:   7.2
      thresh= 1.411E-06 alpha_mix =  0.700 |ddv_scf|^2 =  1.565E-13

      iter #   6 total cpu time : 22514.2 secs   av.it.:   7.7
      thresh= 3.956E-08 alpha_mix =  0.700 |ddv_scf|^2 =  4.872E-15

      iter #   7 total cpu time : 22549.5 secs   av.it.:   7.7
      thresh= 6.980E-09 alpha_mix =  0.700 |ddv_scf|^2 =  4.423E-17

     End of self-consistent calculation

     Convergence has been achieved 


     Representation #  3 mode #   3

     Self-consistent Calculation

      iter #   1 total cpu time : 22583.0 secs   av.it.:   5.6
      thresh= 1.000E-02 alpha_mix =  0.700 |ddv_scf|^2 =  3.725E-05

      iter #   2 total cpu time : 22618.8 secs   av.it.:   7.6
      thresh= 6.104E-04 alpha_mix =  0.700 |ddv_scf|^2 =  3.677E-06

      iter #   3 total cpu time : 22653.6 secs   av.it.:   7.3
      thresh= 1.917E-04 alpha_mix =  0.700 |ddv_scf|^2 =  3.796E-08

      iter #   4 total cpu time : 22691.0 secs   av.it.:   8.0
      thresh= 1.948E-05 alpha_mix =  0.700 |ddv_scf|^2 =  1.638E-10

      iter #   5 total cpu time : 22725.7 secs   av.it.:   7.2
      thresh= 1.280E-06 alpha_mix =  0.700 |ddv_scf|^2 =  1.890E-13

      iter #   6 total cpu time : 22761.9 secs   av.it.:   7.6
      thresh= 4.347E-08 alpha_mix =  0.700 |ddv_scf|^2 =  9.026E-15

      iter #   7 total cpu time : 22796.5 secs   av.it.:   7.3
      thresh= 9.501E-09 alpha_mix =  0.700 |ddv_scf|^2 =  1.679E-17

     End of self-consistent calculation

     Convergence has been achieved 

     Number of q in the star =   12
     List of q in the star:
          1  -0.333333333  -1.000000000   0.000000000
          2   0.000000000  -1.000000000  -0.333333333
          3   0.000000000  -1.000000000   0.333333333
          4   0.333333333  -1.000000000   0.000000000
          5  -1.000000000   0.000000000  -0.333333333
          6   1.000000000   0.000000000   0.333333333
          7   0.000000000   0.333333333   1.000000000
          8   0.000000000  -0.333333333  -1.000000000
          9  -1.000000000  -0.333333333   0.000000000
         10   1.000000000   0.333333333   0.000000000
         11  -0.333333333   0.000000000   1.000000000
         12   0.333333333   0.000000000   1.000000000

     Diagonalizing the dynamical matrix

     q = (   -0.333333333  -1.000000000   0.000000000 ) 

 **************************************************************************
     freq (    1) =       3.256013 [THz] =     108.608899 [cm-1]
     freq (    2) =       3.907286 [THz] =     130.333041 [cm-1]
     freq (    3) =       4.783654 [THz] =     159.565535 [cm-1]
 **************************************************************************

     Mode symmetry, C_2v (mm2)  point group:

     freq (  1 -  1) =        108.6  [cm-1]   --> A_1  D_1  S_1      
     freq (  2 -  2) =        130.3  [cm-1]   --> B_1  D_3  S_3      
     freq (  3 -  3) =        159.6  [cm-1]   --> B_2  D_4  S_4      

     init_run     :      3.18s CPU      3.33s WALL (      15 calls)
     electrons    :   4163.89s CPU   4410.04s WALL (      15 calls)

     Called by init_run:
     wfcinit      :      0.00s CPU      0.00s WALL (      15 calls)
     potinit      :      0.46s CPU      0.47s WALL (      15 calls)

     Called by electrons:
     c_bands      :   4162.71s CPU   4408.84s WALL (      15 calls)
     v_of_rho     :      0.18s CPU      0.19s WALL (      16 calls)
     newd         :      0.14s CPU      0.15s WALL (      16 calls)

     Called by c_bands:
     init_us_2    :     86.24s CPU     93.59s WALL ( 1264344 calls)
     cegterg      :   3293.51s CPU   3517.37s WALL (   93530 calls)

     Called by sum_band:

     Called by *egterg:
     h_psi        :  12346.13s CPU  13376.74s WALL (11594972 calls)
     s_psi        :    337.86s CPU    372.80s WALL (22582755 calls)
     g_psi        :     10.25s CPU     11.11s WALL ( 1425215 calls)
     cdiaghg      :    897.00s CPU    955.57s WALL ( 1498641 calls)

     Called by h_psi:
     h_psi:pot    :  12260.15s CPU  13280.21s WALL (11594972 calls)
     h_psi:calbec :    704.46s CPU    757.31s WALL (11594972 calls)
     vloc_psi     :  11241.17s CPU  12182.27s WALL (11594972 calls)
     add_vuspsi   :    183.11s CPU    201.35s WALL (11594972 calls)

     General routines
     calbec       :   1326.61s CPU   1433.84s WALL (24637432 calls)
     fft          :      4.48s CPU      5.02s WALL (    6481 calls)
     ffts         :     19.37s CPU     21.26s WALL (  112706 calls)
     fftw         :  12398.19s CPU  13490.35s WALL (******** calls)
     interpolate  :      0.75s CPU      0.99s WALL (     888 calls)
     davcio       :    121.12s CPU    206.66s WALL ( 5131377 calls)

     Parallel routines
     fft_scatter  :   5383.55s CPU   5851.79s WALL (******** calls)

     PHONON       :     5h50m CPU        6h19m WALL

     INITIALIZATION: 
     phq_setup    :      0.63s CPU      0.69s WALL (      16 calls)
     phq_init     :    229.25s CPU    242.60s WALL (      16 calls)

     phq_init     :    229.25s CPU    242.60s WALL (      16 calls)
     init_vloc    :      0.13s CPU      0.13s WALL (      16 calls)
     init_us_1    :      1.36s CPU      1.48s WALL (      16 calls)
     newd         :      0.14s CPU      0.15s WALL (      16 calls)
     dvanqq       :      0.62s CPU      0.63s WALL (      16 calls)
     drho         :    177.55s CPU    187.95s WALL (      16 calls)

     DYNAMICAL MATRIX:
     dynmat0      :     34.10s CPU     35.60s WALL (      16 calls)
     phqscf       :  15744.41s CPU  17255.73s WALL (      16 calls)
     dynmatrix    :      0.10s CPU      0.11s WALL (      16 calls)

     phqscf       :  15744.41s CPU  17255.73s WALL (      16 calls)
     solve_linter :  15687.22s CPU  17194.74s WALL (      40 calls)
     drhodv       :     56.91s CPU     60.46s WALL (      40 calls)

     dynmat0      :     34.10s CPU     35.60s WALL (      16 calls)
     dynmat_us    :     34.05s CPU     35.55s WALL (      16 calls)
     d2ionq       :      0.01s CPU      0.01s WALL (      16 calls)

     dynmat_us    :     34.05s CPU     35.55s WALL (      16 calls)
     addusdynmat  :      0.00s CPU      0.00s WALL (      16 calls)

     phqscf       :  15744.41s CPU  17255.73s WALL (      16 calls)
     solve_linter :  15687.22s CPU  17194.74s WALL (      40 calls)

     solve_linter :  15687.22s CPU  17194.74s WALL (      40 calls)
     dvqpsi_us    :    311.34s CPU    334.41s WALL (  110718 calls)
     ortho        :    202.43s CPU    217.54s WALL (  984982 calls)
     cgsolve      :  12440.39s CPU  13552.24s WALL (  984982 calls)
     incdrhoscf   :   1188.71s CPU   1356.11s WALL (  984982 calls)
     addusddens   :      4.28s CPU      4.42s WALL (     390 calls)
     vpsifft      :    989.72s CPU   1077.21s WALL (  874264 calls)
     dv_of_drho   :      3.47s CPU      3.80s WALL (     404 calls)
     mix_pot      :      0.72s CPU      2.55s WALL (     350 calls)
     ef_shift     :      0.03s CPU      0.14s WALL (       7 calls)
     localdos     :      0.22s CPU      0.23s WALL (       1 calls)
     psymdvscf    :     25.91s CPU     26.67s WALL (     350 calls)
     newdq        :      4.36s CPU      4.41s WALL (     350 calls)
     adddvscf     :     52.70s CPU     56.64s WALL (  874264 calls)
     drhodvus     :      0.06s CPU      0.06s WALL (      40 calls)

     dvqpsi_us    :    311.34s CPU    334.41s WALL (  110718 calls)
     dvqpsi_us_on :     52.39s CPU     55.19s WALL (  110718 calls)

     cgsolve      :  12440.39s CPU  13552.24s WALL (  984982 calls)
     ch_psi       :  11767.84s CPU  12810.64s WALL (10002801 calls)

     ch_psi       :  11767.84s CPU  12810.64s WALL (10002801 calls)
     h_psi        :  12346.13s CPU  13376.74s WALL (11594972 calls)
     last         :   1200.86s CPU   1314.03s WALL (10002801 calls)

     h_psi        :  12346.13s CPU  13376.74s WALL (11594972 calls)
     add_vuspsi   :    183.11s CPU    201.35s WALL (11594972 calls)

     incdrhoscf   :   1188.71s CPU   1356.11s WALL (  984982 calls)
     addusdbec    :     99.73s CPU    106.40s WALL ( 1095700 calls)

     drhodvus     :      0.06s CPU      0.06s WALL (      40 calls)

      General routines
     calbec       :   1326.61s CPU   1433.84s WALL (24637432 calls)
     fft          :      4.48s CPU      5.02s WALL (    6481 calls)
     ffts         :     19.37s CPU     21.26s WALL (  112706 calls)
     fftw         :  12398.19s CPU  13490.35s WALL (******** calls)
     davcio       :    121.12s CPU    206.66s WALL ( 5131377 calls)
     write_rec    :      1.58s CPU      3.40s WALL (     390 calls)


     PHONON       :     5h50m CPU        6h19m WALL


   This run was terminated on:   0:12: 5  14Feb2018            

=------------------------------------------------------------------------------=
   JOB DONE.
=------------------------------------------------------------------------------=
