
     Program PWSCF v.5.4.0 starts on  7Jun2016 at  9:36:47 

     This program is part of the open-source Quantum ESPRESSO suite
     for quantum simulation of materials; please cite
         "P. Giannozzi et al., J. Phys.:Condens. Matter 21 395502 (2009);
          URL http://www.quantum-espresso.org", 
     in publications or presentations arising from this work. More details at
     http://www.quantum-espresso.org/quote

     Parallel version (MPI), running on   384 processors
     K-points division:     npool     =     384
     Waiting for input...
     Reading input from standard input
     Message from routine read_cards :
     DEPRECATED: no units specified in ATOMIC_POSITIONS card
     Message from routine read_cards :
     ATOMIC_POSITIONS: units set to alat

     Current dimensions of program PWSCF are:
     Max number of different atomic species (ntypx) = 10
     Max number of k-points (npk) = 400000
     Max angular momentum in pseudopotentials (lmaxx) =  3

     Subspace diagonalization in iterative solution of the eigenvalue problem:
     a serial algorithm will be used

 
     G-vector sticks info
     --------------------
     sticks:   dense  smooth     PW     G-vecs:    dense   smooth      PW
     Sum        1123     559    187                24693     8801    1687
 


     bravais-lattice index     =            2
     lattice parameter (alat)  =       8.2290  a.u.
     unit-cell volume          =     139.3078 (a.u.)^3
     number of atoms/cell      =            1
     number of atomic types    =            1
     number of electrons       =         3.00
     number of Kohn-Sham states=            6
     kinetic-energy cutoff     =      60.0000  Ry
     charge density cutoff     =     480.0000  Ry
     convergence threshold     =      1.0E-11
     mixing beta               =       0.7000
     number of iterations used =            8  plain     mixing
     Exchange-correlation      =  SLA  PW   PBX  PBC ( 1  4  3  4 0 0)

     celldm(1)=   8.228963  celldm(2)=   0.000000  celldm(3)=   0.000000
     celldm(4)=   0.000000  celldm(5)=   0.000000  celldm(6)=   0.000000

     crystal axes: (cart. coord. in units of alat)
               a(1) = (  -0.500000   0.000000   0.500000 )  
               a(2) = (   0.000000   0.500000   0.500000 )  
               a(3) = (  -0.500000   0.500000   0.000000 )  

     reciprocal axes: (cart. coord. in units 2 pi/alat)
               b(1) = ( -1.000000 -1.000000  1.000000 )  
               b(2) = (  1.000000  1.000000  1.000000 )  
               b(3) = ( -1.000000  1.000000 -1.000000 )  


     PseudoPot. # 1 for Li read from file:
     ../Li.pbe-s-gbrv14.UPF
     MD5 check sum: 7ca33c4f951f001da2db5c8738379802
     Pseudo is Ultrasoft, Zval =  3.0
     Generated by new atomic code, or converted to UPF format
     Using radial grid of  751 points,  5 beta functions with: 
                l(1) =   0
                l(2) =   0
                l(3) =   0
                l(4) =   1
                l(5) =   1
     Q(r) pseudized with 10 coefficients,  rinner =    1.150   1.150   1.150


     atomic species   valence    mass     pseudopotential
        Li             3.00     6.94100     Li( 1.00)

     48 Sym. Ops., with inversion, found



   Cartesian axes

     site n.     atom                  positions (alat units)
         1           Li  tau(   1) = (   0.0000000   0.0000000   0.0000000  )

     number of k points=  2030  Marzari-Vanderbilt smearing, width (Ry)=  0.0200

     Number of k-points >= 100: set verbosity='high' to print them.

     Dense  grid:    24693 G-vectors     FFT dimensions: (  45,  45,  45)

     Smooth grid:     8801 G-vectors     FFT dimensions: (  30,  30,  30)

     Largest allocated arrays     est. size (Mb)     dimensions
        Kohn-Sham Wavefunctions         0.10 Mb     (    1113,    6)
        NL pseudopotentials             0.15 Mb     (    1113,    9)
        Each V/rho on FFT grid          1.39 Mb     (   91125)
        Each G-vector array             0.19 Mb     (   24693)
        G-vector shells                 0.00 Mb     (     277)
     Largest temporary arrays     est. size (Mb)     dimensions
        Auxiliary wavefunctions         0.41 Mb     (    1113,   24)
        Each subspace H/S matrix        0.01 Mb     (      24,   24)
        Each <psi_i|beta_j> matrix      0.00 Mb     (       9,    6)
        Arrays for rho mixing          11.12 Mb     (   91125,    8)

     Initial potential from superposition of free atoms

     starting charge    2.54926, renormalised to    3.00000
     Starting wfc are    5 randomized atomic wfcs +    1 random wfc

     total cpu time spent up to now is        0.5 secs

     per-process dynamical memory:    24.7 Mb

     Self-consistent Calculation

     iteration #  1     ecut=    60.00 Ry     beta=0.70
     Davidson diagonalization with overlap
     ethr =  1.00E-02,  avg # of iterations =  5.0

     total cpu time spent up to now is        0.9 secs

     total energy              =     -14.46699175 Ry
     Harris-Foulkes estimate   =     -14.58663795 Ry
     estimated scf accuracy    <       0.16485337 Ry

     iteration #  2     ecut=    60.00 Ry     beta=0.70
     Davidson diagonalization with overlap
     ethr =  5.50E-03,  avg # of iterations =  1.0

     total cpu time spent up to now is        1.2 secs

     total energy              =     -14.47059013 Ry
     Harris-Foulkes estimate   =     -14.47608186 Ry
     estimated scf accuracy    <       0.00730328 Ry

     iteration #  3     ecut=    60.00 Ry     beta=0.70
     Davidson diagonalization with overlap
     ethr =  2.43E-04,  avg # of iterations =  2.1

     total cpu time spent up to now is        1.5 secs

     total energy              =     -14.47215488 Ry
     Harris-Foulkes estimate   =     -14.47214659 Ry
     estimated scf accuracy    <       0.00003313 Ry

     iteration #  4     ecut=    60.00 Ry     beta=0.70
     Davidson diagonalization with overlap
     ethr =  1.10E-06,  avg # of iterations =  3.7

     total cpu time spent up to now is        1.9 secs

     total energy              =     -14.47216185 Ry
     Harris-Foulkes estimate   =     -14.47216181 Ry
     estimated scf accuracy    <       0.00000063 Ry

     iteration #  5     ecut=    60.00 Ry     beta=0.70
     Davidson diagonalization with overlap
     ethr =  2.09E-08,  avg # of iterations =  2.2

     total cpu time spent up to now is        2.2 secs

     total energy              =     -14.47216218 Ry
     Harris-Foulkes estimate   =     -14.47216218 Ry
     estimated scf accuracy    <       0.00000001 Ry

     iteration #  6     ecut=    60.00 Ry     beta=0.70
     Davidson diagonalization with overlap
     ethr =  4.77E-10,  avg # of iterations =  2.0

     total cpu time spent up to now is        2.5 secs

     total energy              =     -14.47216218 Ry
     Harris-Foulkes estimate   =     -14.47216218 Ry
     estimated scf accuracy    <          1.5E-10 Ry

     iteration #  7     ecut=    60.00 Ry     beta=0.70
     Davidson diagonalization with overlap
     ethr =  4.88E-12,  avg # of iterations =  2.0

     total cpu time spent up to now is        2.8 secs

     End of self-consistent calculation

     Number of k-points >= 100: set verbosity='high' to print the bands.

     the Fermi energy is     0.8806 ev

!    total energy              =     -14.47216218 Ry
     Harris-Foulkes estimate   =     -14.47216218 Ry
     estimated scf accuracy    <          6.3E-13 Ry

     The total energy is the sum of the following terms:

     one-electron contribution =      -9.75813761 Ry
     hartree contribution      =       3.67502545 Ry
     xc contribution           =      -3.37449158 Ry
     ewald contribution        =      -5.01445427 Ry
     smearing contrib. (-TS)   =      -0.00010416 Ry

     convergence has been achieved in   7 iterations


     entering subroutine stress ...

          total   stress  (Ry/bohr**3)                   (kbar)     P=   -2.76
  -0.00001874   0.00000000   0.00000000         -2.76      0.00      0.00
   0.00000000  -0.00001874  -0.00000000          0.00     -2.76     -0.00
   0.00000000  -0.00000000  -0.00001874          0.00     -0.00     -2.76


     Writing output data file li-fcc.save
 
     init_run     :      0.34s CPU      0.36s WALL (       1 calls)
     electrons    :      2.25s CPU      2.32s WALL (       1 calls)
     stress       :      0.16s CPU      0.16s WALL (       1 calls)

     Called by init_run:
     wfcinit      :      0.04s CPU      0.04s WALL (       1 calls)
     potinit      :      0.08s CPU      0.09s WALL (       1 calls)

     Called by electrons:
     c_bands      :      0.97s CPU      1.00s WALL (       7 calls)
     sum_band     :      0.47s CPU      0.48s WALL (       7 calls)
     v_of_rho     :      0.52s CPU      0.53s WALL (       8 calls)
     newd         :      0.16s CPU      0.18s WALL (       8 calls)
     mix_rho      :      0.06s CPU      0.06s WALL (       7 calls)

     Called by c_bands:
     init_us_2    :      0.01s CPU      0.02s WALL (      96 calls)
     cegterg      :      0.84s CPU      0.83s WALL (      42 calls)

     Called by sum_band:
     sum_band:bec :      0.00s CPU      0.00s WALL (      42 calls)
     addusdens    :      0.16s CPU      0.17s WALL (       7 calls)

     Called by *egterg:
     h_psi        :      0.78s CPU      0.79s WALL (     169 calls)
     s_psi        :      0.02s CPU      0.01s WALL (     169 calls)
     g_psi        :      0.00s CPU      0.00s WALL (     121 calls)
     cdiaghg      :      0.01s CPU      0.02s WALL (     163 calls)

     Called by h_psi:
     add_vuspsi   :      0.01s CPU      0.01s WALL (     169 calls)

     General routines
     calbec       :      0.02s CPU      0.01s WALL (     217 calls)
     fft          :      0.33s CPU      0.35s WALL (     129 calls)
     ffts         :      0.02s CPU      0.01s WALL (      15 calls)
     fftw         :      0.74s CPU      0.76s WALL (    1692 calls)
     interpolate  :      0.06s CPU      0.06s WALL (      15 calls)
     davcio       :      0.00s CPU      0.00s WALL (       6 calls)
 
     Parallel routines
     fft_scatter  :      0.11s CPU      0.08s WALL (    1836 calls)
 
     PWSCF        :  0m 6.22s CPU     2m 4.17s WALL

 
   This run was terminated on:   9:38:51   7Jun2016            

=------------------------------------------------------------------------------=
   JOB DONE.
=------------------------------------------------------------------------------=
Application 22025806 resources: utime ~47514s, stime ~62s, Rss ~55472, inblocks ~2184546, outblocks ~2681432
