
     Program PWSCF v.5.4.0 starts on 23Jun2016 at 20:40:36 

     This program is part of the open-source Quantum ESPRESSO suite
     for quantum simulation of materials; please cite
         "P. Giannozzi et al., J. Phys.:Condens. Matter 21 395502 (2009);
          URL http://www.quantum-espresso.org", 
     in publications or presentations arising from this work. More details at
     http://www.quantum-espresso.org/quote

     Parallel version (MPI), running on   768 processors
     K-points division:     npool     =     768
     Waiting for input...
     Reading input from standard input
     Message from routine read_cards :
     DEPRECATED: no units specified in ATOMIC_POSITIONS card
     Message from routine read_cards :
     ATOMIC_POSITIONS: units set to alat

     Current dimensions of program PWSCF are:
     Max number of different atomic species (ntypx) = 10
     Max number of k-points (npk) = 400000
     Max angular momentum in pseudopotentials (lmaxx) =  3

     Subspace diagonalization in iterative solution of the eigenvalue problem:
     a serial algorithm will be used

 
     G-vector sticks info
     --------------------
     sticks:   dense  smooth     PW     G-vecs:    dense   smooth      PW
     Sum        1135     571    199                25125     8873    1759
 


     bravais-lattice index     =            2
     lattice parameter (alat)  =       8.2838  a.u.
     unit-cell volume          =     142.1128 (a.u.)^3
     number of atoms/cell      =            1
     number of atomic types    =            1
     number of electrons       =         3.00
     number of Kohn-Sham states=            6
     kinetic-energy cutoff     =      60.0000  Ry
     charge density cutoff     =     480.0000  Ry
     convergence threshold     =      1.0E-11
     mixing beta               =       0.7000
     number of iterations used =            8  plain     mixing
     Exchange-correlation      =  SLA  PW   PBX  PBC ( 1  4  3  4 0 0)

     celldm(1)=   8.283828  celldm(2)=   0.000000  celldm(3)=   0.000000
     celldm(4)=   0.000000  celldm(5)=   0.000000  celldm(6)=   0.000000

     crystal axes: (cart. coord. in units of alat)
               a(1) = (  -0.500000   0.000000   0.500000 )  
               a(2) = (   0.000000   0.500000   0.500000 )  
               a(3) = (  -0.500000   0.500000   0.000000 )  

     reciprocal axes: (cart. coord. in units 2 pi/alat)
               b(1) = ( -1.000000 -1.000000  1.000000 )  
               b(2) = (  1.000000  1.000000  1.000000 )  
               b(3) = ( -1.000000  1.000000 -1.000000 )  


     PseudoPot. # 1 for Li read from file:
     ../Li.pbe-s-gbrv14.UPF
     MD5 check sum: 7ca33c4f951f001da2db5c8738379802
     Pseudo is Ultrasoft, Zval =  3.0
     Generated by new atomic code, or converted to UPF format
     Using radial grid of  751 points,  5 beta functions with: 
                l(1) =   0
                l(2) =   0
                l(3) =   0
                l(4) =   1
                l(5) =   1
     Q(r) pseudized with 10 coefficients,  rinner =    1.150   1.150   1.150


     atomic species   valence    mass     pseudopotential
        Li             3.00     6.94100     Li( 1.00)

     48 Sym. Ops., with inversion, found



   Cartesian axes

     site n.     atom                  positions (alat units)
         1           Li  tau(   1) = (   0.0000000   0.0000000   0.0000000  )

     number of k points=  2030  Marzari-Vanderbilt smearing, width (Ry)=  0.0200

     Number of k-points >= 100: set verbosity='high' to print them.

     Dense  grid:    25125 G-vectors     FFT dimensions: (  45,  45,  45)

     Smooth grid:     8873 G-vectors     FFT dimensions: (  30,  30,  30)

     Largest allocated arrays     est. size (Mb)     dimensions
        Kohn-Sham Wavefunctions         0.10 Mb     (    1133,    6)
        NL pseudopotentials             0.16 Mb     (    1133,    9)
        Each V/rho on FFT grid          1.39 Mb     (   91125)
        Each G-vector array             0.19 Mb     (   25125)
        G-vector shells                 0.00 Mb     (     280)
     Largest temporary arrays     est. size (Mb)     dimensions
        Auxiliary wavefunctions         0.41 Mb     (    1133,   24)
        Each subspace H/S matrix        0.01 Mb     (      24,   24)
        Each <psi_i|beta_j> matrix      0.00 Mb     (       9,    6)
        Arrays for rho mixing          11.12 Mb     (   91125,    8)

     Initial potential from superposition of free atoms

     starting charge    2.54926, renormalised to    3.00000
     Starting wfc are    5 randomized atomic wfcs +    1 random wfc

     total cpu time spent up to now is        1.1 secs

     per-process dynamical memory:    25.0 Mb

     Self-consistent Calculation

     iteration #  1     ecut=    60.00 Ry     beta=0.70
     Davidson diagonalization with overlap
     ethr =  1.00E-02,  avg # of iterations =  5.0

     total cpu time spent up to now is        1.5 secs

     total energy              =     -14.46686366 Ry
     Harris-Foulkes estimate   =     -14.58709155 Ry
     estimated scf accuracy    <       0.16548023 Ry

     iteration #  2     ecut=    60.00 Ry     beta=0.70
     Davidson diagonalization with overlap
     ethr =  5.52E-03,  avg # of iterations =  1.0

     total cpu time spent up to now is        1.7 secs

     total energy              =     -14.47049510 Ry
     Harris-Foulkes estimate   =     -14.47600253 Ry
     estimated scf accuracy    <       0.00731398 Ry

     iteration #  3     ecut=    60.00 Ry     beta=0.70
     Davidson diagonalization with overlap
     ethr =  2.44E-04,  avg # of iterations =  2.1

     total cpu time spent up to now is        2.0 secs

     total energy              =     -14.47207874 Ry
     Harris-Foulkes estimate   =     -14.47207037 Ry
     estimated scf accuracy    <       0.00003330 Ry

     iteration #  4     ecut=    60.00 Ry     beta=0.70
     Davidson diagonalization with overlap
     ethr =  1.11E-06,  avg # of iterations =  3.7

     total cpu time spent up to now is        2.2 secs

     total energy              =     -14.47208534 Ry
     Harris-Foulkes estimate   =     -14.47208529 Ry
     estimated scf accuracy    <       0.00000062 Ry

     iteration #  5     ecut=    60.00 Ry     beta=0.70
     Davidson diagonalization with overlap
     ethr =  2.08E-08,  avg # of iterations =  2.2

     total cpu time spent up to now is        2.5 secs

     total energy              =     -14.47208568 Ry
     Harris-Foulkes estimate   =     -14.47208569 Ry
     estimated scf accuracy    <       0.00000001 Ry

     iteration #  6     ecut=    60.00 Ry     beta=0.70
     Davidson diagonalization with overlap
     ethr =  4.87E-10,  avg # of iterations =  1.9

     total cpu time spent up to now is        2.7 secs

     total energy              =     -14.47208569 Ry
     Harris-Foulkes estimate   =     -14.47208569 Ry
     estimated scf accuracy    <          1.8E-10 Ry

     iteration #  7     ecut=    60.00 Ry     beta=0.70
     Davidson diagonalization with overlap
     ethr =  6.10E-12,  avg # of iterations =  2.0

     total cpu time spent up to now is        2.9 secs

     End of self-consistent calculation

     Number of k-points >= 100: set verbosity='high' to print the bands.

     the Fermi energy is     0.8202 ev

!    total energy              =     -14.47208569 Ry
     Harris-Foulkes estimate   =     -14.47208569 Ry
     estimated scf accuracy    <          4.9E-13 Ry

     The total energy is the sum of the following terms:

     one-electron contribution =      -9.80860530 Ry
     hartree contribution      =       3.68956000 Ry
     xc contribution           =      -3.37169274 Ry
     ewald contribution        =      -4.98124281 Ry
     smearing contrib. (-TS)   =      -0.00010483 Ry

     convergence has been achieved in   7 iterations


     entering subroutine stress ...

          total   stress  (Ry/bohr**3)                   (kbar)     P=   -5.25
  -0.00003566  -0.00000000   0.00000000         -5.25     -0.00      0.00
  -0.00000000  -0.00003566   0.00000000         -0.00     -5.25      0.00
   0.00000000   0.00000000  -0.00003566          0.00      0.00     -5.25


     Writing output data file li-fcc.save
 
     init_run     :      0.32s CPU      0.35s WALL (       1 calls)
     electrons    :      1.73s CPU      1.90s WALL (       1 calls)
     stress       :      0.14s CPU      0.15s WALL (       1 calls)

     Called by init_run:
     wfcinit      :      0.02s CPU      0.03s WALL (       1 calls)
     potinit      :      0.08s CPU      0.10s WALL (       1 calls)

     Called by electrons:
     c_bands      :      0.50s CPU      0.50s WALL (       7 calls)
     sum_band     :      0.38s CPU      0.39s WALL (       7 calls)
     v_of_rho     :      0.52s CPU      0.52s WALL (       8 calls)
     newd         :      0.16s CPU      0.18s WALL (       8 calls)
     mix_rho      :      0.06s CPU      0.06s WALL (       7 calls)

     Called by c_bands:
     init_us_2    :      0.01s CPU      0.01s WALL (      48 calls)
     cegterg      :      0.42s CPU      0.42s WALL (      21 calls)

     Called by sum_band:
     sum_band:bec :      0.00s CPU      0.00s WALL (      21 calls)
     addusdens    :      0.16s CPU      0.17s WALL (       7 calls)

     Called by *egterg:
     h_psi        :      0.38s CPU      0.39s WALL (      90 calls)
     s_psi        :      0.00s CPU      0.00s WALL (      90 calls)
     g_psi        :      0.00s CPU      0.00s WALL (      66 calls)
     cdiaghg      :      0.02s CPU      0.01s WALL (      87 calls)

     Called by h_psi:
     add_vuspsi   :      0.00s CPU      0.01s WALL (      90 calls)

     General routines
     calbec       :      0.01s CPU      0.00s WALL (     114 calls)
     fft          :      0.35s CPU      0.35s WALL (     129 calls)
     ffts         :      0.02s CPU      0.01s WALL (      15 calls)
     fftw         :      0.36s CPU      0.38s WALL (     848 calls)
     interpolate  :      0.06s CPU      0.06s WALL (      15 calls)
     davcio       :      0.00s CPU      0.00s WALL (       3 calls)
 
     Parallel routines
     fft_scatter  :      0.10s CPU      0.06s WALL (     992 calls)
 
     PWSCF        :  0m 5.86s CPU     2m42.38s WALL

 
   This run was terminated on:  20:43:18  23Jun2016            

=------------------------------------------------------------------------------=
   JOB DONE.
=------------------------------------------------------------------------------=
Application 22276120 resources: utime ~124126s, stime ~107s, Rss ~56496, inblocks ~4364912, outblocks ~4938203
