
     Program PWSCF v.5.4.0 starts on  6Jun2016 at  3:22:58 

     This program is part of the open-source Quantum ESPRESSO suite
     for quantum simulation of materials; please cite
         "P. Giannozzi et al., J. Phys.:Condens. Matter 21 395502 (2009);
          URL http://www.quantum-espresso.org", 
     in publications or presentations arising from this work. More details at
     http://www.quantum-espresso.org/quote

     Parallel version (MPI), running on   384 processors
     K-points division:     npool     =     384
     Waiting for input...
     Reading input from standard input
     Message from routine read_cards :
     DEPRECATED: no units specified in ATOMIC_POSITIONS card
     Message from routine read_cards :
     ATOMIC_POSITIONS: units set to alat

     Current dimensions of program PWSCF are:
     Max number of different atomic species (ntypx) = 10
     Max number of k-points (npk) = 400000
     Max angular momentum in pseudopotentials (lmaxx) =  3

     Subspace diagonalization in iterative solution of the eigenvalue problem:
     a serial algorithm will be used

 
     G-vector sticks info
     --------------------
     sticks:   dense  smooth     PW     G-vecs:    dense   smooth      PW
     Sum        1003     499    163                20539     7391    1459
 


     bravais-lattice index     =            2
     lattice parameter (alat)  =       7.7429  a.u.
     unit-cell volume          =     116.0512 (a.u.)^3
     number of atoms/cell      =            1
     number of atomic types    =            1
     number of electrons       =         3.00
     number of Kohn-Sham states=            6
     kinetic-energy cutoff     =      60.0000  Ry
     charge density cutoff     =     480.0000  Ry
     convergence threshold     =      1.0E-11
     mixing beta               =       0.7000
     number of iterations used =            8  plain     mixing
     Exchange-correlation      =  SLA  PW   PBX  PBC ( 1  4  3  4 0 0)

     celldm(1)=   7.742893  celldm(2)=   0.000000  celldm(3)=   0.000000
     celldm(4)=   0.000000  celldm(5)=   0.000000  celldm(6)=   0.000000

     crystal axes: (cart. coord. in units of alat)
               a(1) = (  -0.500000   0.000000   0.500000 )  
               a(2) = (   0.000000   0.500000   0.500000 )  
               a(3) = (  -0.500000   0.500000   0.000000 )  

     reciprocal axes: (cart. coord. in units 2 pi/alat)
               b(1) = ( -1.000000 -1.000000  1.000000 )  
               b(2) = (  1.000000  1.000000  1.000000 )  
               b(3) = ( -1.000000  1.000000 -1.000000 )  


     PseudoPot. # 1 for Li read from file:
     ../Li.pbe-s-gbrv14.UPF
     MD5 check sum: 7ca33c4f951f001da2db5c8738379802
     Pseudo is Ultrasoft, Zval =  3.0
     Generated by new atomic code, or converted to UPF format
     Using radial grid of  751 points,  5 beta functions with: 
                l(1) =   0
                l(2) =   0
                l(3) =   0
                l(4) =   1
                l(5) =   1
     Q(r) pseudized with 10 coefficients,  rinner =    1.150   1.150   1.150


     atomic species   valence    mass     pseudopotential
        Li             3.00     6.94100     Li( 1.00)

     48 Sym. Ops., with inversion, found



   Cartesian axes

     site n.     atom                  positions (alat units)
         1           Li  tau(   1) = (   0.0000000   0.0000000   0.0000000  )

     number of k points=  2030  Marzari-Vanderbilt smearing, width (Ry)=  0.0200

     Number of k-points >= 100: set verbosity='high' to print them.

     Dense  grid:    20539 G-vectors     FFT dimensions: (  40,  40,  40)

     Smooth grid:     7391 G-vectors     FFT dimensions: (  27,  27,  27)

     Largest allocated arrays     est. size (Mb)     dimensions
        Kohn-Sham Wavefunctions         0.09 Mb     (     934,    6)
        NL pseudopotentials             0.13 Mb     (     934,    9)
        Each V/rho on FFT grid          0.98 Mb     (   64000)
        Each G-vector array             0.16 Mb     (   20539)
        G-vector shells                 0.00 Mb     (     246)
     Largest temporary arrays     est. size (Mb)     dimensions
        Auxiliary wavefunctions         0.34 Mb     (     934,   24)
        Each subspace H/S matrix        0.01 Mb     (      24,   24)
        Each <psi_i|beta_j> matrix      0.00 Mb     (       9,    6)
        Arrays for rho mixing           7.81 Mb     (   64000,    8)

     Initial potential from superposition of free atoms

     starting charge    2.54926, renormalised to    3.00000
     Starting wfc are    5 randomized atomic wfcs +    1 random wfc

     total cpu time spent up to now is        0.4 secs

     per-process dynamical memory:    20.9 Mb

     Self-consistent Calculation

     iteration #  1     ecut=    60.00 Ry     beta=0.70
     Davidson diagonalization with overlap
     ethr =  1.00E-02,  avg # of iterations =  5.1

     total cpu time spent up to now is        0.8 secs

     total energy              =     -14.46508563 Ry
     Harris-Foulkes estimate   =     -14.58044249 Ry
     estimated scf accuracy    <       0.16062937 Ry

     iteration #  2     ecut=    60.00 Ry     beta=0.70
     Davidson diagonalization with overlap
     ethr =  5.35E-03,  avg # of iterations =  1.0

     total cpu time spent up to now is        1.0 secs

     total energy              =     -14.46879156 Ry
     Harris-Foulkes estimate   =     -14.47403357 Ry
     estimated scf accuracy    <       0.00708595 Ry

     iteration #  3     ecut=    60.00 Ry     beta=0.70
     Davidson diagonalization with overlap
     ethr =  2.36E-04,  avg # of iterations =  2.1

     total cpu time spent up to now is        1.2 secs

     total energy              =     -14.47037006 Ry
     Harris-Foulkes estimate   =     -14.47036202 Ry
     estimated scf accuracy    <       0.00003519 Ry

     iteration #  4     ecut=    60.00 Ry     beta=0.70
     Davidson diagonalization with overlap
     ethr =  1.17E-06,  avg # of iterations =  3.4

     total cpu time spent up to now is        1.5 secs

     total energy              =     -14.47037598 Ry
     Harris-Foulkes estimate   =     -14.47037615 Ry
     estimated scf accuracy    <       0.00000075 Ry

     iteration #  5     ecut=    60.00 Ry     beta=0.70
     Davidson diagonalization with overlap
     ethr =  2.49E-08,  avg # of iterations =  2.3

     total cpu time spent up to now is        1.9 secs

     total energy              =     -14.47037637 Ry
     Harris-Foulkes estimate   =     -14.47037638 Ry
     estimated scf accuracy    <       0.00000002 Ry

     iteration #  6     ecut=    60.00 Ry     beta=0.70
     Davidson diagonalization with overlap
     ethr =  6.25E-10,  avg # of iterations =  1.8

     total cpu time spent up to now is        2.1 secs

     total energy              =     -14.47037638 Ry
     Harris-Foulkes estimate   =     -14.47037638 Ry
     estimated scf accuracy    <          6.1E-11 Ry

     iteration #  7     ecut=    60.00 Ry     beta=0.70
     Davidson diagonalization with overlap
     ethr =  2.05E-12,  avg # of iterations =  2.5

     total cpu time spent up to now is        2.3 secs

     End of self-consistent calculation

     Number of k-points >= 100: set verbosity='high' to print the bands.

     the Fermi energy is     1.4865 ev

!    total energy              =     -14.47037638 Ry
     Harris-Foulkes estimate   =     -14.47037638 Ry
     estimated scf accuracy    <          1.3E-13 Ry

     The total energy is the sum of the following terms:

     one-electron contribution =      -9.27894013 Ry
     hartree contribution      =       3.53934372 Ry
     xc contribution           =      -3.40144472 Ry
     ewald contribution        =      -5.32924304 Ry
     smearing contrib. (-TS)   =      -0.00009220 Ry

     convergence has been achieved in   7 iterations


     entering subroutine stress ...

          total   stress  (Ry/bohr**3)                   (kbar)     P=   29.36
   0.00019961  -0.00000000  -0.00000000         29.36     -0.00     -0.00
  -0.00000000   0.00019961   0.00000000         -0.00     29.36      0.00
  -0.00000000   0.00000000   0.00019961         -0.00      0.00     29.36


     Writing output data file li-fcc.save
 
     init_run     :      0.28s CPU      0.31s WALL (       1 calls)
     electrons    :      1.64s CPU      1.89s WALL (       1 calls)
     stress       :      0.14s CPU      0.13s WALL (       1 calls)

     Called by init_run:
     wfcinit      :      0.03s CPU      0.03s WALL (       1 calls)
     potinit      :      0.06s CPU      0.07s WALL (       1 calls)

     Called by electrons:
     c_bands      :      0.72s CPU      0.91s WALL (       7 calls)
     sum_band     :      0.35s CPU      0.35s WALL (       7 calls)
     v_of_rho     :      0.34s CPU      0.34s WALL (       8 calls)
     newd         :      0.12s CPU      0.13s WALL (       8 calls)
     mix_rho      :      0.04s CPU      0.04s WALL (       7 calls)

     Called by c_bands:
     init_us_2    :      0.00s CPU      0.02s WALL (      96 calls)
     cegterg      :      0.63s CPU      0.64s WALL (      42 calls)

     Called by sum_band:
     sum_band:bec :      0.00s CPU      0.00s WALL (      42 calls)
     addusdens    :      0.13s CPU      0.13s WALL (       7 calls)

     Called by *egterg:
     h_psi        :      0.61s CPU      0.61s WALL (     180 calls)
     s_psi        :      0.00s CPU      0.00s WALL (     180 calls)
     g_psi        :      0.00s CPU      0.00s WALL (     132 calls)
     cdiaghg      :      0.02s CPU      0.02s WALL (     174 calls)

     Called by h_psi:
     add_vuspsi   :      0.00s CPU      0.00s WALL (     180 calls)

     General routines
     calbec       :      0.02s CPU      0.01s WALL (     228 calls)
     fft          :      0.22s CPU      0.22s WALL (     129 calls)
     ffts         :      0.01s CPU      0.01s WALL (      15 calls)
     fftw         :      0.60s CPU      0.62s WALL (    1738 calls)
     interpolate  :      0.04s CPU      0.04s WALL (      15 calls)
     davcio       :      0.00s CPU      0.00s WALL (       6 calls)
 
     Parallel routines
     fft_scatter  :      0.08s CPU      0.06s WALL (    1882 calls)
 
     PWSCF        :     6.23s CPU        50.51s WALL

 
   This run was terminated on:   3:23:48   6Jun2016            

=------------------------------------------------------------------------------=
   JOB DONE.
=------------------------------------------------------------------------------=
Application 21949761 resources: utime ~19328s, stime ~52s, Rss ~48108, inblocks ~2180126, outblocks ~2612420
