
     Program PHONON v.6.1 (svn rev. 13369) starts on 13Feb2018 at 10:27:19 

     This program is part of the open-source Quantum ESPRESSO suite
     for quantum simulation of materials; please cite
         "P. Giannozzi et al., J. Phys.:Condens. Matter 21 395502 (2009);
          URL http://www.quantum-espresso.org", 
     in publications or presentations arising from this work. More details at
     http://www.quantum-espresso.org/quote

     Parallel version (MPI), running on    64 processors
     K-points division:     npool     =       4
     R & G space division:  proc/nbgrp/npool/nimage =      16

     Reading data from directory:
     ./na.bcc.save

   Info: using nr1, nr2, nr3 values from input

   Info: using nr1, nr2, nr3 values from input

     IMPORTANT: XC functional enforced from input :
     Exchange-correlation      = SLA  PW   PBE  PBE ( 1  4  3  4 0 0)
     Any further DFT definition will be discarded
     Please, verify this is what you really want


     Parallelization info
     --------------------
     sticks:   dense  smooth     PW     G-vecs:    dense   smooth      PW
     Min          67      33     10                 1389      494      88
     Max          68      34     11                 1390      498      91
     Sum        1073     541    173                22231     7935    1433



     Dynamical matrices for ( 6, 6, 6)  uniform grid of q-points
     (  16q-points):
       N         xq(1)         xq(2)         xq(3) 
       1   0.000000000   0.000000000   0.000000000
       2   0.000000000  -0.166666667   0.166666667
       3   0.000000000  -0.333333333   0.333333333
       4   0.000000000   0.500000000  -0.500000000
       5  -0.166666667  -0.166666667   0.333333333
       6  -0.166666667   0.666666667  -0.500000000
       7  -0.333333333   0.666666667  -0.333333333
       8   0.000000000   0.000000000   0.333333333
       9   0.000000000  -0.166666667   0.500000000
      10   0.000000000   0.666666667  -0.333333333
      11  -0.166666667   0.833333333  -0.333333333
      12   0.666666667  -0.666666667   0.333333333
      13   0.500000000  -0.500000000   0.333333333
      14   0.000000000   0.000000000   0.666666667
      15   0.000000000   0.833333333  -0.166666667
      16   0.000000000   0.000000000  -1.000000000

     Calculation of q =    0.0000000   0.0000000   0.0000000

                                                                                

     bravais-lattice index     =            3
     lattice parameter (alat)  =       7.7300  a.u.
     unit-cell volume          =     230.9450 (a.u.)^3
     number of atoms/cell      =            1
     number of atomic types    =            1
     kinetic-energy cut-off    =      40.0000  Ry
     charge density cut-off    =     320.0000  Ry
     convergence threshold     =      1.0E-16
     beta                      =       0.7000
     number of iterations used =            4
     Exchange-correlation      = SLA  PW   PBE  PBE ( 1  4  3  4 0 0)


     celldm(1)=    7.73000  celldm(2)=    0.00000  celldm(3)=    0.00000
     celldm(4)=    0.00000  celldm(5)=    0.00000  celldm(6)=    0.00000

     crystal axes: (cart. coord. in units of alat)
               a(1) = (  0.5000  0.5000  0.5000 )  
               a(2) = ( -0.5000  0.5000  0.5000 )  
               a(3) = ( -0.5000 -0.5000  0.5000 )  

     reciprocal axes: (cart. coord. in units 2 pi/alat)
               b(1) = (  1.0000  0.0000  1.0000 )  
               b(2) = ( -1.0000  1.0000  0.0000 )  
               b(3) = (  0.0000 -1.0000  1.0000 )  


     Atoms inside the unit cell: 

     Cartesian axes

     site n.  atom      mass           positions (alat units)
        1     Na  22.9900   tau(    1) = (    0.00000    0.00000    0.00000  )

     Computing dynamical matrix for 
                    q = (   0.0000000   0.0000000   0.0000000 )

     49 Sym.Ops. (with q -> -q+G )


     G cutoff =  484.3388  (   1390 G-vectors)     FFT grid: ( 40, 40, 40)
     G cutoff =  242.1694  (    495 G-vectors)  smooth grid: ( 27, 27, 27)

     number of k points=   250  Marzari-Vanderbilt smearing, width (Ry)=  0.0200

     PseudoPot. # 1 for Na read from file:
     /home/s1333534/quantum_espresso/qe-6.1/pseudo/Na_pbe_v1.uspp.F.UPF
     MD5 check sum: 76a99c7e9422403d3e93cbc85ab7bccb
     Pseudo is Ultrasoft, Zval =  9.0
     Generated by new atomic code, or converted to UPF format
     Using radial grid of  819 points,  5 beta functions with: 
                l(1) =   0
                l(2) =   0
                l(3) =   1
                l(4) =   1
                l(5) =   2
     Q(r) pseudized with  8 coefficients,  rinner =    1.250   1.250   1.250
                                                       1.250   1.250

     Mode symmetry, O_h (m-3m)  point group:


     Atomic displacements:
     There are   1 irreducible representations

     Representation     1      3 modes -T_1u G_15  G_4-  To be done



     Alpha used in Ewald sum =   2.8000
     PHONON       :     3.10s CPU         3.33s WALL



     Representation #  1 modes #   1  2  3

     Self-consistent Calculation

     Pert. #  1: Fermi energy shift (Ry) =     8.6165E-27    -4.0750E-37
     Pert. #  2: Fermi energy shift (Ry) =     3.4466E-26    -1.5673E-37
     Pert. #  3: Fermi energy shift (Ry) =     1.4217E-25     2.6645E-37

      iter #   1 total cpu time :     7.3 secs   av.it.:   5.4
      thresh= 1.000E-02 alpha_mix =  0.700 |ddv_scf|^2 =  1.042E-06

     Pert. #  1: Fermi energy shift (Ry) =     1.2925E-26    -2.9387E-39
     Pert. #  2: Fermi energy shift (Ry) =     4.8198E-26     9.7958E-40
     Pert. #  3: Fermi energy shift (Ry) =    -1.6156E-27    -9.7958E-40

      iter #   2 total cpu time :    11.9 secs   av.it.:   8.4
      thresh= 1.021E-04 alpha_mix =  0.700 |ddv_scf|^2 =  1.968E-08

     Pert. #  1: Fermi energy shift (Ry) =     7.7548E-26    -3.6734E-40
     Pert. #  2: Fermi energy shift (Ry) =     8.6165E-26     1.2245E-40
     Pert. #  3: Fermi energy shift (Ry) =     7.5394E-26    -1.2245E-40

      iter #   3 total cpu time :    16.6 secs   av.it.:   8.6
      thresh= 1.403E-05 alpha_mix =  0.700 |ddv_scf|^2 =  3.670E-10

     Pert. #  1: Fermi energy shift (Ry) =    -3.5543E-26     1.4349E-41
     Pert. #  2: Fermi energy shift (Ry) =     4.1467E-26    -1.4349E-42
     Pert. #  3: Fermi energy shift (Ry) =     1.7771E-26     2.1046E-41

      iter #   4 total cpu time :    21.4 secs   av.it.:   8.1
      thresh= 1.916E-06 alpha_mix =  0.700 |ddv_scf|^2 =  1.304E-12

     Pert. #  1: Fermi energy shift (Ry) =    -5.3853E-28     1.3393E-41
     Pert. #  2: Fermi energy shift (Ry) =     4.5236E-26    -1.9132E-42
     Pert. #  3: Fermi energy shift (Ry) =    -1.6156E-27     6.6963E-42

      iter #   5 total cpu time :    25.9 secs   av.it.:   8.5
      thresh= 1.142E-07 alpha_mix =  0.700 |ddv_scf|^2 =  3.010E-15

     Pert. #  1: Fermi energy shift (Ry) =    -1.6156E-26    -1.9132E-42
     Pert. #  2: Fermi energy shift (Ry) =     1.0771E-27     2.8699E-42
     Pert. #  3: Fermi energy shift (Ry) =     4.8468E-27    -1.7219E-41

      iter #   6 total cpu time :    30.4 secs   av.it.:   8.1
      thresh= 5.487E-09 alpha_mix =  0.700 |ddv_scf|^2 =  7.223E-17

     End of self-consistent calculation

     Convergence has been achieved 

     Number of q in the star =    1
     List of q in the star:
          1   0.000000000   0.000000000   0.000000000

     Diagonalizing the dynamical matrix

     q = (    0.000000000   0.000000000   0.000000000 ) 

 **************************************************************************
     freq (    1) =      -0.236418 [THz] =      -7.886067 [cm-1]
     freq (    2) =      -0.236418 [THz] =      -7.886067 [cm-1]
     freq (    3) =      -0.236418 [THz] =      -7.886067 [cm-1]
 **************************************************************************

     Mode symmetry, O_h (m-3m)  point group:

     freq (  1 -  3) =         -7.9  [cm-1]   --> T_1u G_15  G_4- I  

     Calculation of q =    0.0000000  -0.1666667   0.1666667

   Info: using nr1, nr2, nr3 values from input

   Info: using nr1, nr2, nr3 values from input

     Parallelization info
     --------------------
     sticks:   dense  smooth     PW     G-vecs:    dense   smooth      PW
     Min          67      33     10                 1389      494      91
     Max          68      34     11                 1390      498      95
     Sum        1073     541    173                22231     7935    1505



     bravais-lattice index     =            3
     lattice parameter (alat)  =       7.7300  a.u.
     unit-cell volume          =     230.9450 (a.u.)^3
     number of atoms/cell      =            1
     number of atomic types    =            1
     number of electrons       =         9.00
     number of Kohn-Sham states=            9
     kinetic-energy cutoff     =      40.0000  Ry
     charge density cutoff     =     320.0000  Ry
     Exchange-correlation      = SLA  PW   PBE  PBE ( 1  4  3  4 0 0)

     celldm(1)=   7.730000  celldm(2)=   0.000000  celldm(3)=   0.000000
     celldm(4)=   0.000000  celldm(5)=   0.000000  celldm(6)=   0.000000

     crystal axes: (cart. coord. in units of alat)
               a(1) = (   0.500000   0.500000   0.500000 )  
               a(2) = (  -0.500000   0.500000   0.500000 )  
               a(3) = (  -0.500000  -0.500000   0.500000 )  

     reciprocal axes: (cart. coord. in units 2 pi/alat)
               b(1) = (  1.000000  0.000000  1.000000 )  
               b(2) = ( -1.000000  1.000000  0.000000 )  
               b(3) = (  0.000000 -1.000000  1.000000 )  


     PseudoPot. # 1 for Na read from file:
     /home/s1333534/quantum_espresso/qe-6.1/pseudo/Na_pbe_v1.uspp.F.UPF
     MD5 check sum: 76a99c7e9422403d3e93cbc85ab7bccb
     Pseudo is Ultrasoft, Zval =  9.0
     Generated by new atomic code, or converted to UPF format
     Using radial grid of  819 points,  5 beta functions with: 
                l(1) =   0
                l(2) =   0
                l(3) =   1
                l(4) =   1
                l(5) =   2
     Q(r) pseudized with  8 coefficients,  rinner =    1.250   1.250   1.250
                                                       1.250   1.250

     atomic species   valence    mass     pseudopotential
        Na             9.00    22.99000     Na( 1.00)

     48 Sym. Ops., with inversion, found



   Cartesian axes

     site n.     atom                  positions (alat units)
         1           Na  tau(   1) = (   0.0000000   0.0000000   0.0000000  )

     number of k points=  4400  Marzari-Vanderbilt smearing, width (Ry)=  0.0200

     Number of k-points >= 100: set verbosity='high' to print them.

     Dense  grid:    22231 G-vectors     FFT dimensions: (  40,  40,  40)

     Smooth grid:     7935 G-vectors     FFT dimensions: (  27,  27,  27)

     Estimated max dynamical RAM per process >       0.76MB

     Estimated total allocated dynamical RAM >      48.85MB

     The potential is recalculated from file :
     ./_ph0/na.bcc.save/charge-density.dat

     Starting wfc are    5 atomic +    4 random wfc

     Band Structure Calculation
     Davidson diagonalization with overlap

     ethr =  1.11E-10,  avg # of iterations = 20.6

     total cpu time spent up to now is       73.3 secs

     End of band structure calculation

     Number of k-points >= 100: set verbosity='high' to print the bands.

     the Fermi energy is     1.9534 ev

     Writing output data file na.bcc.save

                                                                                

     bravais-lattice index     =            3
     lattice parameter (alat)  =       7.7300  a.u.
     unit-cell volume          =     230.9450 (a.u.)^3
     number of atoms/cell      =            1
     number of atomic types    =            1
     kinetic-energy cut-off    =      40.0000  Ry
     charge density cut-off    =     320.0000  Ry
     convergence threshold     =      1.0E-16
     beta                      =       0.7000
     number of iterations used =            4
     Exchange-correlation      = SLA  PW   PBE  PBE ( 1  4  3  4 0 0)


     celldm(1)=    7.73000  celldm(2)=    0.00000  celldm(3)=    0.00000
     celldm(4)=    0.00000  celldm(5)=    0.00000  celldm(6)=    0.00000

     crystal axes: (cart. coord. in units of alat)
               a(1) = (  0.5000  0.5000  0.5000 )  
               a(2) = ( -0.5000  0.5000  0.5000 )  
               a(3) = ( -0.5000 -0.5000  0.5000 )  

     reciprocal axes: (cart. coord. in units 2 pi/alat)
               b(1) = (  1.0000  0.0000  1.0000 )  
               b(2) = ( -1.0000  1.0000  0.0000 )  
               b(3) = (  0.0000 -1.0000  1.0000 )  


     Atoms inside the unit cell: 

     Cartesian axes

     site n.  atom      mass           positions (alat units)
        1     Na  22.9900   tau(    1) = (    0.00000    0.00000    0.00000  )

     Computing dynamical matrix for 
                    q = (   0.0000000  -0.1666667   0.1666667 )

      4 Sym.Ops. (no q -> -q+G )


     G cutoff =  484.3388  (   1390 G-vectors)     FFT grid: ( 40, 40, 40)
     G cutoff =  242.1694  (    495 G-vectors)  smooth grid: ( 27, 27, 27)

     number of k points=  4400  Marzari-Vanderbilt smearing, width (Ry)=  0.0200

     PseudoPot. # 1 for Na read from file:
     /home/s1333534/quantum_espresso/qe-6.1/pseudo/Na_pbe_v1.uspp.F.UPF
     MD5 check sum: 76a99c7e9422403d3e93cbc85ab7bccb
     Pseudo is Ultrasoft, Zval =  9.0
     Generated by new atomic code, or converted to UPF format
     Using radial grid of  819 points,  5 beta functions with: 
                l(1) =   0
                l(2) =   0
                l(3) =   1
                l(4) =   1
                l(5) =   2
     Q(r) pseudized with  8 coefficients,  rinner =    1.250   1.250   1.250
                                                       1.250   1.250

     Mode symmetry, C_2v (mm2)  point group:


     Atomic displacements:
     There are   3 irreducible representations

     Representation     1      1 modes -A_1  D_1  S_1  To be done

     Representation     2      1 modes -B_1  D_3  S_3  To be done

     Representation     3      1 modes -B_2  D_4  S_4  To be done



     Alpha used in Ewald sum =   2.8000
     PHONON       :  1m54.17s CPU     2m 0.48s WALL



     Representation #  1 mode #   1

     Self-consistent Calculation

      iter #   1 total cpu time :   129.2 secs   av.it.:   5.7
      thresh= 1.000E-02 alpha_mix =  0.700 |ddv_scf|^2 =  2.437E-02

      iter #   2 total cpu time :   137.4 secs   av.it.:   6.4
      thresh= 1.000E-02 alpha_mix =  0.700 |ddv_scf|^2 =  3.492E+00

      iter #   3 total cpu time :   146.1 secs   av.it.:   6.4
      thresh= 1.000E-02 alpha_mix =  0.700 |ddv_scf|^2 =  3.847E-07

      iter #   4 total cpu time :   156.7 secs   av.it.:   8.0
      thresh= 6.202E-05 alpha_mix =  0.700 |ddv_scf|^2 =  5.413E-08

      iter #   5 total cpu time :   166.0 secs   av.it.:   7.5
      thresh= 2.327E-05 alpha_mix =  0.700 |ddv_scf|^2 =  3.012E-09

      iter #   6 total cpu time :   175.8 secs   av.it.:   7.5
      thresh= 5.488E-06 alpha_mix =  0.700 |ddv_scf|^2 =  1.401E-09

      iter #   7 total cpu time :   183.8 secs   av.it.:   6.0
      thresh= 3.743E-06 alpha_mix =  0.700 |ddv_scf|^2 =  4.691E-09

      iter #   8 total cpu time :   192.1 secs   av.it.:   6.4
      thresh= 6.849E-06 alpha_mix =  0.700 |ddv_scf|^2 =  3.685E-11

      iter #   9 total cpu time :   201.1 secs   av.it.:   7.3
      thresh= 6.071E-07 alpha_mix =  0.700 |ddv_scf|^2 =  1.604E-12

      iter #  10 total cpu time :   209.9 secs   av.it.:   7.1
      thresh= 1.266E-07 alpha_mix =  0.700 |ddv_scf|^2 =  9.106E-14

      iter #  11 total cpu time :   219.1 secs   av.it.:   7.3
      thresh= 3.018E-08 alpha_mix =  0.700 |ddv_scf|^2 =  4.295E-16

      iter #  12 total cpu time :   229.4 secs   av.it.:   7.8
      thresh= 2.072E-09 alpha_mix =  0.700 |ddv_scf|^2 =  1.260E-16

      iter #  13 total cpu time :   238.6 secs   av.it.:   7.6
      thresh= 1.122E-09 alpha_mix =  0.700 |ddv_scf|^2 =  4.459E-15

      iter #  14 total cpu time :   245.5 secs   av.it.:   4.8
      thresh= 6.677E-09 alpha_mix =  0.700 |ddv_scf|^2 =  4.887E-18

     End of self-consistent calculation

     Convergence has been achieved 


     Representation #  2 mode #   2

     Self-consistent Calculation

      iter #   1 total cpu time :   254.0 secs   av.it.:   5.4
      thresh= 1.000E-02 alpha_mix =  0.700 |ddv_scf|^2 =  9.480E-06

      iter #   2 total cpu time :   263.8 secs   av.it.:   7.7
      thresh= 3.079E-04 alpha_mix =  0.700 |ddv_scf|^2 =  1.753E-07

      iter #   3 total cpu time :   273.4 secs   av.it.:   7.9
      thresh= 4.187E-05 alpha_mix =  0.700 |ddv_scf|^2 =  3.611E-09

      iter #   4 total cpu time :   282.7 secs   av.it.:   7.4
      thresh= 6.009E-06 alpha_mix =  0.700 |ddv_scf|^2 =  1.254E-11

      iter #   5 total cpu time :   292.4 secs   av.it.:   7.7
      thresh= 3.541E-07 alpha_mix =  0.700 |ddv_scf|^2 =  2.600E-14

      iter #   6 total cpu time :   301.7 secs   av.it.:   7.4
      thresh= 1.612E-08 alpha_mix =  0.700 |ddv_scf|^2 =  6.920E-16

      iter #   7 total cpu time :   311.2 secs   av.it.:   7.7
      thresh= 2.631E-09 alpha_mix =  0.700 |ddv_scf|^2 =  6.598E-19

     End of self-consistent calculation

     Convergence has been achieved 


     Representation #  3 mode #   3

     Self-consistent Calculation

      iter #   1 total cpu time :   319.8 secs   av.it.:   5.4
      thresh= 1.000E-02 alpha_mix =  0.700 |ddv_scf|^2 =  9.803E-06

      iter #   2 total cpu time :   329.4 secs   av.it.:   7.7
      thresh= 3.131E-04 alpha_mix =  0.700 |ddv_scf|^2 =  1.743E-07

      iter #   3 total cpu time :   339.2 secs   av.it.:   7.9
      thresh= 4.175E-05 alpha_mix =  0.700 |ddv_scf|^2 =  4.643E-09

      iter #   4 total cpu time :   348.6 secs   av.it.:   7.5
      thresh= 6.814E-06 alpha_mix =  0.700 |ddv_scf|^2 =  1.572E-11

      iter #   5 total cpu time :   358.3 secs   av.it.:   7.8
      thresh= 3.964E-07 alpha_mix =  0.700 |ddv_scf|^2 =  2.708E-14

      iter #   6 total cpu time :   367.4 secs   av.it.:   7.2
      thresh= 1.646E-08 alpha_mix =  0.700 |ddv_scf|^2 =  1.090E-15

      iter #   7 total cpu time :   376.8 secs   av.it.:   7.8
      thresh= 3.301E-09 alpha_mix =  0.700 |ddv_scf|^2 =  1.266E-18

     End of self-consistent calculation

     Convergence has been achieved 

     Number of q in the star =   12
     List of q in the star:
          1   0.000000000  -0.166666667   0.166666667
          2  -0.166666667   0.000000000   0.166666667
          3   0.166666667   0.000000000   0.166666667
          4   0.000000000   0.166666667   0.166666667
          5   0.166666667   0.166666667   0.000000000
          6  -0.166666667   0.166666667   0.000000000
          7   0.166666667  -0.166666667   0.000000000
          8  -0.166666667  -0.166666667   0.000000000
          9  -0.166666667   0.000000000  -0.166666667
         10   0.000000000  -0.166666667  -0.166666667
         11   0.000000000   0.166666667  -0.166666667
         12   0.166666667   0.000000000  -0.166666667

     Diagonalizing the dynamical matrix

     q = (    0.000000000  -0.166666667   0.166666667 ) 

 **************************************************************************
     freq (    1) =       0.585139 [THz] =      19.518145 [cm-1]
     freq (    2) =       1.420491 [THz] =      47.382464 [cm-1]
     freq (    3) =       2.224342 [THz] =      74.196072 [cm-1]
 **************************************************************************

     Mode symmetry, C_2v (mm2)  point group:

     freq (  1 -  1) =         19.5  [cm-1]   --> B_1  D_3  S_3      
     freq (  2 -  2) =         47.4  [cm-1]   --> B_2  D_4  S_4      
     freq (  3 -  3) =         74.2  [cm-1]   --> A_1  D_1  S_1      

     Calculation of q =    0.0000000  -0.3333333   0.3333333

   Info: using nr1, nr2, nr3 values from input

   Info: using nr1, nr2, nr3 values from input

     Parallelization info
     --------------------
     sticks:   dense  smooth     PW     G-vecs:    dense   smooth      PW
     Min          67      33     11                 1389      494      99
     Max          68      34     12                 1390      498     101
     Sum        1073     541    181                22231     7935    1601



     bravais-lattice index     =            3
     lattice parameter (alat)  =       7.7300  a.u.
     unit-cell volume          =     230.9450 (a.u.)^3
     number of atoms/cell      =            1
     number of atomic types    =            1
     number of electrons       =         9.00
     number of Kohn-Sham states=            9
     kinetic-energy cutoff     =      40.0000  Ry
     charge density cutoff     =     320.0000  Ry
     Exchange-correlation      = SLA  PW   PBE  PBE ( 1  4  3  4 0 0)

     celldm(1)=   7.730000  celldm(2)=   0.000000  celldm(3)=   0.000000
     celldm(4)=   0.000000  celldm(5)=   0.000000  celldm(6)=   0.000000

     crystal axes: (cart. coord. in units of alat)
               a(1) = (   0.500000   0.500000   0.500000 )  
               a(2) = (  -0.500000   0.500000   0.500000 )  
               a(3) = (  -0.500000  -0.500000   0.500000 )  

     reciprocal axes: (cart. coord. in units 2 pi/alat)
               b(1) = (  1.000000  0.000000  1.000000 )  
               b(2) = ( -1.000000  1.000000  0.000000 )  
               b(3) = (  0.000000 -1.000000  1.000000 )  


     PseudoPot. # 1 for Na read from file:
     /home/s1333534/quantum_espresso/qe-6.1/pseudo/Na_pbe_v1.uspp.F.UPF
     MD5 check sum: 76a99c7e9422403d3e93cbc85ab7bccb
     Pseudo is Ultrasoft, Zval =  9.0
     Generated by new atomic code, or converted to UPF format
     Using radial grid of  819 points,  5 beta functions with: 
                l(1) =   0
                l(2) =   0
                l(3) =   1
                l(4) =   1
                l(5) =   2
     Q(r) pseudized with  8 coefficients,  rinner =    1.250   1.250   1.250
                                                       1.250   1.250

     atomic species   valence    mass     pseudopotential
        Na             9.00    22.99000     Na( 1.00)

     48 Sym. Ops., with inversion, found



   Cartesian axes

     site n.     atom                  positions (alat units)
         1           Na  tau(   1) = (   0.0000000   0.0000000   0.0000000  )

     number of k points=  4400  Marzari-Vanderbilt smearing, width (Ry)=  0.0200

     Number of k-points >= 100: set verbosity='high' to print them.

     Dense  grid:    22231 G-vectors     FFT dimensions: (  40,  40,  40)

     Smooth grid:     7935 G-vectors     FFT dimensions: (  27,  27,  27)

     Estimated max dynamical RAM per process >       0.76MB

     Estimated total allocated dynamical RAM >      48.85MB

     The potential is recalculated from file :
     ./_ph0/na.bcc.save/charge-density.dat

     Starting wfc are    5 atomic +    4 random wfc

     Band Structure Calculation
     Davidson diagonalization with overlap

     ethr =  1.11E-10,  avg # of iterations = 20.6

     total cpu time spent up to now is      156.7 secs

     End of band structure calculation

     Number of k-points >= 100: set verbosity='high' to print the bands.

     the Fermi energy is     1.9534 ev

     Writing output data file na.bcc.save

                                                                                

     bravais-lattice index     =            3
     lattice parameter (alat)  =       7.7300  a.u.
     unit-cell volume          =     230.9450 (a.u.)^3
     number of atoms/cell      =            1
     number of atomic types    =            1
     kinetic-energy cut-off    =      40.0000  Ry
     charge density cut-off    =     320.0000  Ry
     convergence threshold     =      1.0E-16
     beta                      =       0.7000
     number of iterations used =            4
     Exchange-correlation      = SLA  PW   PBE  PBE ( 1  4  3  4 0 0)


     celldm(1)=    7.73000  celldm(2)=    0.00000  celldm(3)=    0.00000
     celldm(4)=    0.00000  celldm(5)=    0.00000  celldm(6)=    0.00000

     crystal axes: (cart. coord. in units of alat)
               a(1) = (  0.5000  0.5000  0.5000 )  
               a(2) = ( -0.5000  0.5000  0.5000 )  
               a(3) = ( -0.5000 -0.5000  0.5000 )  

     reciprocal axes: (cart. coord. in units 2 pi/alat)
               b(1) = (  1.0000  0.0000  1.0000 )  
               b(2) = ( -1.0000  1.0000  0.0000 )  
               b(3) = (  0.0000 -1.0000  1.0000 )  


     Atoms inside the unit cell: 

     Cartesian axes

     site n.  atom      mass           positions (alat units)
        1     Na  22.9900   tau(    1) = (    0.00000    0.00000    0.00000  )

     Computing dynamical matrix for 
                    q = (   0.0000000  -0.3333333   0.3333333 )

      4 Sym.Ops. (no q -> -q+G )


     G cutoff =  484.3388  (   1390 G-vectors)     FFT grid: ( 40, 40, 40)
     G cutoff =  242.1694  (    495 G-vectors)  smooth grid: ( 27, 27, 27)

     number of k points=  4400  Marzari-Vanderbilt smearing, width (Ry)=  0.0200

     PseudoPot. # 1 for Na read from file:
     /home/s1333534/quantum_espresso/qe-6.1/pseudo/Na_pbe_v1.uspp.F.UPF
     MD5 check sum: 76a99c7e9422403d3e93cbc85ab7bccb
     Pseudo is Ultrasoft, Zval =  9.0
     Generated by new atomic code, or converted to UPF format
     Using radial grid of  819 points,  5 beta functions with: 
                l(1) =   0
                l(2) =   0
                l(3) =   1
                l(4) =   1
                l(5) =   2
     Q(r) pseudized with  8 coefficients,  rinner =    1.250   1.250   1.250
                                                       1.250   1.250

     Mode symmetry, C_2v (mm2)  point group:


     Atomic displacements:
     There are   3 irreducible representations

     Representation     1      1 modes -A_1  D_1  S_1  To be done

     Representation     2      1 modes -B_1  D_3  S_3  To be done

     Representation     3      1 modes -B_2  D_4  S_4  To be done



     Alpha used in Ewald sum =   2.8000
     PHONON       :  7m10.89s CPU     7m43.95s WALL



     Representation #  1 mode #   1

     Self-consistent Calculation

      iter #   1 total cpu time :   472.5 secs   av.it.:   5.7
      thresh= 1.000E-02 alpha_mix =  0.700 |ddv_scf|^2 =  4.158E-04

      iter #   2 total cpu time :   481.8 secs   av.it.:   6.7
      thresh= 2.039E-03 alpha_mix =  0.700 |ddv_scf|^2 =  2.327E-03

      iter #   3 total cpu time :   489.8 secs   av.it.:   5.8
      thresh= 4.824E-03 alpha_mix =  0.700 |ddv_scf|^2 =  4.557E-07

      iter #   4 total cpu time :   499.4 secs   av.it.:   7.8
      thresh= 6.751E-05 alpha_mix =  0.700 |ddv_scf|^2 =  7.719E-09

      iter #   5 total cpu time :   509.4 secs   av.it.:   8.3
      thresh= 8.786E-06 alpha_mix =  0.700 |ddv_scf|^2 =  3.885E-10

      iter #   6 total cpu time :   519.4 secs   av.it.:   8.1
      thresh= 1.971E-06 alpha_mix =  0.700 |ddv_scf|^2 =  1.474E-11

      iter #   7 total cpu time :   528.7 secs   av.it.:   7.8
      thresh= 3.839E-07 alpha_mix =  0.700 |ddv_scf|^2 =  5.427E-14

      iter #   8 total cpu time :   538.2 secs   av.it.:   7.8
      thresh= 2.330E-08 alpha_mix =  0.700 |ddv_scf|^2 =  2.024E-13

      iter #   9 total cpu time :   546.4 secs   av.it.:   6.2
      thresh= 4.499E-08 alpha_mix =  0.700 |ddv_scf|^2 =  8.028E-15

      iter #  10 total cpu time :   555.1 secs   av.it.:   6.9
      thresh= 8.960E-09 alpha_mix =  0.700 |ddv_scf|^2 =  2.714E-15

      iter #  11 total cpu time :   564.6 secs   av.it.:   7.6
      thresh= 5.209E-09 alpha_mix =  0.700 |ddv_scf|^2 =  1.503E-17

     End of self-consistent calculation

     Convergence has been achieved 


     Representation #  2 mode #   2

     Self-consistent Calculation

      iter #   1 total cpu time :   573.1 secs   av.it.:   5.5
      thresh= 1.000E-02 alpha_mix =  0.700 |ddv_scf|^2 =  9.740E-06

      iter #   2 total cpu time :   582.6 secs   av.it.:   7.7
      thresh= 3.121E-04 alpha_mix =  0.700 |ddv_scf|^2 =  1.702E-07

      iter #   3 total cpu time :   592.1 secs   av.it.:   7.9
      thresh= 4.125E-05 alpha_mix =  0.700 |ddv_scf|^2 =  4.583E-09

      iter #   4 total cpu time :   601.5 secs   av.it.:   7.5
      thresh= 6.770E-06 alpha_mix =  0.700 |ddv_scf|^2 =  1.485E-11

      iter #   5 total cpu time :   611.1 secs   av.it.:   7.8
      thresh= 3.853E-07 alpha_mix =  0.700 |ddv_scf|^2 =  2.211E-14

      iter #   6 total cpu time :   620.2 secs   av.it.:   7.4
      thresh= 1.487E-08 alpha_mix =  0.700 |ddv_scf|^2 =  7.345E-16

      iter #   7 total cpu time :   629.7 secs   av.it.:   7.8
      thresh= 2.710E-09 alpha_mix =  0.700 |ddv_scf|^2 =  7.981E-19

     End of self-consistent calculation

     Convergence has been achieved 


     Representation #  3 mode #   3

     Self-consistent Calculation

      iter #   1 total cpu time :   638.4 secs   av.it.:   5.5
      thresh= 1.000E-02 alpha_mix =  0.700 |ddv_scf|^2 =  1.075E-05

      iter #   2 total cpu time :   648.1 secs   av.it.:   7.7
      thresh= 3.279E-04 alpha_mix =  0.700 |ddv_scf|^2 =  1.687E-07

      iter #   3 total cpu time :   657.6 secs   av.it.:   7.9
      thresh= 4.108E-05 alpha_mix =  0.700 |ddv_scf|^2 =  8.177E-09

      iter #   4 total cpu time :   667.0 secs   av.it.:   7.5
      thresh= 9.043E-06 alpha_mix =  0.700 |ddv_scf|^2 =  2.637E-11

      iter #   5 total cpu time :   676.7 secs   av.it.:   7.8
      thresh= 5.135E-07 alpha_mix =  0.700 |ddv_scf|^2 =  2.942E-14

      iter #   6 total cpu time :   685.0 secs   av.it.:   6.2
      thresh= 1.715E-08 alpha_mix =  0.700 |ddv_scf|^2 =  1.793E-15

      iter #   7 total cpu time :   694.5 secs   av.it.:   7.7
      thresh= 4.235E-09 alpha_mix =  0.700 |ddv_scf|^2 =  1.985E-18

     End of self-consistent calculation

     Convergence has been achieved 

     Number of q in the star =   12
     List of q in the star:
          1   0.000000000  -0.333333333   0.333333333
          2  -0.333333333   0.000000000   0.333333333
          3   0.333333333   0.000000000   0.333333333
          4   0.000000000   0.333333333   0.333333333
          5   0.333333333   0.333333333   0.000000000
          6  -0.333333333   0.333333333   0.000000000
          7   0.333333333  -0.333333333   0.000000000
          8  -0.333333333  -0.333333333   0.000000000
          9  -0.333333333   0.000000000  -0.333333333
         10   0.000000000  -0.333333333  -0.333333333
         11   0.000000000   0.333333333  -0.333333333
         12   0.333333333   0.000000000  -0.333333333

     Diagonalizing the dynamical matrix

     q = (    0.000000000  -0.333333333   0.333333333 ) 

 **************************************************************************
     freq (    1) =       0.912905 [THz] =      30.451229 [cm-1]
     freq (    2) =       2.432228 [THz] =      81.130404 [cm-1]
     freq (    3) =       3.818570 [THz] =     127.373776 [cm-1]
 **************************************************************************

     Mode symmetry, C_2v (mm2)  point group:

     freq (  1 -  1) =         30.5  [cm-1]   --> B_1  D_3  S_3      
     freq (  2 -  2) =         81.1  [cm-1]   --> B_2  D_4  S_4      
     freq (  3 -  3) =        127.4  [cm-1]   --> A_1  D_1  S_1      

     Calculation of q =    0.0000000   0.5000000  -0.5000000

   Info: using nr1, nr2, nr3 values from input

   Info: using nr1, nr2, nr3 values from input

     Parallelization info
     --------------------
     sticks:   dense  smooth     PW     G-vecs:    dense   smooth      PW
     Min          67      33     12                 1389      494     108
     Max          68      34     13                 1390      498     110
     Sum        1073     541    201                22231     7935    1745



     bravais-lattice index     =            3
     lattice parameter (alat)  =       7.7300  a.u.
     unit-cell volume          =     230.9450 (a.u.)^3
     number of atoms/cell      =            1
     number of atomic types    =            1
     number of electrons       =         9.00
     number of Kohn-Sham states=            9
     kinetic-energy cutoff     =      40.0000  Ry
     charge density cutoff     =     320.0000  Ry
     Exchange-correlation      = SLA  PW   PBE  PBE ( 1  4  3  4 0 0)

     celldm(1)=   7.730000  celldm(2)=   0.000000  celldm(3)=   0.000000
     celldm(4)=   0.000000  celldm(5)=   0.000000  celldm(6)=   0.000000

     crystal axes: (cart. coord. in units of alat)
               a(1) = (   0.500000   0.500000   0.500000 )  
               a(2) = (  -0.500000   0.500000   0.500000 )  
               a(3) = (  -0.500000  -0.500000   0.500000 )  

     reciprocal axes: (cart. coord. in units 2 pi/alat)
               b(1) = (  1.000000  0.000000  1.000000 )  
               b(2) = ( -1.000000  1.000000  0.000000 )  
               b(3) = (  0.000000 -1.000000  1.000000 )  


     PseudoPot. # 1 for Na read from file:
     /home/s1333534/quantum_espresso/qe-6.1/pseudo/Na_pbe_v1.uspp.F.UPF
     MD5 check sum: 76a99c7e9422403d3e93cbc85ab7bccb
     Pseudo is Ultrasoft, Zval =  9.0
     Generated by new atomic code, or converted to UPF format
     Using radial grid of  819 points,  5 beta functions with: 
                l(1) =   0
                l(2) =   0
                l(3) =   1
                l(4) =   1
                l(5) =   2
     Q(r) pseudized with  8 coefficients,  rinner =    1.250   1.250   1.250
                                                       1.250   1.250

     atomic species   valence    mass     pseudopotential
        Na             9.00    22.99000     Na( 1.00)

     48 Sym. Ops., with inversion, found



   Cartesian axes

     site n.     atom                  positions (alat units)
         1           Na  tau(   1) = (   0.0000000   0.0000000   0.0000000  )

     number of k points=  2310  Marzari-Vanderbilt smearing, width (Ry)=  0.0200

     Number of k-points >= 100: set verbosity='high' to print them.

     Dense  grid:    22231 G-vectors     FFT dimensions: (  40,  40,  40)

     Smooth grid:     7935 G-vectors     FFT dimensions: (  27,  27,  27)

     Estimated max dynamical RAM per process >       0.76MB

     Estimated total allocated dynamical RAM >      48.85MB

     The potential is recalculated from file :
     ./_ph0/na.bcc.save/charge-density.dat

     Starting wfc are    5 atomic +    4 random wfc

     Band Structure Calculation
     Davidson diagonalization with overlap

     ethr =  1.11E-10,  avg # of iterations = 20.7

     total cpu time spent up to now is      206.8 secs

     End of band structure calculation

     Number of k-points >= 100: set verbosity='high' to print the bands.

     the Fermi energy is     1.9534 ev

     Writing output data file na.bcc.save

                                                                                

     bravais-lattice index     =            3
     lattice parameter (alat)  =       7.7300  a.u.
     unit-cell volume          =     230.9450 (a.u.)^3
     number of atoms/cell      =            1
     number of atomic types    =            1
     kinetic-energy cut-off    =      40.0000  Ry
     charge density cut-off    =     320.0000  Ry
     convergence threshold     =      1.0E-16
     beta                      =       0.7000
     number of iterations used =            4
     Exchange-correlation      = SLA  PW   PBE  PBE ( 1  4  3  4 0 0)


     celldm(1)=    7.73000  celldm(2)=    0.00000  celldm(3)=    0.00000
     celldm(4)=    0.00000  celldm(5)=    0.00000  celldm(6)=    0.00000

     crystal axes: (cart. coord. in units of alat)
               a(1) = (  0.5000  0.5000  0.5000 )  
               a(2) = ( -0.5000  0.5000  0.5000 )  
               a(3) = ( -0.5000 -0.5000  0.5000 )  

     reciprocal axes: (cart. coord. in units 2 pi/alat)
               b(1) = (  1.0000  0.0000  1.0000 )  
               b(2) = ( -1.0000  1.0000  0.0000 )  
               b(3) = (  0.0000 -1.0000  1.0000 )  


     Atoms inside the unit cell: 

     Cartesian axes

     site n.  atom      mass           positions (alat units)
        1     Na  22.9900   tau(    1) = (    0.00000    0.00000    0.00000  )

     Computing dynamical matrix for 
                    q = (   0.0000000   0.5000000  -0.5000000 )

      9 Sym.Ops. (with q -> -q+G )


     G cutoff =  484.3388  (   1390 G-vectors)     FFT grid: ( 40, 40, 40)
     G cutoff =  242.1694  (    495 G-vectors)  smooth grid: ( 27, 27, 27)

     number of k points=  2310  Marzari-Vanderbilt smearing, width (Ry)=  0.0200

     PseudoPot. # 1 for Na read from file:
     /home/s1333534/quantum_espresso/qe-6.1/pseudo/Na_pbe_v1.uspp.F.UPF
     MD5 check sum: 76a99c7e9422403d3e93cbc85ab7bccb
     Pseudo is Ultrasoft, Zval =  9.0
     Generated by new atomic code, or converted to UPF format
     Using radial grid of  819 points,  5 beta functions with: 
                l(1) =   0
                l(2) =   0
                l(3) =   1
                l(4) =   1
                l(5) =   2
     Q(r) pseudized with  8 coefficients,  rinner =    1.250   1.250   1.250
                                                       1.250   1.250

     Mode symmetry, D_2h (mmm)  point group:


     Atomic displacements:
     There are   3 irreducible representations

     Representation     1      1 modes -B_1u  To be done

     Representation     2      1 modes -B_2u  To be done

     Representation     3      1 modes -B_3u  To be done



     Alpha used in Ewald sum =   2.8000
     PHONON       : 11m27.34s CPU    12m21.35s WALL



     Representation #  1 mode #   1

     Self-consistent Calculation

      iter #   1 total cpu time :   745.9 secs   av.it.:   5.5
      thresh= 1.000E-02 alpha_mix =  0.700 |ddv_scf|^2 =  1.128E-05

      iter #   2 total cpu time :   751.1 secs   av.it.:   7.7
      thresh= 3.358E-04 alpha_mix =  0.700 |ddv_scf|^2 =  1.663E-07

      iter #   3 total cpu time :   756.5 secs   av.it.:   7.8
      thresh= 4.079E-05 alpha_mix =  0.700 |ddv_scf|^2 =  1.030E-08

      iter #   4 total cpu time :   761.5 secs   av.it.:   7.3
      thresh= 1.015E-05 alpha_mix =  0.700 |ddv_scf|^2 =  3.338E-11

      iter #   5 total cpu time :   766.7 secs   av.it.:   7.6
      thresh= 5.778E-07 alpha_mix =  0.700 |ddv_scf|^2 =  3.189E-14

      iter #   6 total cpu time :   771.6 secs   av.it.:   6.8
      thresh= 1.786E-08 alpha_mix =  0.700 |ddv_scf|^2 =  2.096E-15

      iter #   7 total cpu time :   777.2 secs   av.it.:   7.5
      thresh= 4.578E-09 alpha_mix =  0.700 |ddv_scf|^2 =  1.911E-18

     End of self-consistent calculation

     Convergence has been achieved 


     Representation #  2 mode #   2

     Self-consistent Calculation

      iter #   1 total cpu time :   782.3 secs   av.it.:   5.5
      thresh= 1.000E-02 alpha_mix =  0.700 |ddv_scf|^2 =  9.899E-06

      iter #   2 total cpu time :   787.6 secs   av.it.:   7.7
      thresh= 3.146E-04 alpha_mix =  0.700 |ddv_scf|^2 =  1.669E-07

      iter #   3 total cpu time :   793.1 secs   av.it.:   7.9
      thresh= 4.085E-05 alpha_mix =  0.700 |ddv_scf|^2 =  5.211E-09

      iter #   4 total cpu time :   798.2 secs   av.it.:   7.3
      thresh= 7.219E-06 alpha_mix =  0.700 |ddv_scf|^2 =  1.627E-11

      iter #   5 total cpu time :   803.5 secs   av.it.:   7.6
      thresh= 4.034E-07 alpha_mix =  0.700 |ddv_scf|^2 =  1.951E-14

      iter #   6 total cpu time :   808.4 secs   av.it.:   7.2
      thresh= 1.397E-08 alpha_mix =  0.700 |ddv_scf|^2 =  6.810E-16

      iter #   7 total cpu time :   813.6 secs   av.it.:   7.6
      thresh= 2.610E-09 alpha_mix =  0.700 |ddv_scf|^2 =  4.215E-19

     End of self-consistent calculation

     Convergence has been achieved 


     Representation #  3 mode #   3

     Self-consistent Calculation

      iter #   1 total cpu time :   818.6 secs   av.it.:   5.7
      thresh= 1.000E-02 alpha_mix =  0.700 |ddv_scf|^2 =  8.434E-05

      iter #   2 total cpu time :   823.3 secs   av.it.:   6.8
      thresh= 9.184E-04 alpha_mix =  0.700 |ddv_scf|^2 =  4.230E-05

      iter #   3 total cpu time :   828.1 secs   av.it.:   6.7
      thresh= 6.504E-04 alpha_mix =  0.700 |ddv_scf|^2 =  6.617E-08

      iter #   4 total cpu time :   833.4 secs   av.it.:   7.8
      thresh= 2.572E-05 alpha_mix =  0.700 |ddv_scf|^2 =  2.325E-10

      iter #   5 total cpu time :   838.2 secs   av.it.:   6.7
      thresh= 1.525E-06 alpha_mix =  0.700 |ddv_scf|^2 =  4.388E-12

      iter #   6 total cpu time :   843.4 secs   av.it.:   6.8
      thresh= 2.095E-07 alpha_mix =  0.700 |ddv_scf|^2 =  1.509E-14

      iter #   7 total cpu time :   848.7 secs   av.it.:   7.3
      thresh= 1.229E-08 alpha_mix =  0.700 |ddv_scf|^2 =  4.617E-17

     End of self-consistent calculation

     Convergence has been achieved 

     Number of q in the star =    6
     List of q in the star:
          1   0.000000000   0.500000000  -0.500000000
          2  -0.500000000  -0.500000000   0.000000000
          3   0.500000000  -0.500000000   0.000000000
          4   0.500000000   0.000000000   0.500000000
          5   0.000000000  -0.500000000  -0.500000000
          6   0.500000000   0.000000000  -0.500000000

     Diagonalizing the dynamical matrix

     q = (    0.000000000   0.500000000  -0.500000000 ) 

 **************************************************************************
     freq (    1) =       1.030359 [THz] =      34.369068 [cm-1]
     freq (    2) =       2.806684 [THz] =      93.620895 [cm-1]
     freq (    3) =       4.398714 [THz] =     146.725304 [cm-1]
 **************************************************************************

     Mode symmetry, D_2h (mmm)  point group:

     freq (  1 -  1) =         34.4  [cm-1]   --> B_2u               
     freq (  2 -  2) =         93.6  [cm-1]   --> B_1u               
     freq (  3 -  3) =        146.7  [cm-1]   --> B_3u               

     Calculation of q =   -0.1666667  -0.1666667   0.3333333

   Info: using nr1, nr2, nr3 values from input

   Info: using nr1, nr2, nr3 values from input

     Parallelization info
     --------------------
     sticks:   dense  smooth     PW     G-vecs:    dense   smooth      PW
     Min          67      33     11                 1389      494      96
     Max          68      34     12                 1390      498      98
     Sum        1073     541    181                22231     7935    1553



     bravais-lattice index     =            3
     lattice parameter (alat)  =       7.7300  a.u.
     unit-cell volume          =     230.9450 (a.u.)^3
     number of atoms/cell      =            1
     number of atomic types    =            1
     number of electrons       =         9.00
     number of Kohn-Sham states=            9
     kinetic-energy cutoff     =      40.0000  Ry
     charge density cutoff     =     320.0000  Ry
     Exchange-correlation      = SLA  PW   PBE  PBE ( 1  4  3  4 0 0)

     celldm(1)=   7.730000  celldm(2)=   0.000000  celldm(3)=   0.000000
     celldm(4)=   0.000000  celldm(5)=   0.000000  celldm(6)=   0.000000

     crystal axes: (cart. coord. in units of alat)
               a(1) = (   0.500000   0.500000   0.500000 )  
               a(2) = (  -0.500000   0.500000   0.500000 )  
               a(3) = (  -0.500000  -0.500000   0.500000 )  

     reciprocal axes: (cart. coord. in units 2 pi/alat)
               b(1) = (  1.000000  0.000000  1.000000 )  
               b(2) = ( -1.000000  1.000000  0.000000 )  
               b(3) = (  0.000000 -1.000000  1.000000 )  


     PseudoPot. # 1 for Na read from file:
     /home/s1333534/quantum_espresso/qe-6.1/pseudo/Na_pbe_v1.uspp.F.UPF
     MD5 check sum: 76a99c7e9422403d3e93cbc85ab7bccb
     Pseudo is Ultrasoft, Zval =  9.0
     Generated by new atomic code, or converted to UPF format
     Using radial grid of  819 points,  5 beta functions with: 
                l(1) =   0
                l(2) =   0
                l(3) =   1
                l(4) =   1
                l(5) =   2
     Q(r) pseudized with  8 coefficients,  rinner =    1.250   1.250   1.250
                                                       1.250   1.250

     atomic species   valence    mass     pseudopotential
        Na             9.00    22.99000     Na( 1.00)

     48 Sym. Ops., with inversion, found



   Cartesian axes

     site n.     atom                  positions (alat units)
         1           Na  tau(   1) = (   0.0000000   0.0000000   0.0000000  )

     number of k points=  8400  Marzari-Vanderbilt smearing, width (Ry)=  0.0200

     Number of k-points >= 100: set verbosity='high' to print them.

     Dense  grid:    22231 G-vectors     FFT dimensions: (  40,  40,  40)

     Smooth grid:     7935 G-vectors     FFT dimensions: (  27,  27,  27)

     Estimated max dynamical RAM per process >       0.76MB

     Estimated total allocated dynamical RAM >      48.85MB

     The potential is recalculated from file :
     ./_ph0/na.bcc.save/charge-density.dat

     Starting wfc are    5 atomic +    4 random wfc

     Band Structure Calculation
     Davidson diagonalization with overlap

     ethr =  1.11E-10,  avg # of iterations = 20.6

     total cpu time spent up to now is      347.9 secs

     End of band structure calculation

     Number of k-points >= 100: set verbosity='high' to print the bands.

     the Fermi energy is     1.9534 ev

     Writing output data file na.bcc.save

                                                                                

     bravais-lattice index     =            3
     lattice parameter (alat)  =       7.7300  a.u.
     unit-cell volume          =     230.9450 (a.u.)^3
     number of atoms/cell      =            1
     number of atomic types    =            1
     kinetic-energy cut-off    =      40.0000  Ry
     charge density cut-off    =     320.0000  Ry
     convergence threshold     =      1.0E-16
     beta                      =       0.7000
     number of iterations used =            4
     Exchange-correlation      = SLA  PW   PBE  PBE ( 1  4  3  4 0 0)


     celldm(1)=    7.73000  celldm(2)=    0.00000  celldm(3)=    0.00000
     celldm(4)=    0.00000  celldm(5)=    0.00000  celldm(6)=    0.00000

     crystal axes: (cart. coord. in units of alat)
               a(1) = (  0.5000  0.5000  0.5000 )  
               a(2) = ( -0.5000  0.5000  0.5000 )  
               a(3) = ( -0.5000 -0.5000  0.5000 )  

     reciprocal axes: (cart. coord. in units 2 pi/alat)
               b(1) = (  1.0000  0.0000  1.0000 )  
               b(2) = ( -1.0000  1.0000  0.0000 )  
               b(3) = (  0.0000 -1.0000  1.0000 )  


     Atoms inside the unit cell: 

     Cartesian axes

     site n.  atom      mass           positions (alat units)
        1     Na  22.9900   tau(    1) = (    0.00000    0.00000    0.00000  )

     Computing dynamical matrix for 
                    q = (  -0.1666667  -0.1666667   0.3333333 )

      2 Sym.Ops. (no q -> -q+G )


     G cutoff =  484.3388  (   1390 G-vectors)     FFT grid: ( 40, 40, 40)
     G cutoff =  242.1694  (    495 G-vectors)  smooth grid: ( 27, 27, 27)

     number of k points=  8400  Marzari-Vanderbilt smearing, width (Ry)=  0.0200

     PseudoPot. # 1 for Na read from file:
     /home/s1333534/quantum_espresso/qe-6.1/pseudo/Na_pbe_v1.uspp.F.UPF
     MD5 check sum: 76a99c7e9422403d3e93cbc85ab7bccb
     Pseudo is Ultrasoft, Zval =  9.0
     Generated by new atomic code, or converted to UPF format
     Using radial grid of  819 points,  5 beta functions with: 
                l(1) =   0
                l(2) =   0
                l(3) =   1
                l(4) =   1
                l(5) =   2
     Q(r) pseudized with  8 coefficients,  rinner =    1.250   1.250   1.250
                                                       1.250   1.250

     Mode symmetry, C_s (m)     point group:


     Atomic displacements:
     There are   3 irreducible representations

     Representation     1      1 modes -A'  To be done

     Representation     2      1 modes -A'  To be done

     Representation     3      1 modes -A''  To be done



     Alpha used in Ewald sum =   2.8000
     PHONON       : 15m44.19s CPU    16m54.60s WALL



     Representation #  1 mode #   1

     Self-consistent Calculation

      iter #   1 total cpu time :  1031.0 secs   av.it.:   5.6
      thresh= 1.000E-02 alpha_mix =  0.700 |ddv_scf|^2 =  1.037E-04

      iter #   2 total cpu time :  1048.2 secs   av.it.:   7.3
      thresh= 1.018E-03 alpha_mix =  0.700 |ddv_scf|^2 =  1.108E-03

      iter #   3 total cpu time :  1062.2 secs   av.it.:   5.4
      thresh= 3.329E-03 alpha_mix =  0.700 |ddv_scf|^2 =  1.380E-07

      iter #   4 total cpu time :  1081.7 secs   av.it.:   8.3
      thresh= 3.715E-05 alpha_mix =  0.700 |ddv_scf|^2 =  5.614E-09

      iter #   5 total cpu time :  1099.6 secs   av.it.:   7.9
      thresh= 7.493E-06 alpha_mix =  0.700 |ddv_scf|^2 =  1.633E-10

      iter #   6 total cpu time :  1118.7 secs   av.it.:   8.2
      thresh= 1.278E-06 alpha_mix =  0.700 |ddv_scf|^2 =  1.754E-11

      iter #   7 total cpu time :  1137.5 secs   av.it.:   8.0
      thresh= 4.189E-07 alpha_mix =  0.700 |ddv_scf|^2 =  3.211E-11

      iter #   8 total cpu time :  1154.5 secs   av.it.:   7.3
      thresh= 5.666E-07 alpha_mix =  0.700 |ddv_scf|^2 =  2.944E-11

      iter #   9 total cpu time :  1171.0 secs   av.it.:   6.9
      thresh= 5.426E-07 alpha_mix =  0.700 |ddv_scf|^2 =  1.004E-12

      iter #  10 total cpu time :  1187.6 secs   av.it.:   7.1
      thresh= 1.002E-07 alpha_mix =  0.700 |ddv_scf|^2 =  3.572E-15

      iter #  11 total cpu time :  1207.2 secs   av.it.:   8.3
      thresh= 5.977E-09 alpha_mix =  0.700 |ddv_scf|^2 =  1.783E-16

      iter #  12 total cpu time :  1224.7 secs   av.it.:   7.7
      thresh= 1.335E-09 alpha_mix =  0.700 |ddv_scf|^2 =  1.058E-17

     End of self-consistent calculation

     Convergence has been achieved 


     Representation #  2 mode #   2

     Self-consistent Calculation

      iter #   1 total cpu time :  1242.1 secs   av.it.:   5.8
      thresh= 1.000E-02 alpha_mix =  0.700 |ddv_scf|^2 =  8.457E-04

      iter #   2 total cpu time :  1258.0 secs   av.it.:   6.7
      thresh= 2.908E-03 alpha_mix =  0.700 |ddv_scf|^2 =  9.863E-03

      iter #   3 total cpu time :  1272.8 secs   av.it.:   5.4
      thresh= 9.931E-03 alpha_mix =  0.700 |ddv_scf|^2 =  9.080E-07

      iter #   4 total cpu time :  1290.4 secs   av.it.:   7.7
      thresh= 9.529E-05 alpha_mix =  0.700 |ddv_scf|^2 =  6.209E-09

      iter #   5 total cpu time :  1310.1 secs   av.it.:   8.3
      thresh= 7.880E-06 alpha_mix =  0.700 |ddv_scf|^2 =  6.003E-10

      iter #   6 total cpu time :  1330.1 secs   av.it.:   8.2
      thresh= 2.450E-06 alpha_mix =  0.700 |ddv_scf|^2 =  1.872E-11

      iter #   7 total cpu time :  1348.8 secs   av.it.:   8.2
      thresh= 4.326E-07 alpha_mix =  0.700 |ddv_scf|^2 =  2.624E-11

      iter #   8 total cpu time :  1364.4 secs   av.it.:   6.4
      thresh= 5.123E-07 alpha_mix =  0.700 |ddv_scf|^2 =  3.525E-12

      iter #   9 total cpu time :  1382.3 secs   av.it.:   7.2
      thresh= 1.878E-07 alpha_mix =  0.700 |ddv_scf|^2 =  3.333E-14

      iter #  10 total cpu time :  1400.1 secs   av.it.:   7.4
      thresh= 1.826E-08 alpha_mix =  0.700 |ddv_scf|^2 =  6.327E-14

      iter #  11 total cpu time :  1416.8 secs   av.it.:   7.1
      thresh= 2.515E-08 alpha_mix =  0.700 |ddv_scf|^2 =  3.325E-17

     End of self-consistent calculation

     Convergence has been achieved 


     Representation #  3 mode #   3

     Self-consistent Calculation

      iter #   1 total cpu time :  1433.5 secs   av.it.:   5.5
      thresh= 1.000E-02 alpha_mix =  0.700 |ddv_scf|^2 =  1.132E-05

      iter #   2 total cpu time :  1453.6 secs   av.it.:   7.8
      thresh= 3.365E-04 alpha_mix =  0.700 |ddv_scf|^2 =  1.630E-07

      iter #   3 total cpu time :  1472.0 secs   av.it.:   8.0
      thresh= 4.037E-05 alpha_mix =  0.700 |ddv_scf|^2 =  8.755E-09

      iter #   4 total cpu time :  1490.6 secs   av.it.:   7.7
      thresh= 9.357E-06 alpha_mix =  0.700 |ddv_scf|^2 =  6.974E-11

      iter #   5 total cpu time :  1508.6 secs   av.it.:   7.5
      thresh= 8.351E-07 alpha_mix =  0.700 |ddv_scf|^2 =  5.889E-14

      iter #   6 total cpu time :  1526.1 secs   av.it.:   7.5
      thresh= 2.427E-08 alpha_mix =  0.700 |ddv_scf|^2 =  2.954E-15

      iter #   7 total cpu time :  1543.5 secs   av.it.:   7.5
      thresh= 5.435E-09 alpha_mix =  0.700 |ddv_scf|^2 =  1.099E-17

     End of self-consistent calculation

     Convergence has been achieved 

     Number of q in the star =   24
     List of q in the star:
          1  -0.166666667  -0.166666667   0.333333333
          2  -0.166666667  -0.333333333   0.166666667
          3   0.166666667  -0.333333333   0.166666667
          4  -0.166666667   0.333333333  -0.166666667
          5   0.166666667   0.333333333  -0.166666667
          6   0.166666667   0.166666667  -0.333333333
          7  -0.166666667   0.166666667  -0.333333333
          8   0.333333333   0.166666667  -0.166666667
          9  -0.333333333   0.166666667   0.166666667
         10   0.333333333  -0.166666667   0.166666667
         11  -0.333333333  -0.166666667  -0.166666667
         12  -0.166666667  -0.166666667  -0.333333333
         13  -0.166666667   0.333333333   0.166666667
         14  -0.166666667  -0.333333333  -0.166666667
         15  -0.166666667   0.166666667   0.333333333
         16   0.166666667  -0.166666667   0.333333333
         17   0.166666667  -0.333333333  -0.166666667
         18  -0.333333333   0.166666667  -0.166666667
         19   0.333333333   0.166666667   0.166666667
         20  -0.333333333  -0.166666667   0.166666667
         21   0.333333333  -0.166666667  -0.166666667
         22   0.166666667  -0.166666667  -0.333333333
         23   0.166666667   0.166666667   0.333333333
         24   0.166666667   0.333333333   0.166666667

     Diagonalizing the dynamical matrix

     q = (   -0.166666667  -0.166666667   0.333333333 ) 

 **************************************************************************
     freq (    1) =       1.374403 [THz] =      45.845140 [cm-1]
     freq (    2) =       2.169642 [THz] =      72.371451 [cm-1]
     freq (    3) =       3.407885 [THz] =     113.674799 [cm-1]
 **************************************************************************

     Mode symmetry, C_s (m)     point group:

     freq (  1 -  1) =         45.8  [cm-1]   --> A'                 
     freq (  2 -  2) =         72.4  [cm-1]   --> A''                
     freq (  3 -  3) =        113.7  [cm-1]   --> A'                 

     Calculation of q =   -0.1666667   0.6666667  -0.5000000

   Info: using nr1, nr2, nr3 values from input

   Info: using nr1, nr2, nr3 values from input

     Parallelization info
     --------------------
     sticks:   dense  smooth     PW     G-vecs:    dense   smooth      PW
     Min          67      33     12                 1389      494     115
     Max          68      34     13                 1390      498     118
     Sum        1073     541    205                22231     7935    1865



     bravais-lattice index     =            3
     lattice parameter (alat)  =       7.7300  a.u.
     unit-cell volume          =     230.9450 (a.u.)^3
     number of atoms/cell      =            1
     number of atomic types    =            1
     number of electrons       =         9.00
     number of Kohn-Sham states=            9
     kinetic-energy cutoff     =      40.0000  Ry
     charge density cutoff     =     320.0000  Ry
     Exchange-correlation      = SLA  PW   PBE  PBE ( 1  4  3  4 0 0)

     celldm(1)=   7.730000  celldm(2)=   0.000000  celldm(3)=   0.000000
     celldm(4)=   0.000000  celldm(5)=   0.000000  celldm(6)=   0.000000

     crystal axes: (cart. coord. in units of alat)
               a(1) = (   0.500000   0.500000   0.500000 )  
               a(2) = (  -0.500000   0.500000   0.500000 )  
               a(3) = (  -0.500000  -0.500000   0.500000 )  

     reciprocal axes: (cart. coord. in units 2 pi/alat)
               b(1) = (  1.000000  0.000000  1.000000 )  
               b(2) = ( -1.000000  1.000000  0.000000 )  
               b(3) = (  0.000000 -1.000000  1.000000 )  


     PseudoPot. # 1 for Na read from file:
     /home/s1333534/quantum_espresso/qe-6.1/pseudo/Na_pbe_v1.uspp.F.UPF
     MD5 check sum: 76a99c7e9422403d3e93cbc85ab7bccb
     Pseudo is Ultrasoft, Zval =  9.0
     Generated by new atomic code, or converted to UPF format
     Using radial grid of  819 points,  5 beta functions with: 
                l(1) =   0
                l(2) =   0
                l(3) =   1
                l(4) =   1
                l(5) =   2
     Q(r) pseudized with  8 coefficients,  rinner =    1.250   1.250   1.250
                                                       1.250   1.250

     atomic species   valence    mass     pseudopotential
        Na             9.00    22.99000     Na( 1.00)

     48 Sym. Ops., with inversion, found



   Cartesian axes

     site n.     atom                  positions (alat units)
         1           Na  tau(   1) = (   0.0000000   0.0000000   0.0000000  )

     number of k points= 16000  Marzari-Vanderbilt smearing, width (Ry)=  0.0200

     Number of k-points >= 100: set verbosity='high' to print them.

     Dense  grid:    22231 G-vectors     FFT dimensions: (  40,  40,  40)

     Smooth grid:     7935 G-vectors     FFT dimensions: (  27,  27,  27)

     Estimated max dynamical RAM per process >       0.76MB

     Estimated total allocated dynamical RAM >      48.85MB

     The potential is recalculated from file :
     ./_ph0/na.bcc.save/charge-density.dat

     Starting wfc are    5 atomic +    4 random wfc

     Band Structure Calculation
     Davidson diagonalization with overlap

     ethr =  1.11E-10,  avg # of iterations = 20.5

     total cpu time spent up to now is      632.6 secs

     End of band structure calculation

     Number of k-points >= 100: set verbosity='high' to print the bands.

     the Fermi energy is     1.9534 ev

     Writing output data file na.bcc.save

                                                                                

     bravais-lattice index     =            3
     lattice parameter (alat)  =       7.7300  a.u.
     unit-cell volume          =     230.9450 (a.u.)^3
     number of atoms/cell      =            1
     number of atomic types    =            1
     kinetic-energy cut-off    =      40.0000  Ry
     charge density cut-off    =     320.0000  Ry
     convergence threshold     =      1.0E-16
     beta                      =       0.7000
     number of iterations used =            4
     Exchange-correlation      = SLA  PW   PBE  PBE ( 1  4  3  4 0 0)


     celldm(1)=    7.73000  celldm(2)=    0.00000  celldm(3)=    0.00000
     celldm(4)=    0.00000  celldm(5)=    0.00000  celldm(6)=    0.00000

     crystal axes: (cart. coord. in units of alat)
               a(1) = (  0.5000  0.5000  0.5000 )  
               a(2) = ( -0.5000  0.5000  0.5000 )  
               a(3) = ( -0.5000 -0.5000  0.5000 )  

     reciprocal axes: (cart. coord. in units 2 pi/alat)
               b(1) = (  1.0000  0.0000  1.0000 )  
               b(2) = ( -1.0000  1.0000  0.0000 )  
               b(3) = (  0.0000 -1.0000  1.0000 )  


     Atoms inside the unit cell: 

     Cartesian axes

     site n.  atom      mass           positions (alat units)
        1     Na  22.9900   tau(    1) = (    0.00000    0.00000    0.00000  )

     Computing dynamical matrix for 
                    q = (  -0.1666667   0.6666667  -0.5000000 )

     No symmetry!

     G cutoff =  484.3388  (   1390 G-vectors)     FFT grid: ( 40, 40, 40)
     G cutoff =  242.1694  (    495 G-vectors)  smooth grid: ( 27, 27, 27)

     number of k points= 16000  Marzari-Vanderbilt smearing, width (Ry)=  0.0200

     PseudoPot. # 1 for Na read from file:
     /home/s1333534/quantum_espresso/qe-6.1/pseudo/Na_pbe_v1.uspp.F.UPF
     MD5 check sum: 76a99c7e9422403d3e93cbc85ab7bccb
     Pseudo is Ultrasoft, Zval =  9.0
     Generated by new atomic code, or converted to UPF format
     Using radial grid of  819 points,  5 beta functions with: 
                l(1) =   0
                l(2) =   0
                l(3) =   1
                l(4) =   1
                l(5) =   2
     Q(r) pseudized with  8 coefficients,  rinner =    1.250   1.250   1.250
                                                       1.250   1.250

     Mode symmetry, C_1 (1)     point group:


     Atomic displacements:
     There are   3 irreducible representations

     Representation     1      1 modes -A  To be done

     Representation     2      1 modes -A  To be done

     Representation     3      1 modes -A  To be done



     Alpha used in Ewald sum =   2.8000
     PHONON       : 28m51.80s CPU    31m 5.26s WALL



     Representation #  1 mode #   1

     Self-consistent Calculation

      iter #   1 total cpu time :  1897.7 secs   av.it.:   5.7
      thresh= 1.000E-02 alpha_mix =  0.700 |ddv_scf|^2 =  1.238E-05

      iter #   2 total cpu time :  1935.4 secs   av.it.:   8.1
      thresh= 3.519E-04 alpha_mix =  0.700 |ddv_scf|^2 =  1.502E-06

      iter #   3 total cpu time :  1971.0 secs   av.it.:   7.6
      thresh= 1.226E-04 alpha_mix =  0.700 |ddv_scf|^2 =  6.932E-07

      iter #   4 total cpu time :  2005.0 secs   av.it.:   7.3
      thresh= 8.326E-05 alpha_mix =  0.700 |ddv_scf|^2 =  4.646E-09

      iter #   5 total cpu time :  2042.1 secs   av.it.:   7.9
      thresh= 6.816E-06 alpha_mix =  0.700 |ddv_scf|^2 =  3.793E-10

      iter #   6 total cpu time :  2078.6 secs   av.it.:   7.9
      thresh= 1.948E-06 alpha_mix =  0.700 |ddv_scf|^2 =  4.254E-12

      iter #   7 total cpu time :  2117.1 secs   av.it.:   8.4
      thresh= 2.062E-07 alpha_mix =  0.700 |ddv_scf|^2 =  2.589E-13

      iter #   8 total cpu time :  2155.5 secs   av.it.:   8.5
      thresh= 5.089E-08 alpha_mix =  0.700 |ddv_scf|^2 =  1.316E-14

      iter #   9 total cpu time :  2194.4 secs   av.it.:   8.4
      thresh= 1.147E-08 alpha_mix =  0.700 |ddv_scf|^2 =  2.415E-16

      iter #  10 total cpu time :  2230.3 secs   av.it.:   7.7
      thresh= 1.554E-09 alpha_mix =  0.700 |ddv_scf|^2 =  1.333E-16

      iter #  11 total cpu time :  2264.8 secs   av.it.:   7.3
      thresh= 1.155E-09 alpha_mix =  0.700 |ddv_scf|^2 =  2.198E-18

     End of self-consistent calculation

     Convergence has been achieved 


     Representation #  2 mode #   2

     Self-consistent Calculation

      iter #   1 total cpu time :  2300.3 secs   av.it.:   5.8
      thresh= 1.000E-02 alpha_mix =  0.700 |ddv_scf|^2 =  5.164E-05

      iter #   2 total cpu time :  2336.1 secs   av.it.:   7.6
      thresh= 7.186E-04 alpha_mix =  0.700 |ddv_scf|^2 =  4.538E-05

      iter #   3 total cpu time :  2369.5 secs   av.it.:   7.0
      thresh= 6.736E-04 alpha_mix =  0.700 |ddv_scf|^2 =  9.432E-08

      iter #   4 total cpu time :  2408.6 secs   av.it.:   8.3
      thresh= 3.071E-05 alpha_mix =  0.700 |ddv_scf|^2 =  3.979E-09

      iter #   5 total cpu time :  2447.4 secs   av.it.:   8.3
      thresh= 6.308E-06 alpha_mix =  0.700 |ddv_scf|^2 =  3.135E-10

      iter #   6 total cpu time :  2484.9 secs   av.it.:   8.3
      thresh= 1.771E-06 alpha_mix =  0.700 |ddv_scf|^2 =  9.725E-12

      iter #   7 total cpu time :  2521.6 secs   av.it.:   7.8
      thresh= 3.119E-07 alpha_mix =  0.700 |ddv_scf|^2 =  5.573E-13

      iter #   8 total cpu time :  2558.9 secs   av.it.:   7.9
      thresh= 7.465E-08 alpha_mix =  0.700 |ddv_scf|^2 =  1.597E-14

      iter #   9 total cpu time :  2596.0 secs   av.it.:   7.5
      thresh= 1.264E-08 alpha_mix =  0.700 |ddv_scf|^2 =  1.449E-15

      iter #  10 total cpu time :  2630.5 secs   av.it.:   7.4
      thresh= 3.806E-09 alpha_mix =  0.700 |ddv_scf|^2 =  3.733E-17

     End of self-consistent calculation

     Convergence has been achieved 


     Representation #  3 mode #   3

     Self-consistent Calculation

      iter #   1 total cpu time :  2664.8 secs   av.it.:   5.8
      thresh= 1.000E-02 alpha_mix =  0.700 |ddv_scf|^2 =  5.772E-05

      iter #   2 total cpu time :  2700.7 secs   av.it.:   7.6
      thresh= 7.597E-04 alpha_mix =  0.700 |ddv_scf|^2 =  4.558E-05

      iter #   3 total cpu time :  2733.6 secs   av.it.:   6.9
      thresh= 6.752E-04 alpha_mix =  0.700 |ddv_scf|^2 =  3.242E-07

      iter #   4 total cpu time :  2769.9 secs   av.it.:   7.7
      thresh= 5.694E-05 alpha_mix =  0.700 |ddv_scf|^2 =  7.683E-09

      iter #   5 total cpu time :  2808.2 secs   av.it.:   8.3
      thresh= 8.765E-06 alpha_mix =  0.700 |ddv_scf|^2 =  2.170E-10

      iter #   6 total cpu time :  2846.1 secs   av.it.:   8.3
      thresh= 1.473E-06 alpha_mix =  0.700 |ddv_scf|^2 =  1.592E-11

      iter #   7 total cpu time :  2883.4 secs   av.it.:   8.3
      thresh= 3.990E-07 alpha_mix =  0.700 |ddv_scf|^2 =  8.555E-13

      iter #   8 total cpu time :  2922.1 secs   av.it.:   8.4
      thresh= 9.249E-08 alpha_mix =  0.700 |ddv_scf|^2 =  5.433E-14

      iter #   9 total cpu time :  2957.1 secs   av.it.:   7.5
      thresh= 2.331E-08 alpha_mix =  0.700 |ddv_scf|^2 =  4.089E-15

      iter #  10 total cpu time :  2992.4 secs   av.it.:   7.7
      thresh= 6.395E-09 alpha_mix =  0.700 |ddv_scf|^2 =  6.162E-17

     End of self-consistent calculation

     Convergence has been achieved 

     Number of q in the star =   48
     List of q in the star:
          1  -0.166666667   0.666666667  -0.500000000
          2   0.666666667  -0.166666667  -0.500000000
          3  -0.166666667   0.500000000  -0.666666667
          4   0.166666667   0.500000000  -0.666666667
          5  -0.166666667  -0.500000000   0.666666667
          6   0.166666667  -0.500000000   0.666666667
          7   0.166666667  -0.666666667   0.500000000
          8  -0.166666667  -0.666666667   0.500000000
          9  -0.500000000  -0.666666667  -0.166666667
         10   0.500000000  -0.666666667   0.166666667
         11  -0.500000000   0.666666667   0.166666667
         12   0.500000000   0.666666667  -0.166666667
         13   0.666666667  -0.166666667   0.500000000
         14   0.666666667  -0.500000000  -0.166666667
         15  -0.166666667  -0.500000000  -0.666666667
         16  -0.166666667   0.500000000   0.666666667
         17   0.666666667   0.166666667  -0.500000000
         18   0.166666667   0.666666667  -0.500000000
         19   0.666666667   0.500000000   0.166666667
         20  -0.666666667   0.500000000  -0.166666667
         21   0.500000000   0.166666667   0.666666667
         22  -0.500000000   0.166666667  -0.666666667
         23   0.500000000   0.666666667   0.166666667
         24   0.500000000  -0.166666667  -0.666666667
         25  -0.666666667   0.166666667   0.500000000
         26  -0.166666667   0.666666667   0.500000000
         27  -0.500000000  -0.166666667   0.666666667
         28   0.166666667   0.666666667   0.500000000
         29  -0.500000000   0.666666667  -0.166666667
         30  -0.666666667  -0.166666667  -0.500000000
         31  -0.666666667  -0.166666667   0.500000000
         32   0.666666667   0.166666667   0.500000000
         33   0.166666667  -0.666666667  -0.500000000
         34  -0.666666667   0.166666667  -0.500000000
         35   0.500000000  -0.666666667  -0.166666667
         36  -0.500000000  -0.666666667   0.166666667
         37  -0.166666667  -0.666666667  -0.500000000
         38  -0.666666667  -0.500000000   0.166666667
         39   0.166666667   0.500000000   0.666666667
         40   0.166666667  -0.500000000  -0.666666667
         41  -0.666666667   0.500000000   0.166666667
         42   0.666666667   0.500000000  -0.166666667
         43  -0.666666667  -0.500000000  -0.166666667
         44   0.666666667  -0.500000000   0.166666667
         45   0.500000000   0.166666667  -0.666666667
         46   0.500000000  -0.166666667   0.666666667
         47  -0.500000000  -0.166666667  -0.666666667
         48  -0.500000000   0.166666667   0.666666667

     Diagonalizing the dynamical matrix

     q = (   -0.166666667   0.666666667  -0.500000000 ) 

 **************************************************************************
     freq (    1) =       1.650763 [THz] =      55.063543 [cm-1]
     freq (    2) =       3.004785 [THz] =     100.228835 [cm-1]
     freq (    3) =       4.173077 [THz] =     139.198860 [cm-1]
 **************************************************************************

     Mode symmetry, C_1 (1)     point group:

     freq (  1 -  1) =         55.1  [cm-1]   --> A                  
     freq (  2 -  2) =        100.2  [cm-1]   --> A                  
     freq (  3 -  3) =        139.2  [cm-1]   --> A                  

     Calculation of q =   -0.3333333   0.6666667  -0.3333333

   Info: using nr1, nr2, nr3 values from input

   Info: using nr1, nr2, nr3 values from input

     Parallelization info
     --------------------
     sticks:   dense  smooth     PW     G-vecs:    dense   smooth      PW
     Min          67      33     12                 1389      494     115
     Max          68      34     13                 1390      498     118
     Sum        1073     541    205                22231     7935    1865



     bravais-lattice index     =            3
     lattice parameter (alat)  =       7.7300  a.u.
     unit-cell volume          =     230.9450 (a.u.)^3
     number of atoms/cell      =            1
     number of atomic types    =            1
     number of electrons       =         9.00
     number of Kohn-Sham states=            9
     kinetic-energy cutoff     =      40.0000  Ry
     charge density cutoff     =     320.0000  Ry
     Exchange-correlation      = SLA  PW   PBE  PBE ( 1  4  3  4 0 0)

     celldm(1)=   7.730000  celldm(2)=   0.000000  celldm(3)=   0.000000
     celldm(4)=   0.000000  celldm(5)=   0.000000  celldm(6)=   0.000000

     crystal axes: (cart. coord. in units of alat)
               a(1) = (   0.500000   0.500000   0.500000 )  
               a(2) = (  -0.500000   0.500000   0.500000 )  
               a(3) = (  -0.500000  -0.500000   0.500000 )  

     reciprocal axes: (cart. coord. in units 2 pi/alat)
               b(1) = (  1.000000  0.000000  1.000000 )  
               b(2) = ( -1.000000  1.000000  0.000000 )  
               b(3) = (  0.000000 -1.000000  1.000000 )  


     PseudoPot. # 1 for Na read from file:
     /home/s1333534/quantum_espresso/qe-6.1/pseudo/Na_pbe_v1.uspp.F.UPF
     MD5 check sum: 76a99c7e9422403d3e93cbc85ab7bccb
     Pseudo is Ultrasoft, Zval =  9.0
     Generated by new atomic code, or converted to UPF format
     Using radial grid of  819 points,  5 beta functions with: 
                l(1) =   0
                l(2) =   0
                l(3) =   1
                l(4) =   1
                l(5) =   2
     Q(r) pseudized with  8 coefficients,  rinner =    1.250   1.250   1.250
                                                       1.250   1.250

     atomic species   valence    mass     pseudopotential
        Na             9.00    22.99000     Na( 1.00)

     48 Sym. Ops., with inversion, found



   Cartesian axes

     site n.     atom                  positions (alat units)
         1           Na  tau(   1) = (   0.0000000   0.0000000   0.0000000  )

     number of k points=  3080  Marzari-Vanderbilt smearing, width (Ry)=  0.0200

     Number of k-points >= 100: set verbosity='high' to print them.

     Dense  grid:    22231 G-vectors     FFT dimensions: (  40,  40,  40)

     Smooth grid:     7935 G-vectors     FFT dimensions: (  27,  27,  27)

     Estimated max dynamical RAM per process >       0.76MB

     Estimated total allocated dynamical RAM >      48.85MB

     The potential is recalculated from file :
     ./_ph0/na.bcc.save/charge-density.dat

     Starting wfc are    5 atomic +    4 random wfc

     Band Structure Calculation
     Davidson diagonalization with overlap

     ethr =  1.11E-10,  avg # of iterations = 20.9

     total cpu time spent up to now is      731.8 secs

     End of band structure calculation

     Number of k-points >= 100: set verbosity='high' to print the bands.

     the Fermi energy is     1.9534 ev

     Writing output data file na.bcc.save

                                                                                

     bravais-lattice index     =            3
     lattice parameter (alat)  =       7.7300  a.u.
     unit-cell volume          =     230.9450 (a.u.)^3
     number of atoms/cell      =            1
     number of atomic types    =            1
     kinetic-energy cut-off    =      40.0000  Ry
     charge density cut-off    =     320.0000  Ry
     convergence threshold     =      1.0E-16
     beta                      =       0.7000
     number of iterations used =            4
     Exchange-correlation      = SLA  PW   PBE  PBE ( 1  4  3  4 0 0)


     celldm(1)=    7.73000  celldm(2)=    0.00000  celldm(3)=    0.00000
     celldm(4)=    0.00000  celldm(5)=    0.00000  celldm(6)=    0.00000

     crystal axes: (cart. coord. in units of alat)
               a(1) = (  0.5000  0.5000  0.5000 )  
               a(2) = ( -0.5000  0.5000  0.5000 )  
               a(3) = ( -0.5000 -0.5000  0.5000 )  

     reciprocal axes: (cart. coord. in units 2 pi/alat)
               b(1) = (  1.0000  0.0000  1.0000 )  
               b(2) = ( -1.0000  1.0000  0.0000 )  
               b(3) = (  0.0000 -1.0000  1.0000 )  


     Atoms inside the unit cell: 

     Cartesian axes

     site n.  atom      mass           positions (alat units)
        1     Na  22.9900   tau(    1) = (    0.00000    0.00000    0.00000  )

     Computing dynamical matrix for 
                    q = (  -0.3333333   0.6666667  -0.3333333 )

      6 Sym.Ops. (no q -> -q+G )


     G cutoff =  484.3388  (   1390 G-vectors)     FFT grid: ( 40, 40, 40)
     G cutoff =  242.1694  (    495 G-vectors)  smooth grid: ( 27, 27, 27)

     number of k points=  3080  Marzari-Vanderbilt smearing, width (Ry)=  0.0200

     PseudoPot. # 1 for Na read from file:
     /home/s1333534/quantum_espresso/qe-6.1/pseudo/Na_pbe_v1.uspp.F.UPF
     MD5 check sum: 76a99c7e9422403d3e93cbc85ab7bccb
     Pseudo is Ultrasoft, Zval =  9.0
     Generated by new atomic code, or converted to UPF format
     Using radial grid of  819 points,  5 beta functions with: 
                l(1) =   0
                l(2) =   0
                l(3) =   1
                l(4) =   1
                l(5) =   2
     Q(r) pseudized with  8 coefficients,  rinner =    1.250   1.250   1.250
                                                       1.250   1.250

     Mode symmetry, C_3v (3m)   point group:


     Atomic displacements:
     There are   2 irreducible representations

     Representation     1      1 modes -A_1  L_1  To be done

     Representation     2      2 modes -E    L_3  To be done



     Alpha used in Ewald sum =   2.8000
     PHONON       : 46m55.92s CPU    50m56.80s WALL



     Representation #  1 mode #   1

     Self-consistent Calculation

      iter #   1 total cpu time :  3062.9 secs   av.it.:   5.4
      thresh= 1.000E-02 alpha_mix =  0.700 |ddv_scf|^2 =  1.059E-05

      iter #   2 total cpu time :  3069.8 secs   av.it.:   7.8
      thresh= 3.254E-04 alpha_mix =  0.700 |ddv_scf|^2 =  1.671E-07

      iter #   3 total cpu time :  3077.4 secs   av.it.:   8.0
      thresh= 4.088E-05 alpha_mix =  0.700 |ddv_scf|^2 =  7.684E-09

      iter #   4 total cpu time :  3084.2 secs   av.it.:   7.6
      thresh= 8.766E-06 alpha_mix =  0.700 |ddv_scf|^2 =  1.066E-10

      iter #   5 total cpu time :  3090.8 secs   av.it.:   7.2
      thresh= 1.033E-06 alpha_mix =  0.700 |ddv_scf|^2 =  3.735E-12

      iter #   6 total cpu time :  3098.0 secs   av.it.:   8.0
      thresh= 1.933E-07 alpha_mix =  0.700 |ddv_scf|^2 =  5.859E-14

      iter #   7 total cpu time :  3105.4 secs   av.it.:   8.4
      thresh= 2.421E-08 alpha_mix =  0.700 |ddv_scf|^2 =  4.027E-15

      iter #   8 total cpu time :  3112.5 secs   av.it.:   8.1
      thresh= 6.346E-09 alpha_mix =  0.700 |ddv_scf|^2 =  6.057E-17

     End of self-consistent calculation

     Convergence has been achieved 


     Representation #  2 modes #   2  3

     Self-consistent Calculation

      iter #   1 total cpu time :  3125.1 secs   av.it.:   5.6
      thresh= 1.000E-02 alpha_mix =  0.700 |ddv_scf|^2 =  8.168E-06

      iter #   2 total cpu time :  3139.5 secs   av.it.:   8.2
      thresh= 2.858E-04 alpha_mix =  0.700 |ddv_scf|^2 =  9.772E-07

      iter #   3 total cpu time :  3153.5 secs   av.it.:   7.7
      thresh= 9.885E-05 alpha_mix =  0.700 |ddv_scf|^2 =  8.161E-09

      iter #   4 total cpu time :  3168.5 secs   av.it.:   8.6
      thresh= 9.034E-06 alpha_mix =  0.700 |ddv_scf|^2 =  6.603E-11

      iter #   5 total cpu time :  3182.7 secs   av.it.:   8.0
      thresh= 8.126E-07 alpha_mix =  0.700 |ddv_scf|^2 =  7.107E-14

      iter #   6 total cpu time :  3196.6 secs   av.it.:   8.2
      thresh= 2.666E-08 alpha_mix =  0.700 |ddv_scf|^2 =  4.465E-15

      iter #   7 total cpu time :  3210.7 secs   av.it.:   8.3
      thresh= 6.682E-09 alpha_mix =  0.700 |ddv_scf|^2 =  1.504E-17

     End of self-consistent calculation

     Convergence has been achieved 

     Number of q in the star =    8
     List of q in the star:
          1  -0.333333333   0.666666667  -0.333333333
          2   0.333333333  -0.666666667   0.333333333
          3  -0.333333333  -0.666666667   0.333333333
          4  -0.333333333  -0.666666667  -0.333333333
          5  -0.333333333   0.666666667   0.333333333
          6   0.333333333   0.666666667  -0.333333333
          7  -0.666666667   0.333333333  -0.333333333
          8   0.333333333   0.666666667   0.333333333

     Diagonalizing the dynamical matrix

     q = (   -0.333333333   0.666666667  -0.333333333 ) 

 **************************************************************************
     freq (    1) =       1.964961 [THz] =      65.544029 [cm-1]
     freq (    2) =       3.827958 [THz] =     127.686940 [cm-1]
     freq (    3) =       3.827958 [THz] =     127.686940 [cm-1]
 **************************************************************************

     Mode symmetry, C_3v (3m)   point group:

     freq (  1 -  1) =         65.5  [cm-1]   --> A_1  L_1           
     freq (  2 -  3) =        127.7  [cm-1]   --> E    L_3           

     Calculation of q =    0.0000000   0.0000000   0.3333333

   Info: using nr1, nr2, nr3 values from input

   Info: using nr1, nr2, nr3 values from input

     Parallelization info
     --------------------
     sticks:   dense  smooth     PW     G-vecs:    dense   smooth      PW
     Min          67      33     11                 1389      494      96
     Max          68      34     12                 1390      498      98
     Sum        1073     541    181                22231     7935    1553



     bravais-lattice index     =            3
     lattice parameter (alat)  =       7.7300  a.u.
     unit-cell volume          =     230.9450 (a.u.)^3
     number of atoms/cell      =            1
     number of atomic types    =            1
     number of electrons       =         9.00
     number of Kohn-Sham states=            9
     kinetic-energy cutoff     =      40.0000  Ry
     charge density cutoff     =     320.0000  Ry
     Exchange-correlation      = SLA  PW   PBE  PBE ( 1  4  3  4 0 0)

     celldm(1)=   7.730000  celldm(2)=   0.000000  celldm(3)=   0.000000
     celldm(4)=   0.000000  celldm(5)=   0.000000  celldm(6)=   0.000000

     crystal axes: (cart. coord. in units of alat)
               a(1) = (   0.500000   0.500000   0.500000 )  
               a(2) = (  -0.500000   0.500000   0.500000 )  
               a(3) = (  -0.500000  -0.500000   0.500000 )  

     reciprocal axes: (cart. coord. in units 2 pi/alat)
[...]
     G cutoff =  242.1694  (    495 G-vectors)  smooth grid: ( 27, 27, 27)

     number of k points=  4400  Marzari-Vanderbilt smearing, width (Ry)=  0.0200

     PseudoPot. # 1 for Na read from file:
     /home/s1333534/quantum_espresso/qe-6.1/pseudo/Na_pbe_v1.uspp.F.UPF
     MD5 check sum: 76a99c7e9422403d3e93cbc85ab7bccb
     Pseudo is Ultrasoft, Zval =  9.0
     Generated by new atomic code, or converted to UPF format
     Using radial grid of  819 points,  5 beta functions with: 
                l(1) =   0
                l(2) =   0
                l(3) =   1
                l(4) =   1
                l(5) =   2
     Q(r) pseudized with  8 coefficients,  rinner =    1.250   1.250   1.250
                                                       1.250   1.250

     Mode symmetry, C_2v (mm2)  point group:


     Atomic displacements:
     There are   3 irreducible representations

     Representation     1      1 modes -A_1  D_1  S_1  To be done

     Representation     2      1 modes -B_1  D_3  S_3  To be done

     Representation     3      1 modes -B_2  D_4  S_4  To be done



     Alpha used in Ewald sum =   2.8000
     PHONON       :     1h30m CPU        1h38m WALL



     Representation #  1 mode #   1

     Self-consistent Calculation

      iter #   1 total cpu time :  5906.5 secs   av.it.:   5.7
      thresh= 1.000E-02 alpha_mix =  0.700 |ddv_scf|^2 =  1.857E-05

      iter #   2 total cpu time :  5916.9 secs   av.it.:   7.9
      thresh= 4.310E-04 alpha_mix =  0.700 |ddv_scf|^2 =  8.782E-07

      iter #   3 total cpu time :  5926.9 secs   av.it.:   7.7
      thresh= 9.371E-05 alpha_mix =  0.700 |ddv_scf|^2 =  2.081E-08

      iter #   4 total cpu time :  5937.0 secs   av.it.:   8.1
      thresh= 1.443E-05 alpha_mix =  0.700 |ddv_scf|^2 =  1.344E-09

      iter #   5 total cpu time :  5947.2 secs   av.it.:   8.1
      thresh= 3.666E-06 alpha_mix =  0.700 |ddv_scf|^2 =  1.059E-10

      iter #   6 total cpu time :  5957.5 secs   av.it.:   7.9
      thresh= 1.029E-06 alpha_mix =  0.700 |ddv_scf|^2 =  7.237E-13

      iter #   7 total cpu time :  5967.6 secs   av.it.:   8.0
      thresh= 8.507E-08 alpha_mix =  0.700 |ddv_scf|^2 =  5.099E-14

      iter #   8 total cpu time :  5978.4 secs   av.it.:   8.0
      thresh= 2.258E-08 alpha_mix =  0.700 |ddv_scf|^2 =  7.698E-17

     End of self-consistent calculation

     Convergence has been achieved 


     Representation #  2 mode #   2

     Self-consistent Calculation

      iter #   1 total cpu time :  5988.0 secs   av.it.:   5.5
      thresh= 1.000E-02 alpha_mix =  0.700 |ddv_scf|^2 =  1.601E-05

      iter #   2 total cpu time :  5997.8 secs   av.it.:   7.7
      thresh= 4.001E-04 alpha_mix =  0.700 |ddv_scf|^2 =  2.117E-07

      iter #   3 total cpu time :  6007.6 secs   av.it.:   7.6
      thresh= 4.601E-05 alpha_mix =  0.700 |ddv_scf|^2 =  2.027E-08

      iter #   4 total cpu time :  6017.5 secs   av.it.:   7.7
      thresh= 1.424E-05 alpha_mix =  0.700 |ddv_scf|^2 =  8.511E-11

      iter #   5 total cpu time :  6027.2 secs   av.it.:   7.6
      thresh= 9.225E-07 alpha_mix =  0.700 |ddv_scf|^2 =  4.081E-14

      iter #   6 total cpu time :  6036.7 secs   av.it.:   7.1
      thresh= 2.020E-08 alpha_mix =  0.700 |ddv_scf|^2 =  2.935E-15

      iter #   7 total cpu time :  6046.2 secs   av.it.:   7.4
      thresh= 5.417E-09 alpha_mix =  0.700 |ddv_scf|^2 =  5.602E-18

     End of self-consistent calculation

     Convergence has been achieved 


     Representation #  3 mode #   3

     Self-consistent Calculation

      iter #   1 total cpu time :  6055.7 secs   av.it.:   5.7
      thresh= 1.000E-02 alpha_mix =  0.700 |ddv_scf|^2 =  2.710E-05

      iter #   2 total cpu time :  6065.6 secs   av.it.:   7.7
      thresh= 5.206E-04 alpha_mix =  0.700 |ddv_scf|^2 =  1.993E-06

      iter #   3 total cpu time :  6075.3 secs   av.it.:   7.3
      thresh= 1.412E-04 alpha_mix =  0.700 |ddv_scf|^2 =  2.894E-08

      iter #   4 total cpu time :  6085.2 secs   av.it.:   7.8
      thresh= 1.701E-05 alpha_mix =  0.700 |ddv_scf|^2 =  8.499E-10

      iter #   5 total cpu time :  6094.6 secs   av.it.:   7.4
      thresh= 2.915E-06 alpha_mix =  0.700 |ddv_scf|^2 =  1.447E-12

      iter #   6 total cpu time :  6104.6 secs   av.it.:   8.0
      thresh= 1.203E-07 alpha_mix =  0.700 |ddv_scf|^2 =  1.016E-14

      iter #   7 total cpu time :  6114.6 secs   av.it.:   7.9
      thresh= 1.008E-08 alpha_mix =  0.700 |ddv_scf|^2 =  1.727E-16

      iter #   8 total cpu time :  6124.2 secs   av.it.:   7.5
      thresh= 1.314E-09 alpha_mix =  0.700 |ddv_scf|^2 =  2.873E-19

     End of self-consistent calculation

     Convergence has been achieved 

     Number of q in the star =   12
     List of q in the star:
          1   0.000000000   0.833333333  -0.166666667
          2   0.000000000  -0.833333333  -0.166666667
          3   0.833333333   0.000000000  -0.166666667
          4  -0.833333333   0.000000000  -0.166666667
          5  -0.166666667  -0.833333333   0.000000000
          6   0.166666667  -0.833333333   0.000000000
          7  -0.166666667   0.833333333   0.000000000
          8   0.166666667   0.833333333   0.000000000
          9   0.833333333   0.000000000   0.166666667
         10   0.000000000   0.166666667  -0.833333333
         11   0.000000000  -0.166666667  -0.833333333
         12   0.166666667   0.000000000  -0.833333333

     Diagonalizing the dynamical matrix

     q = (    0.000000000   0.833333333  -0.166666667 ) 

 **************************************************************************
     freq (    1) =       3.503946 [THz] =     116.879047 [cm-1]
     freq (    2) =       3.817233 [THz] =     127.329182 [cm-1]
     freq (    3) =       4.163069 [THz] =     138.865040 [cm-1]
 **************************************************************************

     Mode symmetry, C_2v (mm2)  point group:

     freq (  1 -  1) =        116.9  [cm-1]   --> A_1  D_1  S_1      
     freq (  2 -  2) =        127.3  [cm-1]   --> B_1  D_3  S_3      
     freq (  3 -  3) =        138.9  [cm-1]   --> B_2  D_4  S_4      

     Calculation of q =    0.0000000   0.0000000  -1.0000000

   Info: using nr1, nr2, nr3 values from input

   Info: using nr1, nr2, nr3 values from input

     Parallelization info
     --------------------
     sticks:   dense  smooth     PW     G-vecs:    dense   smooth      PW
     Min          67      33     12                 1389      494     108
     Max          68      34     13                 1390      498     110
     Sum        1073     541    201                22231     7935    1745



     bravais-lattice index     =            3
     lattice parameter (alat)  =       7.7300  a.u.
     unit-cell volume          =     230.9450 (a.u.)^3
     number of atoms/cell      =            1
     number of atomic types    =            1
     number of electrons       =         9.00
     number of Kohn-Sham states=            9
     kinetic-energy cutoff     =      40.0000  Ry
     charge density cutoff     =     320.0000  Ry
     Exchange-correlation      = SLA  PW   PBE  PBE ( 1  4  3  4 0 0)

     celldm(1)=   7.730000  celldm(2)=   0.000000  celldm(3)=   0.000000
     celldm(4)=   0.000000  celldm(5)=   0.000000  celldm(6)=   0.000000

     crystal axes: (cart. coord. in units of alat)
               a(1) = (   0.500000   0.500000   0.500000 )  
               a(2) = (  -0.500000   0.500000   0.500000 )  
               a(3) = (  -0.500000  -0.500000   0.500000 )  

     reciprocal axes: (cart. coord. in units 2 pi/alat)
               b(1) = (  1.000000  0.000000  1.000000 )  
               b(2) = ( -1.000000  1.000000  0.000000 )  
               b(3) = (  0.000000 -1.000000  1.000000 )  


     PseudoPot. # 1 for Na read from file:
     /home/s1333534/quantum_espresso/qe-6.1/pseudo/Na_pbe_v1.uspp.F.UPF
     MD5 check sum: 76a99c7e9422403d3e93cbc85ab7bccb
     Pseudo is Ultrasoft, Zval =  9.0
     Generated by new atomic code, or converted to UPF format
     Using radial grid of  819 points,  5 beta functions with: 
                l(1) =   0
                l(2) =   0
                l(3) =   1
                l(4) =   1
                l(5) =   2
     Q(r) pseudized with  8 coefficients,  rinner =    1.250   1.250   1.250
                                                       1.250   1.250

     atomic species   valence    mass     pseudopotential
        Na             9.00    22.99000     Na( 1.00)

     48 Sym. Ops., with inversion, found



   Cartesian axes

     site n.     atom                  positions (alat units)
         1           Na  tau(   1) = (   0.0000000   0.0000000   0.0000000  )

     number of k points=   500  Marzari-Vanderbilt smearing, width (Ry)=  0.0200

     Number of k-points >= 100: set verbosity='high' to print them.

     Dense  grid:    22231 G-vectors     FFT dimensions: (  40,  40,  40)

     Smooth grid:     7935 G-vectors     FFT dimensions: (  27,  27,  27)

     Estimated max dynamical RAM per process >       0.76MB

     Estimated total allocated dynamical RAM >      48.85MB

     The potential is recalculated from file :
     ./_ph0/na.bcc.save/charge-density.dat

     Starting wfc are    5 atomic +    4 random wfc

     Band Structure Calculation
     Davidson diagonalization with overlap

     ethr =  1.11E-10,  avg # of iterations = 21.0

     total cpu time spent up to now is     1479.8 secs

     End of band structure calculation

     Number of k-points >= 100: set verbosity='high' to print the bands.

     the Fermi energy is     1.9534 ev

     Writing output data file na.bcc.save

                                                                                

     bravais-lattice index     =            3
     lattice parameter (alat)  =       7.7300  a.u.
     unit-cell volume          =     230.9450 (a.u.)^3
     number of atoms/cell      =            1
     number of atomic types    =            1
     kinetic-energy cut-off    =      40.0000  Ry
     charge density cut-off    =     320.0000  Ry
     convergence threshold     =      1.0E-16
     beta                      =       0.7000
     number of iterations used =            4
     Exchange-correlation      = SLA  PW   PBE  PBE ( 1  4  3  4 0 0)


     celldm(1)=    7.73000  celldm(2)=    0.00000  celldm(3)=    0.00000
     celldm(4)=    0.00000  celldm(5)=    0.00000  celldm(6)=    0.00000

     crystal axes: (cart. coord. in units of alat)
               a(1) = (  0.5000  0.5000  0.5000 )  
               a(2) = ( -0.5000  0.5000  0.5000 )  
               a(3) = ( -0.5000 -0.5000  0.5000 )  

     reciprocal axes: (cart. coord. in units 2 pi/alat)
               b(1) = (  1.0000  0.0000  1.0000 )  
               b(2) = ( -1.0000  1.0000  0.0000 )  
               b(3) = (  0.0000 -1.0000  1.0000 )  


     Atoms inside the unit cell: 

     Cartesian axes

     site n.  atom      mass           positions (alat units)
        1     Na  22.9900   tau(    1) = (    0.00000    0.00000    0.00000  )

     Computing dynamical matrix for 
                    q = (   0.0000000   0.0000000  -1.0000000 )

     49 Sym.Ops. (with q -> -q+G )


     G cutoff =  484.3388  (   1390 G-vectors)     FFT grid: ( 40, 40, 40)
     G cutoff =  242.1694  (    495 G-vectors)  smooth grid: ( 27, 27, 27)

     number of k points=   500  Marzari-Vanderbilt smearing, width (Ry)=  0.0200

     PseudoPot. # 1 for Na read from file:
     /home/s1333534/quantum_espresso/qe-6.1/pseudo/Na_pbe_v1.uspp.F.UPF
     MD5 check sum: 76a99c7e9422403d3e93cbc85ab7bccb
     Pseudo is Ultrasoft, Zval =  9.0
     Generated by new atomic code, or converted to UPF format
     Using radial grid of  819 points,  5 beta functions with: 
                l(1) =   0
                l(2) =   0
                l(3) =   1
                l(4) =   1
                l(5) =   2
     Q(r) pseudized with  8 coefficients,  rinner =    1.250   1.250   1.250
                                                       1.250   1.250

     Mode symmetry, O_h (m-3m)  point group:


     Atomic displacements:
     There are   1 irreducible representations

     Representation     1      3 modes -T_1u G_15  G_4-  To be done



     Alpha used in Ewald sum =   2.8000
     PHONON       :     1h34m CPU        1h42m WALL



     Representation #  1 modes #   1  2  3

     Self-consistent Calculation

      iter #   1 total cpu time :  6139.4 secs   av.it.:   5.7
      thresh= 1.000E-02 alpha_mix =  0.700 |ddv_scf|^2 =  1.986E-06

      iter #   2 total cpu time :  6144.2 secs   av.it.:   8.5
      thresh= 1.409E-04 alpha_mix =  0.700 |ddv_scf|^2 =  3.059E-08

      iter #   3 total cpu time :  6149.0 secs   av.it.:   8.3
      thresh= 1.749E-05 alpha_mix =  0.700 |ddv_scf|^2 =  2.585E-09

      iter #   4 total cpu time :  6153.5 secs   av.it.:   8.4
      thresh= 5.085E-06 alpha_mix =  0.700 |ddv_scf|^2 =  1.003E-11

      iter #   5 total cpu time :  6158.2 secs   av.it.:   8.3
      thresh= 3.167E-07 alpha_mix =  0.700 |ddv_scf|^2 =  3.448E-15

      iter #   6 total cpu time :  6162.4 secs   av.it.:   7.3
      thresh= 5.872E-09 alpha_mix =  0.700 |ddv_scf|^2 =  2.618E-16

      iter #   7 total cpu time :  6166.9 secs   av.it.:   8.0
      thresh= 1.618E-09 alpha_mix =  0.700 |ddv_scf|^2 =  3.317E-19

     End of self-consistent calculation

     Convergence has been achieved 

     Number of q in the star =    1
     List of q in the star:
          1   0.000000000   0.000000000  -1.000000000

     Diagonalizing the dynamical matrix

     q = (    0.000000000   0.000000000  -1.000000000 ) 

 **************************************************************************
     freq (    1) =       4.097092 [THz] =     136.664278 [cm-1]
     freq (    2) =       4.097092 [THz] =     136.664278 [cm-1]
     freq (    3) =       4.097092 [THz] =     136.664278 [cm-1]
 **************************************************************************

     Mode symmetry, O_h (m-3m)  point group:

     freq (  1 -  3) =        136.7  [cm-1]   --> T_1u G_15  G_4-    

     init_run     :      2.33s CPU      2.45s WALL (      15 calls)
     electrons    :   1181.39s CPU   1248.96s WALL (      15 calls)

     Called by init_run:
     wfcinit      :      0.00s CPU      0.00s WALL (      15 calls)
     potinit      :      0.40s CPU      0.41s WALL (      15 calls)

     Called by electrons:
     c_bands      :   1181.06s CPU   1248.63s WALL (      15 calls)
     v_of_rho     :      0.17s CPU      0.17s WALL (      16 calls)
     newd         :      0.15s CPU      0.16s WALL (      16 calls)

     Called by c_bands:
     init_us_2    :     22.88s CPU     24.78s WALL (  334389 calls)
     cegterg      :    906.17s CPU    965.46s WALL (   26169 calls)

     Called by sum_band:

     Called by *egterg:
     h_psi        :   3276.30s CPU   3538.70s WALL ( 3103606 calls)
     s_psi        :     90.96s CPU    100.02s WALL ( 6024064 calls)
     g_psi        :      2.81s CPU      3.04s WALL (  397884 calls)
     cdiaghg      :    254.26s CPU    270.60s WALL (  417146 calls)

     Called by h_psi:
     h_psi:pot    :   3253.73s CPU   3513.75s WALL ( 3103606 calls)
     h_psi:calbec :    189.11s CPU    203.34s WALL ( 3103606 calls)
     vloc_psi     :   2981.80s CPU   3221.01s WALL ( 3103606 calls)
     add_vuspsi   :     49.81s CPU     54.39s WALL ( 3103606 calls)

     General routines
     calbec       :    346.00s CPU    373.70s WALL ( 6565168 calls)
     fft          :      4.80s CPU      4.99s WALL (    6316 calls)
     ffts         :      5.54s CPU      6.10s WALL (   30425 calls)
     fftw         :   3295.08s CPU   3577.99s WALL (29935822 calls)
     interpolate  :      1.50s CPU      1.70s WALL (     866 calls)
     davcio       :     32.37s CPU     78.50s WALL ( 1358927 calls)

     Parallel routines
     fft_scatter  :   1439.06s CPU   1564.74s WALL (29972563 calls)

     PHONON       :     1h34m CPU        1h42m WALL

     INITIALIZATION: 
     phq_setup    :      0.70s CPU      0.73s WALL (      16 calls)
     phq_init     :     60.22s CPU     63.78s WALL (      16 calls)

     phq_init     :     60.22s CPU     63.78s WALL (      16 calls)
     init_vloc    :      0.11s CPU      0.11s WALL (      16 calls)
     init_us_1    :      1.15s CPU      1.24s WALL (      16 calls)
     newd         :      0.15s CPU      0.16s WALL (      16 calls)
     dvanqq       :      0.61s CPU      0.62s WALL (      16 calls)
     drho         :     46.53s CPU     49.36s WALL (      16 calls)

     DYNAMICAL MATRIX:
     dynmat0      :      8.55s CPU      8.90s WALL (      16 calls)
     phqscf       :   4208.06s CPU   4617.31s WALL (      16 calls)
     dynmatrix    :      0.54s CPU      0.57s WALL (      16 calls)

     phqscf       :   4208.06s CPU   4617.31s WALL (      16 calls)
     solve_linter :   4194.37s CPU   4602.25s WALL (      40 calls)
     drhodv       :     13.36s CPU     14.21s WALL (      40 calls)

     dynmat0      :      8.55s CPU      8.90s WALL (      16 calls)
     dynmat_us    :      8.50s CPU      8.85s WALL (      16 calls)
     d2ionq       :      0.01s CPU      0.01s WALL (      16 calls)

     dynmat_us    :      8.50s CPU      8.85s WALL (      16 calls)
     addusdynmat  :      0.00s CPU      0.00s WALL (      16 calls)

     phqscf       :   4208.06s CPU   4617.31s WALL (      16 calls)
     solve_linter :   4194.37s CPU   4602.25s WALL (      40 calls)

     solve_linter :   4194.37s CPU   4602.25s WALL (      40 calls)
     dvqpsi_us    :     81.50s CPU     87.05s WALL (   29082 calls)
     ortho        :     52.41s CPU     56.00s WALL (  260167 calls)
     cgsolve      :   3296.25s CPU   3577.79s WALL (  260167 calls)
     incdrhoscf   :    321.92s CPU    366.53s WALL (  260167 calls)
     addusddens   :      4.60s CPU      4.63s WALL (     379 calls)
     vpsifft      :    261.93s CPU    283.83s WALL (  231085 calls)
     dv_of_drho   :      3.31s CPU      3.38s WALL (     393 calls)
     mix_pot      :      0.60s CPU      3.30s WALL (     339 calls)
     ef_shift     :      0.02s CPU      0.04s WALL (       7 calls)
     localdos     :      0.09s CPU      0.09s WALL (       1 calls)
     psymdvscf    :     28.91s CPU     29.47s WALL (     308 calls)
     newdq        :      4.53s CPU      4.61s WALL (     339 calls)
     adddvscf     :     14.10s CPU     15.09s WALL (  231085 calls)
     drhodvus     :      0.02s CPU      0.02s WALL (      40 calls)

     dvqpsi_us    :     81.50s CPU     87.05s WALL (   29082 calls)
     dvqpsi_us_on :     13.74s CPU     14.39s WALL (   29082 calls)

     cgsolve      :   3296.25s CPU   3577.79s WALL (  260167 calls)
     ch_psi       :   3114.56s CPU   3378.93s WALL ( 2660291 calls)

     ch_psi       :   3114.56s CPU   3378.93s WALL ( 2660291 calls)
     h_psi        :   3276.30s CPU   3538.70s WALL ( 3103606 calls)
     last         :    321.92s CPU    350.42s WALL ( 2660291 calls)

     h_psi        :   3276.30s CPU   3538.70s WALL ( 3103606 calls)
     add_vuspsi   :     49.81s CPU     54.39s WALL ( 3103606 calls)

     incdrhoscf   :    321.92s CPU    366.53s WALL (  260167 calls)
     addusdbec    :     25.85s CPU     27.67s WALL (  289249 calls)

     drhodvus     :      0.02s CPU      0.02s WALL (      40 calls)

      General routines
     calbec       :    346.00s CPU    373.70s WALL ( 6565168 calls)
     fft          :      4.80s CPU      4.99s WALL (    6316 calls)
     ffts         :      5.54s CPU      6.10s WALL (   30425 calls)
     fftw         :   3295.08s CPU   3577.99s WALL (29935822 calls)
     davcio       :     32.37s CPU     78.50s WALL ( 1358927 calls)
     write_rec    :      1.42s CPU      3.68s WALL (     379 calls)


     PHONON       :     1h34m CPU        1h42m WALL


   This run was terminated on:  12:10: 6  13Feb2018            

=------------------------------------------------------------------------------=
   JOB DONE.
=------------------------------------------------------------------------------=
