
     Program PWSCF v.6.1 (svn rev. 13369) starts on 20Dec2017 at 15:46:29 

     This program is part of the open-source Quantum ESPRESSO suite
     for quantum simulation of materials; please cite
         "P. Giannozzi et al., J. Phys.:Condens. Matter 21 395502 (2009);
          URL http://www.quantum-espresso.org", 
     in publications or presentations arising from this work. More details at
     http://www.quantum-espresso.org/quote

     Parallel version (MPI), running on     4 processors
     R & G space division:  proc/nbgrp/npool/nimage =       4
     Waiting for input...
     Reading input from standard input

     Current dimensions of program PWSCF are:
     Max number of different atomic species (ntypx) = 10
     Max number of k-points (npk) =  40000
     Max angular momentum in pseudopotentials (lmaxx) =  3

     Subspace diagonalization in iterative solution of the eigenvalue problem:
     a serial algorithm will be used


     Parallelization info
     --------------------
     sticks:   dense  smooth     PW     G-vecs:    dense   smooth      PW
     Min         201      99     34                 3710     1302     266
     Max         202     100     35                 3711     1303     267
     Sum         805     397    139                14841     5209    1067



     bravais-lattice index     =            2
     lattice parameter (alat)  =       8.4913  a.u.
     unit-cell volume          =     153.0595 (a.u.)^3
     number of atoms/cell      =            1
     number of atomic types    =            1
     number of electrons       =         9.00
     number of Kohn-Sham states=            9
     kinetic-energy cutoff     =      40.0000  Ry
     charge density cutoff     =     320.0000  Ry
     convergence threshold     =      1.0E-08
     mixing beta               =       0.7000
     number of iterations used =            8  plain     mixing
     Exchange-correlation      = SLA  PW   PBE  PBE ( 1  4  3  4 0 0)
     nstep                     =           50


     celldm(1)=   8.491286  celldm(2)=   0.000000  celldm(3)=   0.000000
     celldm(4)=   0.000000  celldm(5)=   0.000000  celldm(6)=   0.000000

     crystal axes: (cart. coord. in units of alat)
               a(1) = (  -0.500000   0.000000   0.500000 )  
               a(2) = (   0.000000   0.500000   0.500000 )  
               a(3) = (  -0.500000   0.500000   0.000000 )  

     reciprocal axes: (cart. coord. in units 2 pi/alat)
               b(1) = ( -1.000000 -1.000000  1.000000 )  
               b(2) = (  1.000000  1.000000  1.000000 )  
               b(3) = ( -1.000000  1.000000 -1.000000 )  


     PseudoPot. # 1 for Na read from file:
     /home/s1333534/quantum_espresso/qe-6.1/pseudo/Na_pbe_v1.uspp.F.UPF
     MD5 check sum: 76a99c7e9422403d3e93cbc85ab7bccb
     Pseudo is Ultrasoft, Zval =  9.0
     Generated by new atomic code, or converted to UPF format
     Using radial grid of  819 points,  5 beta functions with: 
                l(1) =   0
                l(2) =   0
                l(3) =   1
                l(4) =   1
                l(5) =   2
     Q(r) pseudized with  8 coefficients,  rinner =    1.250   1.250   1.250
                                                       1.250   1.250

     atomic species   valence    mass     pseudopotential
        Na             9.00    22.99000     Na( 1.00)

     48 Sym. Ops., with inversion, found



   Cartesian axes

     site n.     atom                  positions (alat units)
         1           Na  tau(   1) = (   0.0000000   0.0000000   0.0000000  )

     number of k points=   770  Marzari-Vanderbilt smearing, width (Ry)=  0.0200

     Number of k-points >= 100: set verbosity='high' to print them.

     Dense  grid:    14841 G-vectors     FFT dimensions: (  36,  36,  36)

     Smooth grid:     5209 G-vectors     FFT dimensions: (  25,  25,  25)

     Estimated max dynamical RAM per process >      19.78MB

     Estimated total allocated dynamical RAM >      79.12MB

     Initial potential from superposition of free atoms

     starting charge    8.99371, renormalised to    9.00000
     Starting wfc are    5 randomized atomic wfcs +    4 random wfc

     total cpu time spent up to now is        1.4 secs

     per-process dynamical memory:    28.1 Mb

     Self-consistent Calculation

     iteration #  1     ecut=    40.00 Ry     beta=0.70
     Davidson diagonalization with overlap
     ethr =  1.00E-02,  avg # of iterations =  5.2

     Threshold (ethr) on eigenvalues was too large:
     Diagonalizing with lowered threshold

     Davidson diagonalization with overlap
     ethr =  1.75E-05,  avg # of iterations =  2.9

     total cpu time spent up to now is        9.2 secs

     total energy              =     -95.08533538 Ry
     Harris-Foulkes estimate   =     -95.08589612 Ry
     estimated scf accuracy    <       0.00157729 Ry

     iteration #  2     ecut=    40.00 Ry     beta=0.70
     Davidson diagonalization with overlap
     ethr =  1.75E-05,  avg # of iterations =  2.0

     total cpu time spent up to now is       11.9 secs

     total energy              =     -95.08554289 Ry
     Harris-Foulkes estimate   =     -95.08558849 Ry
     estimated scf accuracy    <       0.00017760 Ry

     iteration #  3     ecut=    40.00 Ry     beta=0.70
     Davidson diagonalization with overlap
     ethr =  1.97E-06,  avg # of iterations =  2.1

     total cpu time spent up to now is       14.8 secs

     total energy              =     -95.08556569 Ry
     Harris-Foulkes estimate   =     -95.08556691 Ry
     estimated scf accuracy    <       0.00001027 Ry

     iteration #  4     ecut=    40.00 Ry     beta=0.70
     Davidson diagonalization with overlap
     ethr =  1.14E-07,  avg # of iterations =  1.0

     total cpu time spent up to now is       17.2 secs

     total energy              =     -95.08556663 Ry
     Harris-Foulkes estimate   =     -95.08556656 Ry
     estimated scf accuracy    <       0.00000001 Ry

     iteration #  5     ecut=    40.00 Ry     beta=0.70
     Davidson diagonalization with overlap
     ethr =  1.57E-10,  avg # of iterations =  3.0

     total cpu time spent up to now is       20.7 secs

     End of self-consistent calculation

     Number of k-points >= 100: set verbosity='high' to print the bands.

     the Fermi energy is     4.3037 ev

!    total energy              =     -95.08556668 Ry
     Harris-Foulkes estimate   =     -95.08556667 Ry
     estimated scf accuracy    <          2.1E-09 Ry

     The total energy is the sum of the following terms:

     one-electron contribution =     -76.63959259 Ry
     hartree contribution      =      39.63299191 Ry
     xc contribution           =     -14.34305754 Ry
     ewald contribution        =     -43.73587548 Ry
     smearing contrib. (-TS)   =      -0.00003297 Ry

     convergence has been achieved in   5 iterations

     Forces acting on atoms (cartesian axes, Ry/au):

     atom    1 type  1   force =     0.00000000    0.00000000    0.00000000

     Total force =     0.000000     Total SCF correction =     0.000000


     Computing stress (Cartesian axis) and pressure

          total   stress  (Ry/bohr**3)                   (kbar)     P=   90.10
   0.00061246   0.00000000   0.00000000         90.10      0.00      0.00
   0.00000000   0.00061246  -0.00000000          0.00     90.10     -0.00
   0.00000000  -0.00000000   0.00061246          0.00     -0.00     90.10


     BFGS Geometry Optimization

     bfgs converged in   1 scf cycles and   0 bfgs steps
     (criteria: energy <  1.0E-04 Ry, force <  1.0E-03Ry/Bohr, cell <  5.0E-01kbar)

     End of BFGS Geometry Optimization

     Final enthalpy =     -94.9919236718 Ry
Begin final coordinates
     new unit-cell volume =    153.05955 a.u.^3 (    22.68108 Ang^3 )
     density =      1.68316 g/cm^3

CELL_PARAMETERS (alat=  8.49128602)
  -0.500000000   0.000000000   0.500000000
   0.000000000   0.500000000   0.500000000
  -0.500000000   0.500000000   0.000000000

ATOMIC_POSITIONS (crystal)
Na       0.000000000   0.000000000   0.000000000
End final coordinates



     A final scf calculation at the relaxed structure.
     The G-vectors are recalculated for the final unit cell
     Results may differ from those at the preceding step.

     Parallelization info
     --------------------
     sticks:   dense  smooth     PW     G-vecs:    dense   smooth      PW
     Min         201      99     34                 3710     1302     266
     Max         202     100     35                 3711     1303     267
     Sum         805     397    139                14841     5209    1067



     bravais-lattice index     =            2
     lattice parameter (alat)  =       8.4913  a.u.
     unit-cell volume          =     153.0595 (a.u.)^3
     number of atoms/cell      =            1
     number of atomic types    =            1
     number of electrons       =         9.00
     number of Kohn-Sham states=            9
     kinetic-energy cutoff     =      40.0000  Ry
     charge density cutoff     =     320.0000  Ry
     convergence threshold     =      1.0E-08
     mixing beta               =       0.7000
     number of iterations used =            8  plain     mixing
     Exchange-correlation      = SLA  PW   PBE  PBE ( 1  4  3  4 0 0)

     celldm(1)=   8.491286  celldm(2)=   0.000000  celldm(3)=   0.000000
     celldm(4)=   0.000000  celldm(5)=   0.000000  celldm(6)=   0.000000

     crystal axes: (cart. coord. in units of alat)
               a(1) = (  -0.500000   0.000000   0.500000 )  
               a(2) = (   0.000000   0.500000   0.500000 )  
               a(3) = (  -0.500000   0.500000   0.000000 )  

     reciprocal axes: (cart. coord. in units 2 pi/alat)
               b(1) = ( -1.000000 -1.000000  1.000000 )  
               b(2) = (  1.000000  1.000000  1.000000 )  
               b(3) = ( -1.000000  1.000000 -1.000000 )  


     PseudoPot. # 1 for Na read from file:
     /home/s1333534/quantum_espresso/qe-6.1/pseudo/Na_pbe_v1.uspp.F.UPF
     MD5 check sum: 76a99c7e9422403d3e93cbc85ab7bccb
     Pseudo is Ultrasoft, Zval =  9.0
     Generated by new atomic code, or converted to UPF format
     Using radial grid of  819 points,  5 beta functions with: 
                l(1) =   0
                l(2) =   0
                l(3) =   1
                l(4) =   1
                l(5) =   2
     Q(r) pseudized with  8 coefficients,  rinner =    1.250   1.250   1.250
                                                       1.250   1.250

     atomic species   valence    mass     pseudopotential
        Na             9.00    22.99000     Na( 1.00)

     48 Sym. Ops., with inversion, found



   Cartesian axes

     site n.     atom                  positions (alat units)
         1           Na  tau(   1) = (   0.0000000   0.0000000   0.0000000  )

     number of k points=   770  Marzari-Vanderbilt smearing, width (Ry)=  0.0200

     Number of k-points >= 100: set verbosity='high' to print them.

     Dense  grid:    14841 G-vectors     FFT dimensions: (  36,  36,  36)

     Smooth grid:     5209 G-vectors     FFT dimensions: (  25,  25,  25)

     Estimated max dynamical RAM per process >      19.78MB

     Estimated total allocated dynamical RAM >      79.12MB

     Initial potential from superposition of free atoms

     starting charge    8.99371, renormalised to    9.00000
     Starting wfc are    5 randomized atomic wfcs +    4 random wfc

     Writing output data file na.fcc.save

     total cpu time spent up to now is       23.8 secs

     per-process dynamical memory:    34.8 Mb

     Self-consistent Calculation

     iteration #  1     ecut=    40.00 Ry     beta=0.70
     Davidson diagonalization with overlap
     c_bands:  1 eigenvalues not converged
     ethr =  1.00E-06,  avg # of iterations = 10.2

     total cpu time spent up to now is       31.9 secs

     total energy              =     -95.08532796 Ry
     Harris-Foulkes estimate   =     -95.08589653 Ry
     estimated scf accuracy    <       0.00158486 Ry

     iteration #  2     ecut=    40.00 Ry     beta=0.70
     Davidson diagonalization with overlap
     ethr =  1.76E-05,  avg # of iterations =  2.0

     total cpu time spent up to now is       34.7 secs

     total energy              =     -95.08554276 Ry
     Harris-Foulkes estimate   =     -95.08559135 Ry
     estimated scf accuracy    <       0.00018306 Ry

     iteration #  3     ecut=    40.00 Ry     beta=0.70
     Davidson diagonalization with overlap
     ethr =  2.03E-06,  avg # of iterations =  2.0

     total cpu time spent up to now is       37.4 secs

     total energy              =     -95.08556570 Ry
     Harris-Foulkes estimate   =     -95.08556703 Ry
     estimated scf accuracy    <       0.00001066 Ry

     iteration #  4     ecut=    40.00 Ry     beta=0.70
     Davidson diagonalization with overlap
     ethr =  1.18E-07,  avg # of iterations =  1.0

     total cpu time spent up to now is       39.8 secs

     total energy              =     -95.08556664 Ry
     Harris-Foulkes estimate   =     -95.08556657 Ry
     estimated scf accuracy    <       0.00000001 Ry

     iteration #  5     ecut=    40.00 Ry     beta=0.70
     Davidson diagonalization with overlap
     ethr =  1.51E-10,  avg # of iterations =  3.0

     total cpu time spent up to now is       43.2 secs

     End of self-consistent calculation

     Number of k-points >= 100: set verbosity='high' to print the bands.

     the Fermi energy is     4.3037 ev

!    total energy              =     -95.08556668 Ry
     Harris-Foulkes estimate   =     -95.08556667 Ry
     estimated scf accuracy    <          1.7E-09 Ry

     The total energy is the sum of the following terms:

     one-electron contribution =     -76.63960856 Ry
     hartree contribution      =      39.63301163 Ry
     xc contribution           =     -14.34306130 Ry
     ewald contribution        =     -43.73587548 Ry
     smearing contrib. (-TS)   =      -0.00003297 Ry

     convergence has been achieved in   5 iterations

     Forces acting on atoms (cartesian axes, Ry/au):

     atom    1 type  1   force =     0.00000000    0.00000000    0.00000000

     Total force =     0.000000     Total SCF correction =     0.000000


     Computing stress (Cartesian axis) and pressure

          total   stress  (Ry/bohr**3)                   (kbar)     P=   90.14
   0.00061273   0.00000000   0.00000000         90.14      0.00      0.00
   0.00000000   0.00061273  -0.00000000          0.00     90.14     -0.00
   0.00000000  -0.00000000   0.00061273          0.00     -0.00     90.14


     Writing output data file na.fcc.save

     init_run     :      2.45s CPU      2.53s WALL (       2 calls)
     electrons    :     37.18s CPU     38.72s WALL (       2 calls)
     forces       :      0.34s CPU      0.34s WALL (       2 calls)
     stress       :      1.91s CPU      1.93s WALL (       2 calls)

     Called by init_run:
     wfcinit      :      1.81s CPU      1.89s WALL (       2 calls)
     potinit      :      0.06s CPU      0.06s WALL (       2 calls)

     Called by electrons:
     c_bands      :     31.95s CPU     33.29s WALL (      11 calls)
     sum_band     :      5.05s CPU      5.25s WALL (      11 calls)
     v_of_rho     :      0.09s CPU      0.10s WALL (      12 calls)
     newd         :      0.10s CPU      0.11s WALL (      12 calls)
     mix_rho      :      0.00s CPU      0.00s WALL (      11 calls)

     Called by c_bands:
     init_us_2    :      1.55s CPU      1.49s WALL (   21560 calls)
     cegterg      :     30.59s CPU     31.93s WALL (    8470 calls)

     Called by sum_band:
     sum_band:bec :      0.02s CPU      0.03s WALL (    8470 calls)
     addusdens    :      0.12s CPU      0.13s WALL (      11 calls)

     Called by *egterg:
     h_psi        :     23.78s CPU     24.81s WALL (   36497 calls)
     s_psi        :      0.42s CPU      0.35s WALL (   36497 calls)
     g_psi        :      0.21s CPU      0.20s WALL (   26487 calls)
     cdiaghg      :      5.18s CPU      5.35s WALL (   34187 calls)

     Called by h_psi:
     h_psi:pot    :     23.68s CPU     24.66s WALL (   36497 calls)
     h_psi:calbec :      0.71s CPU      0.57s WALL (   36497 calls)
     vloc_psi     :     22.63s CPU     23.61s WALL (   36497 calls)
     add_vuspsi   :      0.29s CPU      0.39s WALL (   36497 calls)

     General routines
     calbec       :      0.93s CPU      0.83s WALL (   52667 calls)
     fft          :      0.05s CPU      0.05s WALL (     204 calls)
     ffts         :      0.00s CPU      0.00s WALL (      23 calls)
     fftw         :     23.93s CPU     23.63s WALL (  536580 calls)
     interpolate  :      0.01s CPU      0.01s WALL (      23 calls)
     davcio       :      0.00s CPU      0.01s WALL (    1540 calls)

     Parallel routines
     fft_scatter  :      4.33s CPU      5.00s WALL (  536807 calls)

     PWSCF        :    43.28s CPU        45.00s WALL


   This run was terminated on:  15:47:14  20Dec2017            

=------------------------------------------------------------------------------=
   JOB DONE.
=------------------------------------------------------------------------------=
