
     Program PWSCF v.6.1 (svn rev. 13369) starts on 20Dec2017 at 15:44:53 

     This program is part of the open-source Quantum ESPRESSO suite
     for quantum simulation of materials; please cite
         "P. Giannozzi et al., J. Phys.:Condens. Matter 21 395502 (2009);
          URL http://www.quantum-espresso.org", 
     in publications or presentations arising from this work. More details at
     http://www.quantum-espresso.org/quote

     Parallel version (MPI), running on     4 processors
     R & G space division:  proc/nbgrp/npool/nimage =       4
     Waiting for input...
     Reading input from standard input

     Current dimensions of program PWSCF are:
     Max number of different atomic species (ntypx) = 10
     Max number of k-points (npk) =  40000
     Max angular momentum in pseudopotentials (lmaxx) =  3

     Subspace diagonalization in iterative solution of the eigenvalue problem:
     a serial algorithm will be used


     Parallelization info
     --------------------
     sticks:   dense  smooth     PW     G-vecs:    dense   smooth      PW
     Min         205     105     37                 3896     1394     284
     Max         206     106     38                 3899     1395     285
     Sum         823     421    151                15593     5577    1139



     bravais-lattice index     =            2
     lattice parameter (alat)  =       8.6604  a.u.
     unit-cell volume          =     162.3881 (a.u.)^3
     number of atoms/cell      =            1
     number of atomic types    =            1
     number of electrons       =         9.00
     number of Kohn-Sham states=            9
     kinetic-energy cutoff     =      40.0000  Ry
     charge density cutoff     =     320.0000  Ry
     convergence threshold     =      1.0E-08
     mixing beta               =       0.7000
     number of iterations used =            8  plain     mixing
     Exchange-correlation      = SLA  PW   PBE  PBE ( 1  4  3  4 0 0)
     nstep                     =           50


     celldm(1)=   8.660402  celldm(2)=   0.000000  celldm(3)=   0.000000
     celldm(4)=   0.000000  celldm(5)=   0.000000  celldm(6)=   0.000000

     crystal axes: (cart. coord. in units of alat)
               a(1) = (  -0.500000   0.000000   0.500000 )  
               a(2) = (   0.000000   0.500000   0.500000 )  
               a(3) = (  -0.500000   0.500000   0.000000 )  

     reciprocal axes: (cart. coord. in units 2 pi/alat)
               b(1) = ( -1.000000 -1.000000  1.000000 )  
               b(2) = (  1.000000  1.000000  1.000000 )  
               b(3) = ( -1.000000  1.000000 -1.000000 )  


     PseudoPot. # 1 for Na read from file:
     /home/s1333534/quantum_espresso/qe-6.1/pseudo/Na_pbe_v1.uspp.F.UPF
     MD5 check sum: 76a99c7e9422403d3e93cbc85ab7bccb
     Pseudo is Ultrasoft, Zval =  9.0
     Generated by new atomic code, or converted to UPF format
     Using radial grid of  819 points,  5 beta functions with: 
                l(1) =   0
                l(2) =   0
                l(3) =   1
                l(4) =   1
                l(5) =   2
     Q(r) pseudized with  8 coefficients,  rinner =    1.250   1.250   1.250
                                                       1.250   1.250

     atomic species   valence    mass     pseudopotential
        Na             9.00    22.99000     Na( 1.00)

     48 Sym. Ops., with inversion, found



   Cartesian axes

     site n.     atom                  positions (alat units)
         1           Na  tau(   1) = (   0.0000000   0.0000000   0.0000000  )

     number of k points=   770  Marzari-Vanderbilt smearing, width (Ry)=  0.0200

     Number of k-points >= 100: set verbosity='high' to print them.

     Dense  grid:    15593 G-vectors     FFT dimensions: (  36,  36,  36)

     Smooth grid:     5577 G-vectors     FFT dimensions: (  25,  25,  25)

     Estimated max dynamical RAM per process >      20.93MB

     Estimated total allocated dynamical RAM >      83.71MB

     Initial potential from superposition of free atoms

     starting charge    8.99371, renormalised to    9.00000
     Starting wfc are    5 randomized atomic wfcs +    4 random wfc

     total cpu time spent up to now is        1.5 secs

     per-process dynamical memory:    28.8 Mb

     Self-consistent Calculation

     iteration #  1     ecut=    40.00 Ry     beta=0.70
     Davidson diagonalization with overlap
     ethr =  1.00E-02,  avg # of iterations =  5.3

     Threshold (ethr) on eigenvalues was too large:
     Diagonalizing with lowered threshold

     Davidson diagonalization with overlap
     ethr =  1.58E-05,  avg # of iterations =  3.1

     total cpu time spent up to now is        9.9 secs

     total energy              =     -95.09068469 Ry
     Harris-Foulkes estimate   =     -95.09120713 Ry
     estimated scf accuracy    <       0.00141941 Ry

     iteration #  2     ecut=    40.00 Ry     beta=0.70
     Davidson diagonalization with overlap
     ethr =  1.58E-05,  avg # of iterations =  2.0

     total cpu time spent up to now is       12.8 secs

     total energy              =     -95.09086775 Ry
     Harris-Foulkes estimate   =     -95.09091004 Ry
     estimated scf accuracy    <       0.00015950 Ry

     iteration #  3     ecut=    40.00 Ry     beta=0.70
     Davidson diagonalization with overlap
     ethr =  1.77E-06,  avg # of iterations =  2.2

     total cpu time spent up to now is       15.8 secs

     total energy              =     -95.09088783 Ry
     Harris-Foulkes estimate   =     -95.09088917 Ry
     estimated scf accuracy    <       0.00000924 Ry

     iteration #  4     ecut=    40.00 Ry     beta=0.70
     Davidson diagonalization with overlap
     ethr =  1.03E-07,  avg # of iterations =  1.0

     total cpu time spent up to now is       18.4 secs

     total energy              =     -95.09088867 Ry
     Harris-Foulkes estimate   =     -95.09088861 Ry
     estimated scf accuracy    <       0.00000001 Ry

     iteration #  5     ecut=    40.00 Ry     beta=0.70
     Davidson diagonalization with overlap
     ethr =  1.41E-10,  avg # of iterations =  3.0

     total cpu time spent up to now is       22.1 secs

     End of self-consistent calculation

     Number of k-points >= 100: set verbosity='high' to print the bands.

     the Fermi energy is     3.8964 ev

!    total energy              =     -95.09088871 Ry
     Harris-Foulkes estimate   =     -95.09088871 Ry
     estimated scf accuracy    <          1.9E-09 Ry

     The total energy is the sum of the following terms:

     one-electron contribution =     -78.11589691 Ry
     hartree contribution      =      40.23955171 Ry
     xc contribution           =     -14.33268717 Ry
     ewald contribution        =     -42.88182238 Ry
     smearing contrib. (-TS)   =      -0.00003396 Ry

     convergence has been achieved in   5 iterations

     Forces acting on atoms (cartesian axes, Ry/au):

     atom    1 type  1   force =     0.00000000    0.00000000    0.00000000

     Total force =     0.000000     Total SCF correction =     0.000000


     Computing stress (Cartesian axis) and pressure

          total   stress  (Ry/bohr**3)                   (kbar)     P=   70.20
   0.00047719  -0.00000000  -0.00000000         70.20     -0.00     -0.00
  -0.00000000   0.00047719   0.00000000         -0.00     70.20      0.00
  -0.00000000   0.00000000   0.00047719         -0.00      0.00     70.20


     BFGS Geometry Optimization

     bfgs converged in   1 scf cycles and   0 bfgs steps
     (criteria: energy <  1.0E-04 Ry, force <  1.0E-03Ry/Bohr, cell <  5.0E-01kbar)

     End of BFGS Geometry Optimization

     Final enthalpy =     -95.0136162715 Ry
Begin final coordinates
     new unit-cell volume =    162.38810 a.u.^3 (    24.06343 Ang^3 )
     density =      1.58646 g/cm^3

CELL_PARAMETERS (alat=  8.66040218)
  -0.500000000   0.000000000   0.500000000
   0.000000000   0.500000000   0.500000000
  -0.500000000   0.500000000   0.000000000

ATOMIC_POSITIONS (crystal)
Na       0.000000000   0.000000000   0.000000000
End final coordinates



     A final scf calculation at the relaxed structure.
     The G-vectors are recalculated for the final unit cell
     Results may differ from those at the preceding step.

     Parallelization info
     --------------------
     sticks:   dense  smooth     PW     G-vecs:    dense   smooth      PW
     Min         205     105     37                 3896     1394     284
     Max         206     106     38                 3899     1395     285
     Sum         823     421    151                15593     5577    1139



     bravais-lattice index     =            2
     lattice parameter (alat)  =       8.6604  a.u.
     unit-cell volume          =     162.3881 (a.u.)^3
     number of atoms/cell      =            1
     number of atomic types    =            1
     number of electrons       =         9.00
     number of Kohn-Sham states=            9
     kinetic-energy cutoff     =      40.0000  Ry
     charge density cutoff     =     320.0000  Ry
     convergence threshold     =      1.0E-08
     mixing beta               =       0.7000
     number of iterations used =            8  plain     mixing
     Exchange-correlation      = SLA  PW   PBE  PBE ( 1  4  3  4 0 0)

     celldm(1)=   8.660402  celldm(2)=   0.000000  celldm(3)=   0.000000
     celldm(4)=   0.000000  celldm(5)=   0.000000  celldm(6)=   0.000000

     crystal axes: (cart. coord. in units of alat)
               a(1) = (  -0.500000   0.000000   0.500000 )  
               a(2) = (   0.000000   0.500000   0.500000 )  
               a(3) = (  -0.500000   0.500000   0.000000 )  

     reciprocal axes: (cart. coord. in units 2 pi/alat)
               b(1) = ( -1.000000 -1.000000  1.000000 )  
               b(2) = (  1.000000  1.000000  1.000000 )  
               b(3) = ( -1.000000  1.000000 -1.000000 )  


     PseudoPot. # 1 for Na read from file:
     /home/s1333534/quantum_espresso/qe-6.1/pseudo/Na_pbe_v1.uspp.F.UPF
     MD5 check sum: 76a99c7e9422403d3e93cbc85ab7bccb
     Pseudo is Ultrasoft, Zval =  9.0
     Generated by new atomic code, or converted to UPF format
     Using radial grid of  819 points,  5 beta functions with: 
                l(1) =   0
                l(2) =   0
                l(3) =   1
                l(4) =   1
                l(5) =   2
     Q(r) pseudized with  8 coefficients,  rinner =    1.250   1.250   1.250
                                                       1.250   1.250

     atomic species   valence    mass     pseudopotential
        Na             9.00    22.99000     Na( 1.00)

     48 Sym. Ops., with inversion, found



   Cartesian axes

     site n.     atom                  positions (alat units)
         1           Na  tau(   1) = (   0.0000000   0.0000000   0.0000000  )

     number of k points=   770  Marzari-Vanderbilt smearing, width (Ry)=  0.0200

     Number of k-points >= 100: set verbosity='high' to print them.

     Dense  grid:    15593 G-vectors     FFT dimensions: (  36,  36,  36)

     Smooth grid:     5577 G-vectors     FFT dimensions: (  25,  25,  25)

     Estimated max dynamical RAM per process >      20.93MB

     Estimated total allocated dynamical RAM >      83.71MB

     Initial potential from superposition of free atoms

     starting charge    8.99371, renormalised to    9.00000
     Starting wfc are    5 randomized atomic wfcs +    4 random wfc

     Writing output data file na.fcc.save

     total cpu time spent up to now is       25.3 secs

     per-process dynamical memory:    35.7 Mb

     Self-consistent Calculation

     iteration #  1     ecut=    40.00 Ry     beta=0.70
     Davidson diagonalization with overlap
     c_bands:  1 eigenvalues not converged
     ethr =  1.00E-06,  avg # of iterations = 10.4

     total cpu time spent up to now is       34.0 secs

     total energy              =     -95.09067809 Ry
     Harris-Foulkes estimate   =     -95.09120750 Ry
     estimated scf accuracy    <       0.00142630 Ry

     iteration #  2     ecut=    40.00 Ry     beta=0.70
     Davidson diagonalization with overlap
     ethr =  1.58E-05,  avg # of iterations =  2.0

     total cpu time spent up to now is       37.0 secs

     total energy              =     -95.09086771 Ry
     Harris-Foulkes estimate   =     -95.09091268 Ry
     estimated scf accuracy    <       0.00016438 Ry

     iteration #  3     ecut=    40.00 Ry     beta=0.70
     Davidson diagonalization with overlap
     ethr =  1.83E-06,  avg # of iterations =  2.0

     total cpu time spent up to now is       40.0 secs

     total energy              =     -95.09088784 Ry
     Harris-Foulkes estimate   =     -95.09088930 Ry
     estimated scf accuracy    <       0.00000962 Ry

     iteration #  4     ecut=    40.00 Ry     beta=0.70
     Davidson diagonalization with overlap
     ethr =  1.07E-07,  avg # of iterations =  1.0

     total cpu time spent up to now is       42.6 secs

     total energy              =     -95.09088868 Ry
     Harris-Foulkes estimate   =     -95.09088862 Ry
     estimated scf accuracy    <       0.00000001 Ry

     iteration #  5     ecut=    40.00 Ry     beta=0.70
     Davidson diagonalization with overlap
     ethr =  1.34E-10,  avg # of iterations =  3.0

     total cpu time spent up to now is       46.2 secs

     End of self-consistent calculation

     Number of k-points >= 100: set verbosity='high' to print the bands.

     the Fermi energy is     3.8964 ev

!    total energy              =     -95.09088871 Ry
     Harris-Foulkes estimate   =     -95.09088871 Ry
     estimated scf accuracy    <          1.6E-09 Ry

     The total energy is the sum of the following terms:

     one-electron contribution =     -78.11591556 Ry
     hartree contribution      =      40.23957473 Ry
     xc contribution           =     -14.33269154 Ry
     ewald contribution        =     -42.88182238 Ry
     smearing contrib. (-TS)   =      -0.00003396 Ry

     convergence has been achieved in   5 iterations

     Forces acting on atoms (cartesian axes, Ry/au):

     atom    1 type  1   force =     0.00000000    0.00000000    0.00000000

     Total force =     0.000000     Total SCF correction =     0.000000


     Computing stress (Cartesian axis) and pressure

          total   stress  (Ry/bohr**3)                   (kbar)     P=   70.24
   0.00047749  -0.00000000   0.00000000         70.24     -0.00      0.00
  -0.00000000   0.00047749   0.00000000         -0.00     70.24      0.00
   0.00000000  -0.00000000   0.00047749          0.00     -0.00     70.24


     Writing output data file na.fcc.save

     init_run     :      2.54s CPU      2.71s WALL (       2 calls)
     electrons    :     38.59s CPU     41.42s WALL (       2 calls)
     forces       :      0.36s CPU      0.36s WALL (       2 calls)
     stress       :      2.02s CPU      2.03s WALL (       2 calls)

     Called by init_run:
     wfcinit      :      1.88s CPU      2.04s WALL (       2 calls)
     potinit      :      0.07s CPU      0.08s WALL (       2 calls)

     Called by electrons:
     c_bands      :     33.21s CPU     35.66s WALL (      11 calls)
     sum_band     :      5.18s CPU      5.55s WALL (      11 calls)
     v_of_rho     :      0.10s CPU      0.10s WALL (      12 calls)
     newd         :      0.12s CPU      0.13s WALL (      12 calls)
     mix_rho      :      0.01s CPU      0.01s WALL (      11 calls)

     Called by c_bands:
     init_us_2    :      1.74s CPU      1.55s WALL (   21560 calls)
     cegterg      :     31.76s CPU     34.25s WALL (    8470 calls)

     Called by sum_band:
     sum_band:bec :      0.02s CPU      0.03s WALL (    8470 calls)
     addusdens    :      0.13s CPU      0.13s WALL (      11 calls)

     Called by *egterg:
     h_psi        :     24.99s CPU     26.96s WALL (   36872 calls)
     s_psi        :      0.44s CPU      0.37s WALL (   36872 calls)
     g_psi        :      0.14s CPU      0.21s WALL (   26862 calls)
     cdiaghg      :      5.36s CPU      5.48s WALL (   34562 calls)

     Called by h_psi:
     h_psi:pot    :     24.86s CPU     26.80s WALL (   36872 calls)
     h_psi:calbec :      0.64s CPU      0.63s WALL (   36872 calls)
     vloc_psi     :     23.89s CPU     25.67s WALL (   36872 calls)
     add_vuspsi   :      0.28s CPU      0.42s WALL (   36872 calls)

     General routines
     calbec       :      0.93s CPU      0.95s WALL (   53042 calls)
     fft          :      0.05s CPU      0.05s WALL (     204 calls)
     ffts         :      0.00s CPU      0.00s WALL (      23 calls)
     fftw         :     24.75s CPU     25.95s WALL (  538852 calls)
     interpolate  :      0.01s CPU      0.01s WALL (      23 calls)
     davcio       :      0.00s CPU      0.01s WALL (    1540 calls)

     Parallel routines
     fft_scatter  :      5.71s CPU      7.13s WALL (  539079 calls)

     PWSCF        :    44.91s CPU        48.00s WALL


   This run was terminated on:  15:45:41  20Dec2017            

=------------------------------------------------------------------------------=
   JOB DONE.
=------------------------------------------------------------------------------=
