
     Program PWSCF v.6.1 (svn rev. 13369) starts on 28Jan2018 at 22:53: 8 

     This program is part of the open-source Quantum ESPRESSO suite
     for quantum simulation of materials; please cite
         "P. Giannozzi et al., J. Phys.:Condens. Matter 21 395502 (2009);
          URL http://www.quantum-espresso.org", 
     in publications or presentations arising from this work. More details at
     http://www.quantum-espresso.org/quote

     Parallel version (MPI), running on    64 processors
     K-points division:     npool     =       4
     R & G space division:  proc/nbgrp/npool/nimage =      16
     Waiting for input...
     Reading input from standard input

     Current dimensions of program PWSCF are:
     Max number of different atomic species (ntypx) = 10
     Max number of k-points (npk) =  80000
     Max angular momentum in pseudopotentials (lmaxx) =  3

     Subspace diagonalization in iterative solution of the eigenvalue problem:
     a serial algorithm will be used


     Parallelization info
     --------------------
     sticks:   dense  smooth     PW     G-vecs:    dense   smooth      PW
     Min          43      22      7                  771      273      57
     Max          44      23      8                  772      274      61
     Sum         703     361    121                12339     4381     941



     bravais-lattice index     =            2
     lattice parameter (alat)  =       8.0000  a.u.
     unit-cell volume          =     128.0000 (a.u.)^3
     number of atoms/cell      =            1
     number of atomic types    =            1
     number of electrons       =         9.00
     number of Kohn-Sham states=            9
     kinetic-energy cutoff     =      40.0000  Ry
     charge density cutoff     =     320.0000  Ry
     convergence threshold     =      1.0E-10
     mixing beta               =       0.7000
     number of iterations used =            8  plain     mixing
     Exchange-correlation      = SLA  PW   PBE  PBE ( 1  4  3  4 0 0)
     nstep                     =           50


     celldm(1)=   8.000000  celldm(2)=   0.000000  celldm(3)=   0.000000
     celldm(4)=   0.000000  celldm(5)=   0.000000  celldm(6)=   0.000000

     crystal axes: (cart. coord. in units of alat)
               a(1) = (  -0.500000   0.000000   0.500000 )  
               a(2) = (   0.000000   0.500000   0.500000 )  
               a(3) = (  -0.500000   0.500000   0.000000 )  

     reciprocal axes: (cart. coord. in units 2 pi/alat)
               b(1) = ( -1.000000 -1.000000  1.000000 )  
               b(2) = (  1.000000  1.000000  1.000000 )  
               b(3) = ( -1.000000  1.000000 -1.000000 )  


     PseudoPot. # 1 for Na read from file:
     /home/s1333534/quantum_espresso/qe-6.1/pseudo/Na_pbe_v1.uspp.F.UPF
     MD5 check sum: 76a99c7e9422403d3e93cbc85ab7bccb
     Pseudo is Ultrasoft, Zval =  9.0
     Generated by new atomic code, or converted to UPF format
     Using radial grid of  819 points,  5 beta functions with: 
                l(1) =   0
                l(2) =   0
                l(3) =   1
                l(4) =   1
                l(5) =   2
     Q(r) pseudized with  8 coefficients,  rinner =    1.250   1.250   1.250
                                                       1.250   1.250

     atomic species   valence    mass     pseudopotential
        Na             9.00    22.99000     Na( 1.00)

     48 Sym. Ops., with inversion, found



   Cartesian axes

     site n.     atom                  positions (alat units)
         1           Na  tau(   1) = (   0.0000000   0.0000000   0.0000000  )

     number of k points=   770  Marzari-Vanderbilt smearing, width (Ry)=  0.0200

     Number of k-points >= 100: set verbosity='high' to print them.

     Dense  grid:    12339 G-vectors     FFT dimensions: (  36,  36,  36)

     Smooth grid:     4381 G-vectors     FFT dimensions: (  24,  24,  24)

     Estimated max dynamical RAM per process >       1.56MB

     Estimated total allocated dynamical RAM >     100.07MB

     Initial potential from superposition of free atoms

     starting charge    8.99371, renormalised to    9.00000
     Starting wfc are    5 randomized atomic wfcs +    4 random wfc

     total cpu time spent up to now is        0.9 secs

     per-process dynamical memory:     9.1 Mb

     Self-consistent Calculation

     iteration #  1     ecut=    40.00 Ry     beta=0.70
     Davidson diagonalization with overlap
     ethr =  1.00E-02,  avg # of iterations =  5.1

     Threshold (ethr) on eigenvalues was too large:
     Diagonalizing with lowered threshold

     Davidson diagonalization with overlap
     ethr =  2.47E-05,  avg # of iterations =  2.5

     total cpu time spent up to now is        5.8 secs

     total energy              =     -95.06263714 Ry
     Harris-Foulkes estimate   =     -95.06346382 Ry
     estimated scf accuracy    <       0.00221913 Ry

     iteration #  2     ecut=    40.00 Ry     beta=0.70
     Davidson diagonalization with overlap
     ethr =  2.47E-05,  avg # of iterations =  2.0

     total cpu time spent up to now is        7.3 secs

     total energy              =     -95.06293325 Ry
     Harris-Foulkes estimate   =     -95.06299962 Ry
     estimated scf accuracy    <       0.00025025 Ry

     iteration #  3     ecut=    40.00 Ry     beta=0.70
     Davidson diagonalization with overlap
     ethr =  2.78E-06,  avg # of iterations =  2.2

     total cpu time spent up to now is        9.2 secs

     total energy              =     -95.06296601 Ry
     Harris-Foulkes estimate   =     -95.06296754 Ry
     estimated scf accuracy    <       0.00001446 Ry

     iteration #  4     ecut=    40.00 Ry     beta=0.70
     Davidson diagonalization with overlap
     ethr =  1.61E-07,  avg # of iterations =  1.0

     total cpu time spent up to now is       10.5 secs

     total energy              =     -95.06296732 Ry
     Harris-Foulkes estimate   =     -95.06296725 Ry
     estimated scf accuracy    <       0.00000002 Ry

     iteration #  5     ecut=    40.00 Ry     beta=0.70
     Davidson diagonalization with overlap
     ethr =  2.20E-10,  avg # of iterations =  3.0

     total cpu time spent up to now is       12.5 secs

     total energy              =     -95.06296737 Ry
     Harris-Foulkes estimate   =     -95.06296737 Ry
     estimated scf accuracy    <          2.7E-09 Ry

     iteration #  6     ecut=    40.00 Ry     beta=0.70
     Davidson diagonalization with overlap
     ethr =  3.00E-11,  avg # of iterations =  1.6

     total cpu time spent up to now is       13.9 secs

     total energy              =     -95.06296737 Ry
     Harris-Foulkes estimate   =     -95.06296737 Ry
     estimated scf accuracy    <          1.1E-10 Ry

     iteration #  7     ecut=    40.00 Ry     beta=0.70
     Davidson diagonalization with overlap
     ethr =  1.24E-12,  avg # of iterations =  2.0

     total cpu time spent up to now is       15.6 secs

     End of self-consistent calculation

     Number of k-points >= 100: set verbosity='high' to print the bands.

     the Fermi energy is     5.7097 ev

!    total energy              =     -95.06296737 Ry
     Harris-Foulkes estimate   =     -95.06296737 Ry
     estimated scf accuracy    <          1.9E-12 Ry

     The total energy is the sum of the following terms:

     one-electron contribution =     -72.01875287 Ry
     hartree contribution      =      37.75488636 Ry
     xc contribution           =     -14.37734087 Ry
     ewald contribution        =     -46.42172850 Ry
     smearing contrib. (-TS)   =      -0.00003149 Ry

     convergence has been achieved in   7 iterations

     Forces acting on atoms (cartesian axes, Ry/au):

     atom    1 type  1   force =     0.00000000    0.00000000    0.00000000

     Total force =     0.000000     Total SCF correction =     0.000000


     Computing stress (Cartesian axis) and pressure

          total   stress  (Ry/bohr**3)                   (kbar)     P=  175.71
   0.00119447   0.00000000   0.00000000        175.71      0.00      0.00
   0.00000000   0.00119447   0.00000000          0.00    175.71      0.00
   0.00000000   0.00000000   0.00119447          0.00      0.00    175.71


     BFGS Geometry Optimization

     number of scf cycles    =   1
     number of bfgs steps    =   0

     enthalpy new            =     -95.0194610474 Ry

     new trust radius        =       0.0483421673 bohr
     new conv_thr            =            1.0E-10 Ry

     new unit-cell volume =    136.38046 a.u.^3 (    20.20950 Ang^3 )
     density =      1.88900 g/cm^3

CELL_PARAMETERS (alat=  8.00000000)
  -0.510682211  -0.000000000   0.510682211
   0.000000000   0.510682211   0.510682211
  -0.510682211   0.510682211  -0.000000000

ATOMIC_POSITIONS (crystal)
Na       0.000000000   0.000000000   0.000000000



     Writing output data file na.fcc.save
     NEW-OLD atomic charge density approx. for the potential
     extrapolated charge    9.55266, renormalised to    9.00000

     total cpu time spent up to now is       19.1 secs

     per-process dynamical memory:    14.0 Mb

     Self-consistent Calculation

     iteration #  1     ecut=    40.00 Ry     beta=0.70
     Davidson diagonalization with overlap
     ethr =  1.00E-06,  avg # of iterations =  4.1

     total cpu time spent up to now is       22.0 secs

     total energy              =     -94.83483642 Ry
     Harris-Foulkes estimate   =     -91.48279589 Ry
     estimated scf accuracy    <       0.13272998 Ry

     iteration #  2     ecut=    40.00 Ry     beta=0.70
     Davidson diagonalization with overlap
     ethr =  1.47E-03,  avg # of iterations =  3.0

     total cpu time spent up to now is       24.0 secs

     total energy              =     -95.08114766 Ry
     Harris-Foulkes estimate   =     -95.17841331 Ry
     estimated scf accuracy    <       0.22112035 Ry

     iteration #  3     ecut=    40.00 Ry     beta=0.70
     Davidson diagonalization with overlap
     ethr =  1.47E-03,  avg # of iterations =  1.1

     total cpu time spent up to now is       25.3 secs

     total energy              =     -95.07730523 Ry
     Harris-Foulkes estimate   =     -95.09397105 Ry
     estimated scf accuracy    <       0.04831326 Ry

     iteration #  4     ecut=    40.00 Ry     beta=0.70
     Davidson diagonalization with overlap
     ethr =  5.37E-04,  avg # of iterations =  1.0

     total cpu time spent up to now is       26.5 secs

     total energy              =     -95.07673555 Ry
     Harris-Foulkes estimate   =     -95.07939006 Ry
     estimated scf accuracy    <       0.01596917 Ry

     iteration #  5     ecut=    40.00 Ry     beta=0.70
     Davidson diagonalization with overlap
     ethr =  1.77E-04,  avg # of iterations =  1.0

     total cpu time spent up to now is       27.8 secs

     total energy              =     -95.07415644 Ry
     Harris-Foulkes estimate   =     -95.07693140 Ry
     estimated scf accuracy    <       0.01077771 Ry

     iteration #  6     ecut=    40.00 Ry     beta=0.70
     Davidson diagonalization with overlap
     ethr =  1.20E-04,  avg # of iterations =  1.0

     total cpu time spent up to now is       29.0 secs

     total energy              =     -95.07111115 Ry
     Harris-Foulkes estimate   =     -95.07435587 Ry
     estimated scf accuracy    <       0.00534260 Ry

     iteration #  7     ecut=    40.00 Ry     beta=0.70
     Davidson diagonalization with overlap
     ethr =  5.94E-05,  avg # of iterations =  2.0

     total cpu time spent up to now is       30.7 secs

     total energy              =     -95.07188047 Ry
     Harris-Foulkes estimate   =     -95.07193659 Ry
     estimated scf accuracy    <       0.00013346 Ry

     iteration #  8     ecut=    40.00 Ry     beta=0.70
     Davidson diagonalization with overlap
     ethr =  1.48E-06,  avg # of iterations =  2.0

     total cpu time spent up to now is       32.3 secs

     total energy              =     -95.07186651 Ry
     Harris-Foulkes estimate   =     -95.07189126 Ry
     estimated scf accuracy    <       0.00002988 Ry

     iteration #  9     ecut=    40.00 Ry     beta=0.70
     Davidson diagonalization with overlap
     ethr =  3.32E-07,  avg # of iterations =  2.0

     total cpu time spent up to now is       33.9 secs

     total energy              =     -95.07187040 Ry
     Harris-Foulkes estimate   =     -95.07189582 Ry
     estimated scf accuracy    <       0.00003867 Ry

     iteration # 10     ecut=    40.00 Ry     beta=0.70
     Davidson diagonalization with overlap
     ethr =  3.32E-07,  avg # of iterations =  2.0

     total cpu time spent up to now is       35.5 secs

     total energy              =     -95.07187859 Ry
     Harris-Foulkes estimate   =     -95.07187863 Ry
     estimated scf accuracy    <       0.00000206 Ry

     iteration # 11     ecut=    40.00 Ry     beta=0.70
     Davidson diagonalization with overlap
     ethr =  2.29E-08,  avg # of iterations =  1.8

     total cpu time spent up to now is       36.9 secs

     total energy              =     -95.07187803 Ry
     Harris-Foulkes estimate   =     -95.07187889 Ry
     estimated scf accuracy    <       0.00000198 Ry

     iteration # 12     ecut=    40.00 Ry     beta=0.70
     Davidson diagonalization with overlap
     ethr =  2.20E-08,  avg # of iterations =  1.0

     total cpu time spent up to now is       38.4 secs

     total energy              =     -95.07187817 Ry
     Harris-Foulkes estimate   =     -95.07187821 Ry
     estimated scf accuracy    <       0.00000012 Ry

     iteration # 13     ecut=    40.00 Ry     beta=0.70
     Davidson diagonalization with overlap
     ethr =  1.32E-09,  avg # of iterations =  1.7

     total cpu time spent up to now is       39.9 secs

     total energy              =     -95.07187818 Ry
     Harris-Foulkes estimate   =     -95.07187818 Ry
     estimated scf accuracy    <       0.00000002 Ry

     iteration # 14     ecut=    40.00 Ry     beta=0.70
     Davidson diagonalization with overlap
     ethr =  1.78E-10,  avg # of iterations =  2.0

     total cpu time spent up to now is       41.5 secs

     total energy              =     -95.07187818 Ry
     Harris-Foulkes estimate   =     -95.07187818 Ry
     estimated scf accuracy    <          8.7E-09 Ry

     iteration # 15     ecut=    40.00 Ry     beta=0.70
     Davidson diagonalization with overlap
     ethr =  9.72E-11,  avg # of iterations =  2.0

     total cpu time spent up to now is       43.0 secs

     End of self-consistent calculation

     Number of k-points >= 100: set verbosity='high' to print the bands.

     the Fermi energy is     5.1787 ev

!    total energy              =     -95.07187818 Ry
     Harris-Foulkes estimate   =     -95.07187818 Ry
     estimated scf accuracy    <          6.3E-11 Ry

     The total energy is the sum of the following terms:

     one-electron contribution =     -73.68505251 Ry
     hartree contribution      =      38.42848793 Ry
     xc contribution           =     -14.36458131 Ry
     ewald contribution        =     -45.45070057 Ry
     smearing contrib. (-TS)   =      -0.00003173 Ry

     convergence has been achieved in  15 iterations

     Forces acting on atoms (cartesian axes, Ry/au):

     atom    1 type  1   force =     0.00000000    0.00000000    0.00000000

     Total force =     0.000000     Total SCF correction =     0.000000


     Computing stress (Cartesian axis) and pressure

          total   stress  (Ry/bohr**3)                   (kbar)     P=  138.59
   0.00094211   0.00000000   0.00000000        138.59      0.00      0.00
   0.00000000   0.00094211   0.00000000          0.00    138.59      0.00
   0.00000000   0.00000000   0.00094211          0.00      0.00    138.59


     number of scf cycles    =   2
     number of bfgs steps    =   1

     enthalpy old            =     -95.0194610474 Ry
     enthalpy new            =     -95.0255233946 Ry

     CASE: enthalpy_new < enthalpy_old

     new trust radius        =       0.0537414234 bohr
     new conv_thr            =            1.0E-12 Ry

     new unit-cell volume =    146.01278 a.u.^3 (    21.63686 Ang^3 )
     density =      1.76439 g/cm^3

CELL_PARAMETERS (alat=  8.00000000)
  -0.522432643  -0.000000000   0.522432643
   0.000000000   0.522432643   0.522432643
  -0.522432643   0.522432643  -0.000000000

ATOMIC_POSITIONS (crystal)
Na       0.000000000   0.000000000   0.000000000



     Writing output data file na.fcc.save
     NEW-OLD atomic charge density approx. for the potential
     extrapolated charge    9.59331, renormalised to    9.00000

     total cpu time spent up to now is       46.4 secs

     per-process dynamical memory:    14.0 Mb

     Self-consistent Calculation

     iteration #  1     ecut=    40.00 Ry     beta=0.70
     Davidson diagonalization with overlap
     ethr =  1.00E-06,  avg # of iterations =  4.2

     total cpu time spent up to now is       49.2 secs

     total energy              =     -94.79766693 Ry
     Harris-Foulkes estimate   =     -91.12963061 Ry
     estimated scf accuracy    <       0.15800467 Ry

     iteration #  2     ecut=    40.00 Ry     beta=0.70
     Davidson diagonalization with overlap
     ethr =  1.76E-03,  avg # of iterations =  3.0

     total cpu time spent up to now is       51.3 secs

     total energy              =     -95.09135305 Ry
     Harris-Foulkes estimate   =     -95.20697643 Ry
     estimated scf accuracy    <       0.26265399 Ry

     iteration #  3     ecut=    40.00 Ry     beta=0.70
     Davidson diagonalization with overlap
     ethr =  1.76E-03,  avg # of iterations =  1.1

     total cpu time spent up to now is       52.6 secs

     total energy              =     -95.08619525 Ry
     Harris-Foulkes estimate   =     -95.10642604 Ry
     estimated scf accuracy    <       0.05789828 Ry

     iteration #  4     ecut=    40.00 Ry     beta=0.70
     Davidson diagonalization with overlap
     ethr =  6.43E-04,  avg # of iterations =  1.0

     total cpu time spent up to now is       53.9 secs

     total energy              =     -95.08530009 Ry
     Harris-Foulkes estimate   =     -95.08872651 Ry
     estimated scf accuracy    <       0.01886575 Ry

     iteration #  5     ecut=    40.00 Ry     beta=0.70
     Davidson diagonalization with overlap
     ethr =  2.10E-04,  avg # of iterations =  1.0

     total cpu time spent up to now is       55.1 secs

     total energy              =     -95.08223119 Ry
     Harris-Foulkes estimate   =     -95.08555950 Ry
     estimated scf accuracy    <       0.01210864 Ry

     iteration #  6     ecut=    40.00 Ry     beta=0.70
     Davidson diagonalization with overlap
     ethr =  1.35E-04,  avg # of iterations =  1.0

     total cpu time spent up to now is       56.4 secs

     total energy              =     -95.07887359 Ry
     Harris-Foulkes estimate   =     -95.08247952 Ry
     estimated scf accuracy    <       0.00568391 Ry

     iteration #  7     ecut=    40.00 Ry     beta=0.70
     Davidson diagonalization with overlap
     ethr =  6.32E-05,  avg # of iterations =  2.0

     total cpu time spent up to now is       58.1 secs

     total energy              =     -95.07986184 Ry
     Harris-Foulkes estimate   =     -95.07986785 Ry
     estimated scf accuracy    <       0.00006388 Ry

     iteration #  8     ecut=    40.00 Ry     beta=0.70
     Davidson diagonalization with overlap
     ethr =  7.10E-07,  avg # of iterations =  2.0

     total cpu time spent up to now is       59.7 secs

     total energy              =     -95.07981964 Ry
     Harris-Foulkes estimate   =     -95.07986389 Ry
     estimated scf accuracy    <       0.00005271 Ry

     iteration #  9     ecut=    40.00 Ry     beta=0.70
     Davidson diagonalization with overlap
     ethr =  5.86E-07,  avg # of iterations =  2.0

     total cpu time spent up to now is       61.4 secs

     total energy              =     -95.07985740 Ry
     Harris-Foulkes estimate   =     -95.07985797 Ry
     estimated scf accuracy    <       0.00003849 Ry

     iteration # 10     ecut=    40.00 Ry     beta=0.70
     Davidson diagonalization with overlap
     ethr =  4.28E-07,  avg # of iterations =  1.0

     total cpu time spent up to now is       62.7 secs

     total energy              =     -95.07982757 Ry
     Harris-Foulkes estimate   =     -95.07985741 Ry
     estimated scf accuracy    <       0.00003730 Ry

     iteration # 11     ecut=    40.00 Ry     beta=0.70
     Davidson diagonalization with overlap
     ethr =  4.14E-07,  avg # of iterations =  2.0

     total cpu time spent up to now is       64.5 secs

     total energy              =     -95.07983913 Ry
     Harris-Foulkes estimate   =     -95.07984407 Ry
     estimated scf accuracy    <       0.00000905 Ry

     iteration # 12     ecut=    40.00 Ry     beta=0.70
     Davidson diagonalization with overlap
     ethr =  1.01E-07,  avg # of iterations =  2.0

     total cpu time spent up to now is       66.1 secs

     total energy              =     -95.07984035 Ry
     Harris-Foulkes estimate   =     -95.07984042 Ry
     estimated scf accuracy    <       0.00000013 Ry

     iteration # 13     ecut=    40.00 Ry     beta=0.70
     Davidson diagonalization with overlap
     ethr =  1.45E-09,  avg # of iterations =  2.0

     total cpu time spent up to now is       67.7 secs

     total energy              =     -95.07984038 Ry
     Harris-Foulkes estimate   =     -95.07984038 Ry
     estimated scf accuracy    <       0.00000001 Ry

     iteration # 14     ecut=    40.00 Ry     beta=0.70
     Davidson diagonalization with overlap
     ethr =  1.63E-10,  avg # of iterations =  1.0

     total cpu time spent up to now is       69.3 secs

     total energy              =     -95.07984038 Ry
     Harris-Foulkes estimate   =     -95.07984038 Ry
     estimated scf accuracy    <          2.2E-09 Ry

     iteration # 15     ecut=    40.00 Ry     beta=0.70
     Davidson diagonalization with overlap
     ethr =  2.49E-11,  avg # of iterations =  2.0

     total cpu time spent up to now is       70.9 secs

     total energy              =     -95.07984038 Ry
     Harris-Foulkes estimate   =     -95.07984038 Ry
     estimated scf accuracy    <          1.0E-10 Ry

     iteration # 16     ecut=    40.00 Ry     beta=0.70
     Davidson diagonalization with overlap
     ethr =  1.16E-12,  avg # of iterations =  1.1

     total cpu time spent up to now is       72.2 secs

     total energy              =     -95.07984038 Ry
     Harris-Foulkes estimate   =     -95.07984038 Ry
     estimated scf accuracy    <          4.0E-11 Ry

     iteration # 17     ecut=    40.00 Ry     beta=0.70
     Davidson diagonalization with overlap
     ethr =  4.50E-13,  avg # of iterations =  1.0

     total cpu time spent up to now is       73.5 secs

     total energy              =     -95.07984038 Ry
     Harris-Foulkes estimate   =     -95.07984038 Ry
     estimated scf accuracy    <          8.9E-12 Ry

     iteration # 18     ecut=    40.00 Ry     beta=0.70
     Davidson diagonalization with overlap
     ethr =  1.00E-13,  avg # of iterations =  2.0

     total cpu time spent up to now is       75.0 secs

     total energy              =     -95.07984038 Ry
     Harris-Foulkes estimate   =     -95.07984038 Ry
     estimated scf accuracy    <          8.0E-12 Ry

     iteration # 19     ecut=    40.00 Ry     beta=0.70
     Davidson diagonalization with overlap
     ethr =  1.00E-13,  avg # of iterations =  1.6

     total cpu time spent up to now is       76.5 secs

     End of self-consistent calculation

     Number of k-points >= 100: set verbosity='high' to print the bands.

     the Fermi energy is     4.6473 ev

!    total energy              =     -95.07984038 Ry
     Harris-Foulkes estimate   =     -95.07984038 Ry
     estimated scf accuracy    <          3.4E-13 Ry

     The total energy is the sum of the following terms:

     one-electron contribution =     -75.44416515 Ry
     hartree contribution      =      39.14437583 Ry
     xc contribution           =     -14.35158459 Ry
     ewald contribution        =     -44.42843412 Ry
     smearing contrib. (-TS)   =      -0.00003234 Ry

     convergence has been achieved in  19 iterations

     Forces acting on atoms (cartesian axes, Ry/au):

     atom    1 type  1   force =     0.00000000    0.00000000    0.00000000

     Total force =     0.000000     Total SCF correction =     0.000000


     Computing stress (Cartesian axis) and pressure

          total   stress  (Ry/bohr**3)                   (kbar)     P=  106.12
   0.00072139  -0.00000000  -0.00000000        106.12     -0.00     -0.00
  -0.00000000   0.00072139   0.00000000         -0.00    106.12      0.00
  -0.00000000   0.00000000   0.00072139         -0.00      0.00    106.12


     number of scf cycles    =   3
     number of bfgs steps    =   2

     enthalpy old            =     -95.0255233946 Ry
     enthalpy new            =     -95.0302116341 Ry

     CASE: enthalpy_new < enthalpy_old

     new trust radius        =       0.0815342746 bohr
     new conv_thr            =            1.0E-12 Ry

     new unit-cell volume =    161.29536 a.u.^3 (    23.90151 Ang^3 )
     density =      1.59721 g/cm^3

CELL_PARAMETERS (alat=  8.00000000)
  -0.540058291  -0.000000000   0.540058291
   0.000000000   0.540058291   0.540058291
  -0.540058291   0.540058291  -0.000000000

ATOMIC_POSITIONS (crystal)
Na       0.000000000   0.000000000   0.000000000



     Writing output data file na.fcc.save
     NEW-OLD atomic charge density approx. for the potential
     extrapolated charge    9.85215, renormalised to    9.00000

     total cpu time spent up to now is       80.0 secs

     per-process dynamical memory:    14.0 Mb

     Self-consistent Calculation

     iteration #  1     ecut=    40.00 Ry     beta=0.70
     Davidson diagonalization with overlap
     ethr =  1.00E-06,  avg # of iterations =  4.8

     total cpu time spent up to now is       83.0 secs

     total energy              =     -94.40764135 Ry
     Harris-Foulkes estimate   =     -89.21990751 Ry
     estimated scf accuracy    <       0.38430292 Ry

     iteration #  2     ecut=    40.00 Ry     beta=0.70
     Davidson diagonalization with overlap
     ethr =  4.27E-03,  avg # of iterations =  3.0

     total cpu time spent up to now is       85.1 secs

     total energy              =     -95.12360073 Ry
     Harris-Foulkes estimate   =     -95.40071058 Ry
     estimated scf accuracy    <       0.62525639 Ry

     iteration #  3     ecut=    40.00 Ry     beta=0.70
     Davidson diagonalization with overlap
     ethr =  4.27E-03,  avg # of iterations =  1.0

     total cpu time spent up to now is       86.4 secs

     total energy              =     -95.10373313 Ry
     Harris-Foulkes estimate   =     -95.15718493 Ry
     estimated scf accuracy    <       0.14526585 Ry

     iteration #  4     ecut=    40.00 Ry     beta=0.70
     Davidson diagonalization with overlap
     ethr =  1.61E-03,  avg # of iterations =  1.0

     total cpu time spent up to now is       87.6 secs

     total energy              =     -95.10125887 Ry
     Harris-Foulkes estimate   =     -95.11035596 Ry
     estimated scf accuracy    <       0.04502289 Ry

     iteration #  5     ecut=    40.00 Ry     beta=0.70
     Davidson diagonalization with overlap
     ethr =  5.00E-04,  avg # of iterations =  1.0

     total cpu time spent up to now is       88.9 secs

     total energy              =     -95.09208533 Ry
     Harris-Foulkes estimate   =     -95.10195844 Ry
     estimated scf accuracy    <       0.02720093 Ry

     iteration #  6     ecut=    40.00 Ry     beta=0.70
     Davidson diagonalization with overlap
     ethr =  3.02E-04,  avg # of iterations =  1.0

     total cpu time spent up to now is       90.2 secs

     total energy              =     -95.08689851 Ry
     Harris-Foulkes estimate   =     -95.09308052 Ry
     estimated scf accuracy    <       0.00905454 Ry

     iteration #  7     ecut=    40.00 Ry     beta=0.70
     Davidson diagonalization with overlap
     ethr =  1.01E-04,  avg # of iterations =  2.0

     total cpu time spent up to now is       91.9 secs

     total energy              =     -95.08887604 Ry
     Harris-Foulkes estimate   =     -95.08886718 Ry
     estimated scf accuracy    <       0.00000833 Ry

     iteration #  8     ecut=    40.00 Ry     beta=0.70
     Davidson diagonalization with overlap
     ethr =  9.25E-08,  avg # of iterations =  2.9

     total cpu time spent up to now is       94.0 secs

     total energy              =     -95.08887799 Ry
     Harris-Foulkes estimate   =     -95.08888596 Ry
     estimated scf accuracy    <       0.00005380 Ry

     iteration #  9     ecut=    40.00 Ry     beta=0.70
     Davidson diagonalization with overlap
     ethr =  9.25E-08,  avg # of iterations =  1.0

     total cpu time spent up to now is       95.3 secs

     total energy              =     -95.08886808 Ry
     Harris-Foulkes estimate   =     -95.08887836 Ry
     estimated scf accuracy    <       0.00002698 Ry

     iteration # 10     ecut=    40.00 Ry     beta=0.70
     Davidson diagonalization with overlap
     ethr =  9.25E-08,  avg # of iterations =  2.0

     total cpu time spent up to now is       96.9 secs

     total energy              =     -95.08886557 Ry
     Harris-Foulkes estimate   =     -95.08886981 Ry
     estimated scf accuracy    <       0.00000542 Ry

     iteration # 11     ecut=    40.00 Ry     beta=0.70
     Davidson diagonalization with overlap
     ethr =  6.02E-08,  avg # of iterations =  2.0

     total cpu time spent up to now is       98.7 secs

     total energy              =     -95.08886732 Ry
     Harris-Foulkes estimate   =     -95.08886750 Ry
     estimated scf accuracy    <       0.00000066 Ry

     iteration # 12     ecut=    40.00 Ry     beta=0.70
     Davidson diagonalization with overlap
     ethr =  7.34E-09,  avg # of iterations =  1.0

     total cpu time spent up to now is      100.0 secs

     total energy              =     -95.08886718 Ry
     Harris-Foulkes estimate   =     -95.08886733 Ry
     estimated scf accuracy    <       0.00000029 Ry

     iteration # 13     ecut=    40.00 Ry     beta=0.70
     Davidson diagonalization with overlap
     ethr =  3.24E-09,  avg # of iterations =  2.0

     total cpu time spent up to now is      101.4 secs

     total energy              =     -95.08886722 Ry
     Harris-Foulkes estimate   =     -95.08886721 Ry
     estimated scf accuracy    <       0.00000002 Ry

     iteration # 14     ecut=    40.00 Ry     beta=0.70
     Davidson diagonalization with overlap
     ethr =  1.68E-10,  avg # of iterations =  1.1

     total cpu time spent up to now is      102.7 secs

     total energy              =     -95.08886720 Ry
     Harris-Foulkes estimate   =     -95.08886722 Ry
     estimated scf accuracy    <       0.00000003 Ry

     iteration # 15     ecut=    40.00 Ry     beta=0.70
     Davidson diagonalization with overlap
     ethr =  1.68E-10,  avg # of iterations =  2.0

     total cpu time spent up to now is      104.3 secs

     total energy              =     -95.08886721 Ry
     Harris-Foulkes estimate   =     -95.08886721 Ry
     estimated scf accuracy    <          7.6E-11 Ry

     iteration # 16     ecut=    40.00 Ry     beta=0.70
     Davidson diagonalization with overlap
     ethr =  8.43E-13,  avg # of iterations =  1.0

     total cpu time spent up to now is      105.7 secs

     total energy              =     -95.08886721 Ry
     Harris-Foulkes estimate   =     -95.08886721 Ry
     estimated scf accuracy    <          6.6E-11 Ry

     iteration # 17     ecut=    40.00 Ry     beta=0.70
     Davidson diagonalization with overlap
     ethr =  7.28E-13,  avg # of iterations =  1.0

     total cpu time spent up to now is      106.9 secs

     total energy              =     -95.08886721 Ry
     Harris-Foulkes estimate   =     -95.08886721 Ry
     estimated scf accuracy    <          6.8E-12 Ry

     iteration # 18     ecut=    40.00 Ry     beta=0.70
     Davidson diagonalization with overlap
     ethr =  1.00E-13,  avg # of iterations =  1.0

     total cpu time spent up to now is      108.2 secs

     total energy              =     -95.08886721 Ry
     Harris-Foulkes estimate   =     -95.08886721 Ry
     estimated scf accuracy    <          3.4E-12 Ry

     iteration # 19     ecut=    40.00 Ry     beta=0.70
     Davidson diagonalization with overlap
     ethr =  1.00E-13,  avg # of iterations =  1.0

     total cpu time spent up to now is      109.5 secs

     End of self-consistent calculation

     Number of k-points >= 100: set verbosity='high' to print the bands.

     the Fermi energy is     3.9405 ev

!    total energy              =     -95.08886721 Ry
     Harris-Foulkes estimate   =     -95.08886721 Ry
     estimated scf accuracy    <          2.2E-13 Ry

     The total energy is the sum of the following terms:

     one-electron contribution =     -77.94802810 Ry
     hartree contribution      =      40.17155453 Ry
     xc contribution           =     -14.33391719 Ry
     ewald contribution        =     -42.97844261 Ry
     smearing contrib. (-TS)   =      -0.00003383 Ry

     convergence has been achieved in  19 iterations

     Forces acting on atoms (cartesian axes, Ry/au):

     atom    1 type  1   force =     0.00000000    0.00000000    0.00000000

     Total force =     0.000000     Total SCF correction =     0.000000


     Computing stress (Cartesian axis) and pressure

          total   stress  (Ry/bohr**3)                   (kbar)     P=   70.36
   0.00047831  -0.00000000   0.00000000         70.36     -0.00      0.00
  -0.00000000   0.00047831   0.00000000         -0.00     70.36      0.00
   0.00000000   0.00000000   0.00047831          0.00      0.00     70.36


     number of scf cycles    =   4
     number of bfgs steps    =   3

     enthalpy old            =     -95.0302116341 Ry
     enthalpy new            =     -95.0340440226 Ry

     CASE: enthalpy_new < enthalpy_old

     new trust radius        =       0.0524919966 bohr
     new conv_thr            =            1.0E-12 Ry

     new unit-cell volume =    171.50333 a.u.^3 (    25.41417 Ang^3 )
     density =      1.50215 g/cm^3

CELL_PARAMETERS (alat=  8.00000000)
  -0.551219026  -0.000000000   0.551219026
   0.000000000   0.551219026   0.551219026
  -0.551219026   0.551219026  -0.000000000

ATOMIC_POSITIONS (crystal)
Na       0.000000000   0.000000000   0.000000000



     Writing output data file na.fcc.save
     NEW-OLD atomic charge density approx. for the potential
     extrapolated charge    9.53531, renormalised to    9.00000

     total cpu time spent up to now is      112.9 secs

     per-process dynamical memory:    14.0 Mb

     Self-consistent Calculation

     iteration #  1     ecut=    40.00 Ry     beta=0.70
     Davidson diagonalization with overlap
     ethr =  1.00E-06,  avg # of iterations =  4.2

     total cpu time spent up to now is      115.8 secs

     total energy              =     -94.86374609 Ry
     Harris-Foulkes estimate   =     -91.32763306 Ry
     estimated scf accuracy    <       0.12815287 Ry

     iteration #  2     ecut=    40.00 Ry     beta=0.70
     Davidson diagonalization with overlap
     ethr =  1.42E-03,  avg # of iterations =  3.0

     total cpu time spent up to now is      118.0 secs

     total energy              =     -95.10208097 Ry
     Harris-Foulkes estimate   =     -95.19598939 Ry
     estimated scf accuracy    <       0.21343887 Ry

     iteration #  3     ecut=    40.00 Ry     beta=0.70
     Davidson diagonalization with overlap
     ethr =  1.42E-03,  avg # of iterations =  1.2

     total cpu time spent up to now is      119.3 secs

     total energy              =     -95.09820933 Ry
     Harris-Foulkes estimate   =     -95.11449752 Ry
     estimated scf accuracy    <       0.04649470 Ry

     iteration #  4     ecut=    40.00 Ry     beta=0.70
     Davidson diagonalization with overlap
     ethr =  5.17E-04,  avg # of iterations =  1.0

     total cpu time spent up to now is      120.6 secs

     total energy              =     -95.09646982 Ry
     Harris-Foulkes estimate   =     -95.10023949 Ry
     estimated scf accuracy    <       0.01509131 Ry

     iteration #  5     ecut=    40.00 Ry     beta=0.70
     Davidson diagonalization with overlap
     ethr =  1.68E-04,  avg # of iterations =  1.0

     total cpu time spent up to now is      121.9 secs

     total energy              =     -95.09367331 Ry
     Harris-Foulkes estimate   =     -95.09679357 Ry
     estimated scf accuracy    <       0.00763760 Ry

     iteration #  6     ecut=    40.00 Ry     beta=0.70
     Davidson diagonalization with overlap
     ethr =  8.49E-05,  avg # of iterations =  1.0

     total cpu time spent up to now is      123.2 secs

     total energy              =     -95.09277517 Ry
     Harris-Foulkes estimate   =     -95.09404795 Ry
     estimated scf accuracy    <       0.00196115 Ry

     iteration #  7     ecut=    40.00 Ry     beta=0.70
     Davidson diagonalization with overlap
     ethr =  2.18E-05,  avg # of iterations =  2.1

     total cpu time spent up to now is      125.1 secs

     total energy              =     -95.09319641 Ry
     Harris-Foulkes estimate   =     -95.09315704 Ry
     estimated scf accuracy    <       0.00000860 Ry

     iteration #  8     ecut=    40.00 Ry     beta=0.70
     Davidson diagonalization with overlap
     ethr =  9.55E-08,  avg # of iterations =  2.6

     total cpu time spent up to now is      127.0 secs

     total energy              =     -95.09312307 Ry
     Harris-Foulkes estimate   =     -95.09321166 Ry
     estimated scf accuracy    <       0.00012585 Ry

     iteration #  9     ecut=    40.00 Ry     beta=0.70
     Davidson diagonalization with overlap
     ethr =  9.55E-08,  avg # of iterations =  2.9

     total cpu time spent up to now is      129.2 secs

     total energy              =     -95.09315385 Ry
     Harris-Foulkes estimate   =     -95.09315386 Ry
     estimated scf accuracy    <       0.00000071 Ry

     iteration # 10     ecut=    40.00 Ry     beta=0.70
     Davidson diagonalization with overlap
     ethr =  7.85E-09,  avg # of iterations =  1.0

     total cpu time spent up to now is      130.6 secs

     total energy              =     -95.09315334 Ry
     Harris-Foulkes estimate   =     -95.09315385 Ry
     estimated scf accuracy    <       0.00000068 Ry

     iteration # 11     ecut=    40.00 Ry     beta=0.70
     Davidson diagonalization with overlap
     ethr =  7.57E-09,  avg # of iterations =  2.0

     total cpu time spent up to now is      132.2 secs

     total energy              =     -95.09315357 Ry
     Harris-Foulkes estimate   =     -95.09315355 Ry
     estimated scf accuracy    <       0.00000003 Ry

     iteration # 12     ecut=    40.00 Ry     beta=0.70
     Davidson diagonalization with overlap
     ethr =  3.36E-10,  avg # of iterations =  1.0

     total cpu time spent up to now is      133.4 secs

     total energy              =     -95.09315353 Ry
     Harris-Foulkes estimate   =     -95.09315357 Ry
     estimated scf accuracy    <       0.00000008 Ry

     iteration # 13     ecut=    40.00 Ry     beta=0.70
     Davidson diagonalization with overlap
     ethr =  3.36E-10,  avg # of iterations =  2.0

     total cpu time spent up to now is      135.0 secs

     total energy              =     -95.09315354 Ry
     Harris-Foulkes estimate   =     -95.09315354 Ry
     estimated scf accuracy    <          3.3E-10 Ry

     iteration # 14     ecut=    40.00 Ry     beta=0.70
     Davidson diagonalization with overlap
     ethr =  3.67E-12,  avg # of iterations =  1.0

     total cpu time spent up to now is      136.3 secs

     total energy              =     -95.09315354 Ry
     Harris-Foulkes estimate   =     -95.09315354 Ry
     estimated scf accuracy    <          1.9E-10 Ry

     iteration # 15     ecut=    40.00 Ry     beta=0.70
     Davidson diagonalization with overlap
     ethr =  2.15E-12,  avg # of iterations =  2.0

     total cpu time spent up to now is      138.0 secs

     total energy              =     -95.09315354 Ry
     Harris-Foulkes estimate   =     -95.09315354 Ry
     estimated scf accuracy    <          7.1E-11 Ry

     iteration # 16     ecut=    40.00 Ry     beta=0.70
     Davidson diagonalization with overlap
     ethr =  7.88E-13,  avg # of iterations =  1.0

     total cpu time spent up to now is      139.2 secs

     total energy              =     -95.09315354 Ry
     Harris-Foulkes estimate   =     -95.09315354 Ry
     estimated scf accuracy    <          1.2E-11 Ry

     iteration # 17     ecut=    40.00 Ry     beta=0.70
     Davidson diagonalization with overlap
     ethr =  1.28E-13,  avg # of iterations =  1.0

     total cpu time spent up to now is      140.5 secs

     total energy              =     -95.09315354 Ry
     Harris-Foulkes estimate   =     -95.09315354 Ry
     estimated scf accuracy    <          8.6E-12 Ry

     iteration # 18     ecut=    40.00 Ry     beta=0.70
     Davidson diagonalization with overlap
     ethr =  1.00E-13,  avg # of iterations =  1.0

     total cpu time spent up to now is      141.8 secs

     total energy              =     -95.09315354 Ry
     Harris-Foulkes estimate   =     -95.09315354 Ry
     estimated scf accuracy    <          9.1E-12 Ry

     iteration # 19     ecut=    40.00 Ry     beta=0.70
     Davidson diagonalization with overlap
     ethr =  1.00E-13,  avg # of iterations =  1.0

     total cpu time spent up to now is      143.1 secs

     End of self-consistent calculation

     Number of k-points >= 100: set verbosity='high' to print the bands.

     the Fermi energy is     3.5419 ev

!    total energy              =     -95.09315354 Ry
     Harris-Foulkes estimate   =     -95.09315354 Ry
     estimated scf accuracy    <          9.9E-14 Ry

     The total energy is the sum of the following terms:

     one-electron contribution =     -79.45568685 Ry
     hartree contribution      =      40.79454826 Ry
     xc contribution           =     -14.32373767 Ry
     ewald contribution        =     -42.10824221 Ry
     smearing contrib. (-TS)   =      -0.00003507 Ry

     convergence has been achieved in  19 iterations

     Forces acting on atoms (cartesian axes, Ry/au):

     atom    1 type  1   force =     0.00000000    0.00000000    0.00000000

     Total force =     0.000000     Total SCF correction =     0.000000


     Computing stress (Cartesian axis) and pressure

          total   stress  (Ry/bohr**3)                   (kbar)     P=   53.97
   0.00036686   0.00000000   0.00000000         53.97      0.00      0.00
   0.00000000   0.00036686   0.00000000          0.00     53.97      0.00
  -0.00000000   0.00000000   0.00036686         -0.00      0.00     53.97


     number of scf cycles    =   5
     number of bfgs steps    =   4

     enthalpy old            =     -95.0340440226 Ry
     enthalpy new            =     -95.0348607315 Ry

     CASE: enthalpy_new < enthalpy_old

     new trust radius        =       0.0135036607 bohr
     new conv_thr            =            1.0E-12 Ry

     new unit-cell volume =    174.16967 a.u.^3 (    25.80928 Ang^3 )
     density =      1.47915 g/cm^3

CELL_PARAMETERS (alat=  8.00000000)
  -0.554060930   0.000000000   0.554060930
   0.000000000   0.554060930   0.554060930
  -0.554060930   0.554060930  -0.000000000

ATOMIC_POSITIONS (crystal)
Na       0.000000000   0.000000000   0.000000000



     Writing output data file na.fcc.save
     NEW-OLD atomic charge density approx. for the potential
     extrapolated charge    9.13768, renormalised to    9.00000

     total cpu time spent up to now is      146.5 secs

     per-process dynamical memory:    14.0 Mb

     Self-consistent Calculation

     iteration #  1     ecut=    40.00 Ry     beta=0.70
     Davidson diagonalization with overlap
     ethr =  1.00E-06,  avg # of iterations =  3.2

     total cpu time spent up to now is      149.0 secs

     total energy              =     -95.08134275 Ry
     Harris-Foulkes estimate   =     -94.12391043 Ry
     estimated scf accuracy    <       0.00712706 Ry

     iteration #  2     ecut=    40.00 Ry     beta=0.70
     Davidson diagonalization with overlap
     ethr =  7.92E-05,  avg # of iterations =  2.9

     total cpu time spent up to now is      151.3 secs

     total energy              =     -95.09440405 Ry
     Harris-Foulkes estimate   =     -95.09966190 Ry
     estimated scf accuracy    <       0.01198713 Ry

     iteration #  3     ecut=    40.00 Ry     beta=0.70
     Davidson diagonalization with overlap
     ethr =  7.92E-05,  avg # of iterations =  1.4

     total cpu time spent up to now is      152.7 secs

     total energy              =     -95.09439534 Ry
     Harris-Foulkes estimate   =     -95.09517160 Ry
     estimated scf accuracy    <       0.00239119 Ry

     iteration #  4     ecut=    40.00 Ry     beta=0.70
     Davidson diagonalization with overlap
     ethr =  2.66E-05,  avg # of iterations =  1.0

     total cpu time spent up to now is      154.0 secs

     total energy              =     -95.09424786 Ry
     Harris-Foulkes estimate   =     -95.09449000 Ry
     estimated scf accuracy    <       0.00084625 Ry

     iteration #  5     ecut=    40.00 Ry     beta=0.70
     Davidson diagonalization with overlap
     ethr =  9.40E-06,  avg # of iterations =  1.0

     total cpu time spent up to now is      155.2 secs

     total energy              =     -95.09415005 Ry
     Harris-Foulkes estimate   =     -95.09427087 Ry
     estimated scf accuracy    <       0.00036728 Ry

     iteration #  6     ecut=    40.00 Ry     beta=0.70
     Davidson diagonalization with overlap
     ethr =  4.08E-06,  avg # of iterations =  1.0

     total cpu time spent up to now is      156.6 secs

     total energy              =     -95.09407982 Ry
     Harris-Foulkes estimate   =     -95.09416164 Ry
     estimated scf accuracy    <       0.00013605 Ry

     iteration #  7     ecut=    40.00 Ry     beta=0.70
     Davidson diagonalization with overlap
     ethr =  1.51E-06,  avg # of iterations =  2.0

     total cpu time spent up to now is      158.4 secs

     total energy              =     -95.09409972 Ry
     Harris-Foulkes estimate   =     -95.09410058 Ry
     estimated scf accuracy    <       0.00000343 Ry

     iteration #  8     ecut=    40.00 Ry     beta=0.70
     Davidson diagonalization with overlap
     ethr =  3.81E-08,  avg # of iterations =  1.0

     total cpu time spent up to now is      159.6 secs

     total energy              =     -95.09409862 Ry
     Harris-Foulkes estimate   =     -95.09409982 Ry
     estimated scf accuracy    <       0.00000174 Ry

     iteration #  9     ecut=    40.00 Ry     beta=0.70
     Davidson diagonalization with overlap
     ethr =  1.93E-08,  avg # of iterations =  2.0

     total cpu time spent up to now is      161.2 secs

     total energy              =     -95.09409903 Ry
     Harris-Foulkes estimate   =     -95.09409903 Ry
     estimated scf accuracy    <          2.7E-09 Ry

     iteration # 10     ecut=    40.00 Ry     beta=0.70
     Davidson diagonalization with overlap
     ethr =  2.98E-11,  avg # of iterations =  2.7

     total cpu time spent up to now is      163.1 secs

     total energy              =     -95.09409903 Ry
     Harris-Foulkes estimate   =     -95.09409903 Ry
     estimated scf accuracy    <       0.00000001 Ry

     iteration # 11     ecut=    40.00 Ry     beta=0.70
     Davidson diagonalization with overlap
     ethr =  2.98E-11,  avg # of iterations =  2.0

     total cpu time spent up to now is      164.7 secs

     total energy              =     -95.09409903 Ry
     Harris-Foulkes estimate   =     -95.09409903 Ry
     estimated scf accuracy    <          1.3E-09 Ry

     iteration # 12     ecut=    40.00 Ry     beta=0.70
     Davidson diagonalization with overlap
     ethr =  1.49E-11,  avg # of iterations =  1.0

     total cpu time spent up to now is      166.0 secs

     total energy              =     -95.09409903 Ry
     Harris-Foulkes estimate   =     -95.09409903 Ry
     estimated scf accuracy    <          2.3E-10 Ry

     iteration # 13     ecut=    40.00 Ry     beta=0.70
     Davidson diagonalization with overlap
     ethr =  2.54E-12,  avg # of iterations =  2.0

     total cpu time spent up to now is      167.6 secs

     total energy              =     -95.09409903 Ry
     Harris-Foulkes estimate   =     -95.09409903 Ry
     estimated scf accuracy    <          9.7E-12 Ry

     iteration # 14     ecut=    40.00 Ry     beta=0.70
     Davidson diagonalization with overlap
     ethr =  1.08E-13,  avg # of iterations =  1.0

     total cpu time spent up to now is      168.8 secs

     total energy              =     -95.09409903 Ry
     Harris-Foulkes estimate   =     -95.09409903 Ry
     estimated scf accuracy    <          1.9E-12 Ry

     iteration # 15     ecut=    40.00 Ry     beta=0.70
     Davidson diagonalization with overlap
     ethr =  1.00E-13,  avg # of iterations =  1.0

     total cpu time spent up to now is      170.1 secs

     End of self-consistent calculation

     Number of k-points >= 100: set verbosity='high' to print the bands.

     the Fermi energy is     3.4458 ev

!    total energy              =     -95.09409903 Ry
     Harris-Foulkes estimate   =     -95.09409903 Ry
     estimated scf accuracy    <          4.1E-14 Ry

     The total energy is the sum of the following terms:

     one-electron contribution =     -79.83046178 Ry
     hartree contribution      =      40.94991422 Ry
     xc contribution           =     -14.32125657 Ry
     ewald contribution        =     -41.89225947 Ry
     smearing contrib. (-TS)   =      -0.00003541 Ry

     convergence has been achieved in  15 iterations

     Forces acting on atoms (cartesian axes, Ry/au):

     atom    1 type  1   force =     0.00000000    0.00000000    0.00000000

     Total force =     0.000000     Total SCF correction =     0.000000


     Computing stress (Cartesian axis) and pressure

          total   stress  (Ry/bohr**3)                   (kbar)     P=   50.40
   0.00034262   0.00000000   0.00000000         50.40      0.00      0.00
   0.00000000   0.00034262   0.00000000          0.00     50.40      0.00
  -0.00000000   0.00000000   0.00034262         -0.00      0.00     50.40


     number of scf cycles    =   6
     number of bfgs steps    =   5

     enthalpy old            =     -95.0348607315 Ry
     enthalpy new            =     -95.0348999480 Ry

     CASE: enthalpy_new < enthalpy_old

     new trust radius        =       0.0015388738 bohr
     new conv_thr            =            1.0E-12 Ry

     new unit-cell volume =    174.47449 a.u.^3 (    25.85445 Ang^3 )
     density =      1.47657 g/cm^3

CELL_PARAMETERS (alat=  8.00000000)
  -0.554383961   0.000000000   0.554383961
   0.000000000   0.554383961   0.554383961
  -0.554383961   0.554383961   0.000000000

ATOMIC_POSITIONS (crystal)
Na       0.000000000   0.000000000   0.000000000



     Writing output data file na.fcc.save
     NEW-OLD atomic charge density approx. for the potential
     extrapolated charge    9.01571, renormalised to    9.00000

     total cpu time spent up to now is      173.5 secs

     per-process dynamical memory:    14.0 Mb

     Self-consistent Calculation

     iteration #  1     ecut=    40.00 Ry     beta=0.70
     Davidson diagonalization with overlap
     ethr =  1.00E-06,  avg # of iterations =  2.0

     total cpu time spent up to now is      175.4 secs

     total energy              =     -95.09404461 Ry
     Harris-Foulkes estimate   =     -94.98361518 Ry
     estimated scf accuracy    <       0.00008874 Ry

     iteration #  2     ecut=    40.00 Ry     beta=0.70
     Davidson diagonalization with overlap
     ethr =  9.86E-07,  avg # of iterations =  2.8

     total cpu time spent up to now is      177.4 secs

     total energy              =     -95.09420612 Ry
     Harris-Foulkes estimate   =     -95.09427154 Ry
     estimated scf accuracy    <       0.00014911 Ry

     iteration #  3     ecut=    40.00 Ry     beta=0.70
     Davidson diagonalization with overlap
     ethr =  9.86E-07,  avg # of iterations =  1.5

     total cpu time spent up to now is      178.8 secs

     total energy              =     -95.09420731 Ry
     Harris-Foulkes estimate   =     -95.09421591 Ry
     estimated scf accuracy    <       0.00002901 Ry

     iteration #  4     ecut=    40.00 Ry     beta=0.70
     Davidson diagonalization with overlap
     ethr =  3.22E-07,  avg # of iterations =  1.0

     total cpu time spent up to now is      180.1 secs

     total energy              =     -95.09420513 Ry
     Harris-Foulkes estimate   =     -95.09420835 Ry
     estimated scf accuracy    <       0.00001142 Ry

     iteration #  5     ecut=    40.00 Ry     beta=0.70
     Davidson diagonalization with overlap
     ethr =  1.27E-07,  avg # of iterations =  1.0

     total cpu time spent up to now is      181.5 secs

     total energy              =     -95.09420357 Ry
     Harris-Foulkes estimate   =     -95.09420541 Ry
     estimated scf accuracy    <       0.00000508 Ry

     iteration #  6     ecut=    40.00 Ry     beta=0.70
     Davidson diagonalization with overlap
     ethr =  5.64E-08,  avg # of iterations =  1.0

     total cpu time spent up to now is      182.7 secs

     total energy              =     -95.09420276 Ry
     Harris-Foulkes estimate   =     -95.09420378 Ry
     estimated scf accuracy    <       0.00000158 Ry

     iteration #  7     ecut=    40.00 Ry     beta=0.70
     Davidson diagonalization with overlap
     ethr =  1.76E-08,  avg # of iterations =  2.0

     total cpu time spent up to now is      184.6 secs

     total energy              =     -95.09420306 Ry
     Harris-Foulkes estimate   =     -95.09420306 Ry
     estimated scf accuracy    <          5.8E-09 Ry

     iteration #  8     ecut=    40.00 Ry     beta=0.70
     Davidson diagonalization with overlap
     ethr =  6.42E-11,  avg # of iterations =  2.0

     total cpu time spent up to now is      186.2 secs

     total energy              =     -95.09420306 Ry
     Harris-Foulkes estimate   =     -95.09420306 Ry
     estimated scf accuracy    <          1.1E-10 Ry

     iteration #  9     ecut=    40.00 Ry     beta=0.70
     Davidson diagonalization with overlap
     ethr =  1.19E-12,  avg # of iterations =  3.0

     total cpu time spent up to now is      188.2 secs

     total energy              =     -95.09420306 Ry
     Harris-Foulkes estimate   =     -95.09420306 Ry
     estimated scf accuracy    <          1.7E-09 Ry

     iteration # 10     ecut=    40.00 Ry     beta=0.70
     Davidson diagonalization with overlap
     ethr =  1.19E-12,  avg # of iterations =  2.9

     total cpu time spent up to now is      190.3 secs

     total energy              =     -95.09420306 Ry
     Harris-Foulkes estimate   =     -95.09420306 Ry
     estimated scf accuracy    <          3.7E-11 Ry

     iteration # 11     ecut=    40.00 Ry     beta=0.70
     Davidson diagonalization with overlap
     ethr =  4.12E-13,  avg # of iterations =  2.0

     total cpu time spent up to now is      191.9 secs

     total energy              =     -95.09420306 Ry
     Harris-Foulkes estimate   =     -95.09420306 Ry
     estimated scf accuracy    <          1.0E-12 Ry

     iteration # 12     ecut=    40.00 Ry     beta=0.70
     Davidson diagonalization with overlap
     ethr =  1.00E-13,  avg # of iterations =  2.0

     total cpu time spent up to now is      193.4 secs

     total energy              =     -95.09420306 Ry
     Harris-Foulkes estimate   =     -95.09420306 Ry
     estimated scf accuracy    <          2.6E-12 Ry

     iteration # 13     ecut=    40.00 Ry     beta=0.70
     Davidson diagonalization with overlap
     ethr =  1.00E-13,  avg # of iterations =  1.0

     total cpu time spent up to now is      194.7 secs

     End of self-consistent calculation

     Number of k-points >= 100: set verbosity='high' to print the bands.

     the Fermi energy is     3.4351 ev

!    total energy              =     -95.09420306 Ry
     Harris-Foulkes estimate   =     -95.09420306 Ry
     estimated scf accuracy    <          3.9E-14 Ry

     The total energy is the sum of the following terms:

     one-electron contribution =     -79.87283312 Ry
     hartree contribution      =      40.96749239 Ry
     xc contribution           =     -14.32097738 Ry
     ewald contribution        =     -41.86784950 Ry
     smearing contrib. (-TS)   =      -0.00003545 Ry

     convergence has been achieved in  13 iterations

     Forces acting on atoms (cartesian axes, Ry/au):

     atom    1 type  1   force =     0.00000000    0.00000000    0.00000000

     Total force =     0.000000     Total SCF correction =     0.000000


     Computing stress (Cartesian axis) and pressure

          total   stress  (Ry/bohr**3)                   (kbar)     P=   50.01
   0.00033997   0.00000000  -0.00000000         50.01      0.00     -0.00
   0.00000000   0.00033997   0.00000000          0.00     50.01      0.00
  -0.00000000   0.00000000   0.00033997         -0.00      0.00     50.01


     bfgs converged in   7 scf cycles and   6 bfgs steps
     (criteria: energy <  1.0E-04 Ry, force <  1.0E-03Ry/Bohr, cell <  5.0E-02kbar)

     End of BFGS Geometry Optimization

     Final enthalpy =     -95.0349003738 Ry
Begin final coordinates
     new unit-cell volume =    174.47449 a.u.^3 (    25.85445 Ang^3 )
     density =      1.47657 g/cm^3

CELL_PARAMETERS (alat=  8.00000000)
  -0.554383961   0.000000000   0.554383961
   0.000000000   0.554383961   0.554383961
  -0.554383961   0.554383961   0.000000000

ATOMIC_POSITIONS (crystal)
Na       0.000000000   0.000000000   0.000000000
End final coordinates



     A final scf calculation at the relaxed structure.
     The G-vectors are recalculated for the final unit cell
     Results may differ from those at the preceding step.

     Parallelization info
     --------------------
     sticks:   dense  smooth     PW     G-vecs:    dense   smooth      PW
     Min          53      27      9                 1052      372      76
     Max          54      28     10                 1055      375      79
     Sum         859     433    151                16865     5961    1243



     bravais-lattice index     =            2
     lattice parameter (alat)  =       8.0000  a.u.
     unit-cell volume          =     174.4745 (a.u.)^3
     number of atoms/cell      =            1
     number of atomic types    =            1
     number of electrons       =         9.00
     number of Kohn-Sham states=            9
     kinetic-energy cutoff     =      40.0000  Ry
     charge density cutoff     =     320.0000  Ry
     convergence threshold     =      1.0E-12
     mixing beta               =       0.7000
     number of iterations used =            8  plain     mixing
     Exchange-correlation      = SLA  PW   PBE  PBE ( 1  4  3  4 0 0)

     celldm(1)=   8.000000  celldm(2)=   0.000000  celldm(3)=   0.000000
     celldm(4)=   0.000000  celldm(5)=   0.000000  celldm(6)=   0.000000

     crystal axes: (cart. coord. in units of alat)
               a(1) = (  -0.554384   0.000000   0.554384 )  
               a(2) = (   0.000000   0.554384   0.554384 )  
               a(3) = (  -0.554384   0.554384   0.000000 )  

     reciprocal axes: (cart. coord. in units 2 pi/alat)
               b(1) = ( -0.901902 -0.901902  0.901902 )  
               b(2) = (  0.901902  0.901902  0.901902 )  
               b(3) = ( -0.901902  0.901902 -0.901902 )  


     PseudoPot. # 1 for Na read from file:
     /home/s1333534/quantum_espresso/qe-6.1/pseudo/Na_pbe_v1.uspp.F.UPF
     MD5 check sum: 76a99c7e9422403d3e93cbc85ab7bccb
     Pseudo is Ultrasoft, Zval =  9.0
     Generated by new atomic code, or converted to UPF format
     Using radial grid of  819 points,  5 beta functions with: 
                l(1) =   0
                l(2) =   0
                l(3) =   1
                l(4) =   1
                l(5) =   2
     Q(r) pseudized with  8 coefficients,  rinner =    1.250   1.250   1.250
                                                       1.250   1.250

     atomic species   valence    mass     pseudopotential
        Na             9.00    22.99000     Na( 1.00)

     48 Sym. Ops., with inversion, found



   Cartesian axes

     site n.     atom                  positions (alat units)
         1           Na  tau(   1) = (   0.0000000   0.0000000   0.0000000  )

     number of k points=   770  Marzari-Vanderbilt smearing, width (Ry)=  0.0200

     Number of k-points >= 100: set verbosity='high' to print them.

     Dense  grid:    16865 G-vectors     FFT dimensions: (  36,  36,  36)

     Smooth grid:     5961 G-vectors     FFT dimensions: (  25,  25,  25)

     Estimated max dynamical RAM per process >       2.01MB

     Estimated total allocated dynamical RAM >     128.65MB

     Initial potential from superposition of free atoms

     starting charge    8.99371, renormalised to    9.00000
     Starting wfc are    5 randomized atomic wfcs +    4 random wfc

     Writing output data file na.fcc.save

     total cpu time spent up to now is      198.8 secs

     per-process dynamical memory:    14.4 Mb

     Self-consistent Calculation

     iteration #  1     ecut=    40.00 Ry     beta=0.70
     Davidson diagonalization with overlap
     ethr =  1.00E-06,  avg # of iterations = 10.5

     total cpu time spent up to now is      204.1 secs

     total energy              =     -95.09593994 Ry
     Harris-Foulkes estimate   =     -95.09638243 Ry
     estimated scf accuracy    <       0.00126646 Ry

     iteration #  2     ecut=    40.00 Ry     beta=0.70
     Davidson diagonalization with overlap
     ethr =  1.41E-05,  avg # of iterations =  2.0

     total cpu time spent up to now is      205.7 secs

     total energy              =     -95.09610720 Ry
     Harris-Foulkes estimate   =     -95.09614551 Ry
     estimated scf accuracy    <       0.00014553 Ry

     iteration #  3     ecut=    40.00 Ry     beta=0.70
     Davidson diagonalization with overlap
     ethr =  1.62E-06,  avg # of iterations =  2.0

     total cpu time spent up to now is      207.3 secs

     total energy              =     -95.09612454 Ry
     Harris-Foulkes estimate   =     -95.09612589 Ry
     estimated scf accuracy    <       0.00000861 Ry

     iteration #  4     ecut=    40.00 Ry     beta=0.70
     Davidson diagonalization with overlap
     ethr =  9.57E-08,  avg # of iterations =  1.0

     total cpu time spent up to now is      208.7 secs

     total energy              =     -95.09612531 Ry
     Harris-Foulkes estimate   =     -95.09612525 Ry
     estimated scf accuracy    <       0.00000001 Ry

     iteration #  5     ecut=    40.00 Ry     beta=0.70
     Davidson diagonalization with overlap
     ethr =  1.15E-10,  avg # of iterations =  3.0

     total cpu time spent up to now is      210.8 secs

     total energy              =     -95.09612535 Ry
     Harris-Foulkes estimate   =     -95.09612534 Ry
     estimated scf accuracy    <          1.4E-09 Ry

     iteration #  6     ecut=    40.00 Ry     beta=0.70
     Davidson diagonalization with overlap
     ethr =  1.56E-11,  avg # of iterations =  1.6

     total cpu time spent up to now is      212.3 secs

     total energy              =     -95.09612535 Ry
     Harris-Foulkes estimate   =     -95.09612535 Ry
     estimated scf accuracy    <          4.6E-11 Ry

     iteration #  7     ecut=    40.00 Ry     beta=0.70
     Davidson diagonalization with overlap
     ethr =  5.11E-13,  avg # of iterations =  2.0

     total cpu time spent up to now is      214.0 secs

     total energy              =     -95.09612535 Ry
     Harris-Foulkes estimate   =     -95.09612535 Ry
     estimated scf accuracy    <          2.0E-12 Ry

     iteration #  8     ecut=    40.00 Ry     beta=0.70
     Davidson diagonalization with overlap
     ethr =  1.00E-13,  avg # of iterations =  1.0

     total cpu time spent up to now is      215.3 secs

     End of self-consistent calculation

     Number of k-points >= 100: set verbosity='high' to print the bands.

     the Fermi energy is     3.4366 ev

!    total energy              =     -95.09612535 Ry
     Harris-Foulkes estimate   =     -95.09612535 Ry
     estimated scf accuracy    <          1.2E-13 Ry

     The total energy is the sum of the following terms:

     one-electron contribution =     -79.87295205 Ry
     hartree contribution      =      40.96539662 Ry
     xc contribution           =     -14.32068496 Ry
     ewald contribution        =     -41.86784950 Ry
     smearing contrib. (-TS)   =      -0.00003546 Ry

     convergence has been achieved in   8 iterations

     Forces acting on atoms (cartesian axes, Ry/au):

     atom    1 type  1   force =     0.00000000    0.00000000    0.00000000

     Total force =     0.000000     Total SCF correction =     0.000000


     Computing stress (Cartesian axis) and pressure

          total   stress  (Ry/bohr**3)                   (kbar)     P=   50.32
   0.00034204   0.00000000   0.00000000         50.32      0.00      0.00
   0.00000000   0.00034204   0.00000000          0.00     50.32      0.00
   0.00000000  -0.00000000   0.00034204          0.00     -0.00     50.32


     Writing output data file na.fcc.save

     init_run     :      1.26s CPU      1.39s WALL (       2 calls)
     electrons    :    171.28s CPU    189.62s WALL (       8 calls)
     update_pot   :      0.63s CPU      0.65s WALL (       6 calls)
     forces       :      0.84s CPU      0.89s WALL (       8 calls)
     stress       :      2.39s CPU      2.42s WALL (       8 calls)

     Called by init_run:
     wfcinit      :      0.76s CPU      0.84s WALL (       2 calls)
     potinit      :      0.07s CPU      0.07s WALL (       2 calls)

     Called by electrons:
     c_bands      :    146.40s CPU    162.76s WALL (     116 calls)
     sum_band     :     22.96s CPU     24.87s WALL (     116 calls)
     v_of_rho     :      0.94s CPU      0.95s WALL (     123 calls)
     newd         :      0.69s CPU      0.70s WALL (     123 calls)
     mix_rho      :      0.16s CPU      0.16s WALL (     116 calls)

     Called by c_bands:
     init_us_2    :      2.17s CPU      2.36s WALL (   48250 calls)
     cegterg      :    133.06s CPU    148.85s WALL (   22388 calls)

     Called by sum_band:
     sum_band:bec :      0.23s CPU      0.26s WALL (   22388 calls)
     addusdens    :      0.70s CPU      0.71s WALL (     116 calls)

     Called by *egterg:
     h_psi        :     90.44s CPU     99.07s WALL (   65287 calls)
     s_psi        :      1.04s CPU      1.15s WALL (   65287 calls)
     g_psi        :      0.25s CPU      0.31s WALL (   42513 calls)
     cdiaghg      :     22.65s CPU     25.72s WALL (   63550 calls)

     Called by h_psi:
     h_psi:pot    :     89.98s CPU     98.54s WALL (   65287 calls)
     h_psi:calbec :      4.90s CPU      5.34s WALL (   65287 calls)
     vloc_psi     :     83.36s CPU     91.31s WALL (   65287 calls)
     add_vuspsi   :      1.10s CPU      1.21s WALL (   65287 calls)

     General routines
     calbec       :      6.65s CPU      7.24s WALL (   95395 calls)
     fft          :      0.77s CPU      0.80s WALL (    2010 calls)
     ffts         :      0.03s CPU      0.04s WALL (     239 calls)
     fftw         :     89.00s CPU     97.29s WALL ( 1173994 calls)
     interpolate  :      0.11s CPU      0.12s WALL (     239 calls)
     davcio       :      0.00s CPU      0.04s WALL (     386 calls)

     Parallel routines
     fft_scatter  :     42.90s CPU     46.89s WALL ( 1176243 calls)

     PWSCF        :  3m19.18s CPU     3m38.72s WALL


   This run was terminated on:  22:56:47  28Jan2018            

=------------------------------------------------------------------------------=
   JOB DONE.
=------------------------------------------------------------------------------=
