
     Program PWSCF v.6.1 (svn rev. 13369) starts on 28Jan2018 at 22:56:48 

     This program is part of the open-source Quantum ESPRESSO suite
     for quantum simulation of materials; please cite
         "P. Giannozzi et al., J. Phys.:Condens. Matter 21 395502 (2009);
          URL http://www.quantum-espresso.org", 
     in publications or presentations arising from this work. More details at
     http://www.quantum-espresso.org/quote

     Parallel version (MPI), running on    64 processors
     K-points division:     npool     =       4
     R & G space division:  proc/nbgrp/npool/nimage =      16
     Waiting for input...
     Reading input from standard input

     Current dimensions of program PWSCF are:
     Max number of different atomic species (ntypx) = 10
     Max number of k-points (npk) =  80000
     Max angular momentum in pseudopotentials (lmaxx) =  3

     Subspace diagonalization in iterative solution of the eigenvalue problem:
     a serial algorithm will be used


     Parallelization info
     --------------------
     sticks:   dense  smooth     PW     G-vecs:    dense   smooth      PW
     Min          43      22      7                  771      273      57
     Max          44      23      8                  772      274      61
     Sum         703     361    121                12339     4381     941



     bravais-lattice index     =            2
     lattice parameter (alat)  =       8.0000  a.u.
     unit-cell volume          =     128.0000 (a.u.)^3
     number of atoms/cell      =            1
     number of atomic types    =            1
     number of electrons       =         9.00
     number of Kohn-Sham states=            9
     kinetic-energy cutoff     =      40.0000  Ry
     charge density cutoff     =     320.0000  Ry
     convergence threshold     =      1.0E-10
     mixing beta               =       0.7000
     number of iterations used =            8  plain     mixing
     Exchange-correlation      = SLA  PW   PBE  PBE ( 1  4  3  4 0 0)
     nstep                     =           50


     celldm(1)=   8.000000  celldm(2)=   0.000000  celldm(3)=   0.000000
     celldm(4)=   0.000000  celldm(5)=   0.000000  celldm(6)=   0.000000

     crystal axes: (cart. coord. in units of alat)
               a(1) = (  -0.500000   0.000000   0.500000 )  
               a(2) = (   0.000000   0.500000   0.500000 )  
               a(3) = (  -0.500000   0.500000   0.000000 )  

     reciprocal axes: (cart. coord. in units 2 pi/alat)
               b(1) = ( -1.000000 -1.000000  1.000000 )  
               b(2) = (  1.000000  1.000000  1.000000 )  
               b(3) = ( -1.000000  1.000000 -1.000000 )  


     PseudoPot. # 1 for Na read from file:
     /home/s1333534/quantum_espresso/qe-6.1/pseudo/Na_pbe_v1.uspp.F.UPF
     MD5 check sum: 76a99c7e9422403d3e93cbc85ab7bccb
     Pseudo is Ultrasoft, Zval =  9.0
     Generated by new atomic code, or converted to UPF format
     Using radial grid of  819 points,  5 beta functions with: 
                l(1) =   0
                l(2) =   0
                l(3) =   1
                l(4) =   1
                l(5) =   2
     Q(r) pseudized with  8 coefficients,  rinner =    1.250   1.250   1.250
                                                       1.250   1.250

     atomic species   valence    mass     pseudopotential
        Na             9.00    22.99000     Na( 1.00)

     48 Sym. Ops., with inversion, found



   Cartesian axes

     site n.     atom                  positions (alat units)
         1           Na  tau(   1) = (   0.0000000   0.0000000   0.0000000  )

     number of k points=   770  Marzari-Vanderbilt smearing, width (Ry)=  0.0200

     Number of k-points >= 100: set verbosity='high' to print them.

     Dense  grid:    12339 G-vectors     FFT dimensions: (  36,  36,  36)

     Smooth grid:     4381 G-vectors     FFT dimensions: (  24,  24,  24)

     Estimated max dynamical RAM per process >       1.56MB

     Estimated total allocated dynamical RAM >     100.07MB

     Initial potential from superposition of free atoms

     starting charge    8.99371, renormalised to    9.00000
     Starting wfc are    5 randomized atomic wfcs +    4 random wfc

     total cpu time spent up to now is        0.9 secs

     per-process dynamical memory:     9.1 Mb

     Self-consistent Calculation

     iteration #  1     ecut=    40.00 Ry     beta=0.70
     Davidson diagonalization with overlap
     ethr =  1.00E-02,  avg # of iterations =  5.1

     Threshold (ethr) on eigenvalues was too large:
     Diagonalizing with lowered threshold

     Davidson diagonalization with overlap
     ethr =  2.47E-05,  avg # of iterations =  2.5

     total cpu time spent up to now is        5.6 secs

     total energy              =     -95.06263714 Ry
     Harris-Foulkes estimate   =     -95.06346382 Ry
     estimated scf accuracy    <       0.00221913 Ry

     iteration #  2     ecut=    40.00 Ry     beta=0.70
     Davidson diagonalization with overlap
     ethr =  2.47E-05,  avg # of iterations =  2.0

     total cpu time spent up to now is        7.1 secs

     total energy              =     -95.06293325 Ry
     Harris-Foulkes estimate   =     -95.06299962 Ry
     estimated scf accuracy    <       0.00025025 Ry

     iteration #  3     ecut=    40.00 Ry     beta=0.70
     Davidson diagonalization with overlap
     ethr =  2.78E-06,  avg # of iterations =  2.2

     total cpu time spent up to now is        8.7 secs

     total energy              =     -95.06296601 Ry
     Harris-Foulkes estimate   =     -95.06296754 Ry
     estimated scf accuracy    <       0.00001446 Ry

     iteration #  4     ecut=    40.00 Ry     beta=0.70
     Davidson diagonalization with overlap
     ethr =  1.61E-07,  avg # of iterations =  1.0

     total cpu time spent up to now is       10.0 secs

     total energy              =     -95.06296732 Ry
     Harris-Foulkes estimate   =     -95.06296725 Ry
     estimated scf accuracy    <       0.00000002 Ry

     iteration #  5     ecut=    40.00 Ry     beta=0.70
     Davidson diagonalization with overlap
     ethr =  2.20E-10,  avg # of iterations =  3.0

     total cpu time spent up to now is       12.0 secs

     total energy              =     -95.06296737 Ry
     Harris-Foulkes estimate   =     -95.06296737 Ry
     estimated scf accuracy    <          2.7E-09 Ry

     iteration #  6     ecut=    40.00 Ry     beta=0.70
     Davidson diagonalization with overlap
     ethr =  3.00E-11,  avg # of iterations =  1.6

     total cpu time spent up to now is       13.4 secs

     total energy              =     -95.06296737 Ry
     Harris-Foulkes estimate   =     -95.06296737 Ry
     estimated scf accuracy    <          1.1E-10 Ry

     iteration #  7     ecut=    40.00 Ry     beta=0.70
     Davidson diagonalization with overlap
     ethr =  1.24E-12,  avg # of iterations =  2.0

     total cpu time spent up to now is       15.1 secs

     End of self-consistent calculation

     Number of k-points >= 100: set verbosity='high' to print the bands.

     the Fermi energy is     5.7097 ev

!    total energy              =     -95.06296737 Ry
     Harris-Foulkes estimate   =     -95.06296737 Ry
     estimated scf accuracy    <          1.9E-12 Ry

     The total energy is the sum of the following terms:

     one-electron contribution =     -72.01875287 Ry
     hartree contribution      =      37.75488636 Ry
     xc contribution           =     -14.37734087 Ry
     ewald contribution        =     -46.42172850 Ry
     smearing contrib. (-TS)   =      -0.00003149 Ry

     convergence has been achieved in   7 iterations

     Forces acting on atoms (cartesian axes, Ry/au):

     atom    1 type  1   force =     0.00000000    0.00000000    0.00000000

     Total force =     0.000000     Total SCF correction =     0.000000


     Computing stress (Cartesian axis) and pressure

          total   stress  (Ry/bohr**3)                   (kbar)     P=  175.71
   0.00119447   0.00000000   0.00000000        175.71      0.00      0.00
   0.00000000   0.00119447   0.00000000          0.00    175.71      0.00
   0.00000000   0.00000000   0.00119447          0.00      0.00    175.71


     BFGS Geometry Optimization

     number of scf cycles    =   1
     number of bfgs steps    =   0

     enthalpy new            =     -94.9759547243 Ry

     new trust radius        =       0.0291149071 bohr
     new conv_thr            =            1.0E-10 Ry

     new unit-cell volume =    133.00481 a.u.^3 (    19.70928 Ang^3 )
     density =      1.93694 g/cm^3

CELL_PARAMETERS (alat=  8.00000000)
  -0.506433546  -0.000000000   0.506433546
  -0.000000000   0.506433546   0.506433546
  -0.506433546   0.506433546  -0.000000000

ATOMIC_POSITIONS (crystal)
Na       0.000000000   0.000000000   0.000000000



     Writing output data file na.fcc.save
     NEW-OLD atomic charge density approx. for the potential
     extrapolated charge    9.33842, renormalised to    9.00000

     total cpu time spent up to now is       18.5 secs

     per-process dynamical memory:    14.0 Mb

     Self-consistent Calculation

     iteration #  1     ecut=    40.00 Ry     beta=0.70
     Davidson diagonalization with overlap
     ethr =  1.00E-06,  avg # of iterations =  3.6

     total cpu time spent up to now is       21.2 secs

     total energy              =     -94.98801382 Ry
     Harris-Foulkes estimate   =     -92.89295610 Ry
     estimated scf accuracy    <       0.04506543 Ry

     iteration #  2     ecut=    40.00 Ry     beta=0.70
     Davidson diagonalization with overlap
     ethr =  5.01E-04,  avg # of iterations =  2.9

     total cpu time spent up to now is       23.3 secs

     total energy              =     -95.07103598 Ry
     Harris-Foulkes estimate   =     -95.10421649 Ry
     estimated scf accuracy    <       0.07560249 Ry

     iteration #  3     ecut=    40.00 Ry     beta=0.70
     Davidson diagonalization with overlap
     ethr =  5.01E-04,  avg # of iterations =  1.2

     total cpu time spent up to now is       24.8 secs

     total energy              =     -95.07049088 Ry
     Harris-Foulkes estimate   =     -95.07565240 Ry
     estimated scf accuracy    <       0.01578009 Ry

     iteration #  4     ecut=    40.00 Ry     beta=0.70
     Davidson diagonalization with overlap
     ethr =  1.75E-04,  avg # of iterations =  1.0

     total cpu time spent up to now is       26.1 secs

     total energy              =     -95.07017242 Ry
     Harris-Foulkes estimate   =     -95.07112966 Ry
     estimated scf accuracy    <       0.00554378 Ry

     iteration #  5     ecut=    40.00 Ry     beta=0.70
     Davidson diagonalization with overlap
     ethr =  6.16E-05,  avg # of iterations =  1.0

     total cpu time spent up to now is       27.4 secs

     total energy              =     -95.06933027 Ry
     Harris-Foulkes estimate   =     -95.07024044 Ry
     estimated scf accuracy    <       0.00364687 Ry

     iteration #  6     ecut=    40.00 Ry     beta=0.70
     Davidson diagonalization with overlap
     ethr =  4.05E-05,  avg # of iterations =  1.0

     total cpu time spent up to now is       28.7 secs

     total energy              =     -95.06828968 Ry
     Harris-Foulkes estimate   =     -95.06939302 Ry
     estimated scf accuracy    <       0.00185196 Ry

     iteration #  7     ecut=    40.00 Ry     beta=0.70
     Davidson diagonalization with overlap
     ethr =  2.06E-05,  avg # of iterations =  2.0

     total cpu time spent up to now is       30.4 secs

     total energy              =     -95.06854617 Ry
     Harris-Foulkes estimate   =     -95.06856424 Ry
     estimated scf accuracy    <       0.00005411 Ry

     iteration #  8     ecut=    40.00 Ry     beta=0.70
     Davidson diagonalization with overlap
     ethr =  6.01E-07,  avg # of iterations =  1.6

     total cpu time spent up to now is       31.9 secs

     total energy              =     -95.06853372 Ry
     Harris-Foulkes estimate   =     -95.06854938 Ry
     estimated scf accuracy    <       0.00001954 Ry

     iteration #  9     ecut=    40.00 Ry     beta=0.70
     Davidson diagonalization with overlap
     ethr =  2.17E-07,  avg # of iterations =  2.0

     total cpu time spent up to now is       33.5 secs

     total energy              =     -95.06853967 Ry
     Harris-Foulkes estimate   =     -95.06854198 Ry
     estimated scf accuracy    <       0.00000330 Ry

     iteration # 10     ecut=    40.00 Ry     beta=0.70
     Davidson diagonalization with overlap
     ethr =  3.66E-08,  avg # of iterations =  2.0

     total cpu time spent up to now is       35.1 secs

     total energy              =     -95.06854067 Ry
     Harris-Foulkes estimate   =     -95.06854060 Ry
     estimated scf accuracy    <       0.00000014 Ry

     iteration # 11     ecut=    40.00 Ry     beta=0.70
     Davidson diagonalization with overlap
     ethr =  1.51E-09,  avg # of iterations =  1.0

     total cpu time spent up to now is       36.3 secs

     total energy              =     -95.06854052 Ry
     Harris-Foulkes estimate   =     -95.06854068 Ry
     estimated scf accuracy    <       0.00000031 Ry

     iteration # 12     ecut=    40.00 Ry     beta=0.70
     Davidson diagonalization with overlap
     ethr =  1.51E-09,  avg # of iterations =  2.0

     total cpu time spent up to now is       37.9 secs

     total energy              =     -95.06854055 Ry
     Harris-Foulkes estimate   =     -95.06854055 Ry
     estimated scf accuracy    <       0.00000004 Ry

     iteration # 13     ecut=    40.00 Ry     beta=0.70
     Davidson diagonalization with overlap
     ethr =  4.12E-10,  avg # of iterations =  1.0

     total cpu time spent up to now is       39.3 secs

     total energy              =     -95.06854054 Ry
     Harris-Foulkes estimate   =     -95.06854055 Ry
     estimated scf accuracy    <       0.00000001 Ry

     iteration # 14     ecut=    40.00 Ry     beta=0.70
     Davidson diagonalization with overlap
     ethr =  1.65E-10,  avg # of iterations =  1.2

     total cpu time spent up to now is       40.6 secs

     End of self-consistent calculation

     Number of k-points >= 100: set verbosity='high' to print the bands.

     the Fermi energy is     5.3841 ev

!    total energy              =     -95.06854054 Ry
     Harris-Foulkes estimate   =     -95.06854054 Ry
     estimated scf accuracy    <          1.6E-11 Ry

     The total energy is the sum of the following terms:

     one-electron contribution =     -73.03022652 Ry
     hartree contribution      =      38.16327288 Ry
     xc contribution           =     -14.36955145 Ry
     ewald contribution        =     -45.83200385 Ry
     smearing contrib. (-TS)   =      -0.00003159 Ry

     convergence has been achieved in  14 iterations

     Forces acting on atoms (cartesian axes, Ry/au):

     atom    1 type  1   force =     0.00000000    0.00000000    0.00000000

     Total force =     0.000000     Total SCF correction =     0.000000


     Computing stress (Cartesian axis) and pressure

          total   stress  (Ry/bohr**3)                   (kbar)     P=  152.51
   0.00103674   0.00000000   0.00000000        152.51      0.00      0.00
   0.00000000   0.00103674  -0.00000000          0.00    152.51     -0.00
   0.00000000  -0.00000000   0.00103674          0.00     -0.00    152.51


     number of scf cycles    =   2
     number of bfgs steps    =   1

     enthalpy old            =     -94.9759547243 Ry
     enthalpy new            =     -94.9781256945 Ry

     CASE: enthalpy_new < enthalpy_old

     new trust radius        =       0.0322317825 bohr
     new conv_thr            =            1.0E-12 Ry

     new unit-cell volume =    138.65892 a.u.^3 (    20.54713 Ang^3 )
     density =      1.85796 g/cm^3

CELL_PARAMETERS (alat=  8.00000000)
  -0.513510447  -0.000000000   0.513510447
  -0.000000000   0.513510447   0.513510447
  -0.513510447   0.513510447  -0.000000000

ATOMIC_POSITIONS (crystal)
Na       0.000000000   0.000000000   0.000000000



     Writing output data file na.fcc.save
     NEW-OLD atomic charge density approx. for the potential
     extrapolated charge    9.36674, renormalised to    9.00000

     total cpu time spent up to now is       44.0 secs

     per-process dynamical memory:    14.0 Mb

     Self-consistent Calculation

     iteration #  1     ecut=    40.00 Ry     beta=0.70
     Davidson diagonalization with overlap
     ethr =  1.00E-06,  avg # of iterations =  3.6

     total cpu time spent up to now is       46.7 secs

     total energy              =     -94.97757894 Ry
     Harris-Foulkes estimate   =     -92.67927570 Ry
     estimated scf accuracy    <       0.05390564 Ry

     iteration #  2     ecut=    40.00 Ry     beta=0.70
     Davidson diagonalization with overlap
     ethr =  5.99E-04,  avg # of iterations =  2.9

     total cpu time spent up to now is       48.7 secs

     total energy              =     -95.07705599 Ry
     Harris-Foulkes estimate   =     -95.11674135 Ry
     estimated scf accuracy    <       0.09040479 Ry

     iteration #  3     ecut=    40.00 Ry     beta=0.70
     Davidson diagonalization with overlap
     ethr =  5.99E-04,  avg # of iterations =  1.2

     total cpu time spent up to now is       50.1 secs

     total energy              =     -95.07624696 Ry
     Harris-Foulkes estimate   =     -95.08253811 Ry
     estimated scf accuracy    <       0.01898940 Ry

     iteration #  4     ecut=    40.00 Ry     beta=0.70
     Davidson diagonalization with overlap
     ethr =  2.11E-04,  avg # of iterations =  1.0

     total cpu time spent up to now is       51.5 secs

     total energy              =     -95.07585010 Ry
     Harris-Foulkes estimate   =     -95.07702789 Ry
     estimated scf accuracy    <       0.00657025 Ry

     iteration #  5     ecut=    40.00 Ry     beta=0.70
     Davidson diagonalization with overlap
     ethr =  7.30E-05,  avg # of iterations =  1.0

     total cpu time spent up to now is       52.8 secs

     total energy              =     -95.07485665 Ry
     Harris-Foulkes estimate   =     -95.07593609 Ry
     estimated scf accuracy    <       0.00422833 Ry

     iteration #  6     ecut=    40.00 Ry     beta=0.70
     Davidson diagonalization with overlap
     ethr =  4.70E-05,  avg # of iterations =  1.0

     total cpu time spent up to now is       54.0 secs

     total energy              =     -95.07365681 Ry
     Harris-Foulkes estimate   =     -95.07493181 Ry
     estimated scf accuracy    <       0.00211171 Ry

     iteration #  7     ecut=    40.00 Ry     beta=0.70
     Davidson diagonalization with overlap
     ethr =  2.35E-05,  avg # of iterations =  2.0

     total cpu time spent up to now is       55.5 secs

     total energy              =     -95.07396683 Ry
     Harris-Foulkes estimate   =     -95.07398140 Ry
     estimated scf accuracy    <       0.00005177 Ry

     iteration #  8     ecut=    40.00 Ry     beta=0.70
     Davidson diagonalization with overlap
     ethr =  5.75E-07,  avg # of iterations =  1.7

     total cpu time spent up to now is       57.1 secs

     total energy              =     -95.07395029 Ry
     Harris-Foulkes estimate   =     -95.07396925 Ry
     estimated scf accuracy    <       0.00002342 Ry

     iteration #  9     ecut=    40.00 Ry     beta=0.70
     Davidson diagonalization with overlap
     ethr =  2.60E-07,  avg # of iterations =  2.0

     total cpu time spent up to now is       58.8 secs

     total energy              =     -95.07395744 Ry
     Harris-Foulkes estimate   =     -95.07396065 Ry
     estimated scf accuracy    <       0.00000454 Ry

     iteration # 10     ecut=    40.00 Ry     beta=0.70
     Davidson diagonalization with overlap
     ethr =  5.04E-08,  avg # of iterations =  2.0

     total cpu time spent up to now is       60.4 secs

     total energy              =     -95.07395877 Ry
     Harris-Foulkes estimate   =     -95.07395869 Ry
     estimated scf accuracy    <       0.00000021 Ry

     iteration # 11     ecut=    40.00 Ry     beta=0.70
     Davidson diagonalization with overlap
     ethr =  2.34E-09,  avg # of iterations =  1.0

     total cpu time spent up to now is       61.6 secs

     total energy              =     -95.07395859 Ry
     Harris-Foulkes estimate   =     -95.07395878 Ry
     estimated scf accuracy    <       0.00000040 Ry

     iteration # 12     ecut=    40.00 Ry     beta=0.70
     Davidson diagonalization with overlap
     ethr =  2.34E-09,  avg # of iterations =  2.0

     total cpu time spent up to now is       63.2 secs

     total energy              =     -95.07395862 Ry
     Harris-Foulkes estimate   =     -95.07395863 Ry
     estimated scf accuracy    <       0.00000004 Ry

     iteration # 13     ecut=    40.00 Ry     beta=0.70
     Davidson diagonalization with overlap
     ethr =  4.49E-10,  avg # of iterations =  1.0

     total cpu time spent up to now is       64.4 secs

     total energy              =     -95.07395862 Ry
     Harris-Foulkes estimate   =     -95.07395863 Ry
     estimated scf accuracy    <       0.00000002 Ry

     iteration # 14     ecut=    40.00 Ry     beta=0.70
     Davidson diagonalization with overlap
     ethr =  2.71E-10,  avg # of iterations =  1.0

     total cpu time spent up to now is       65.7 secs

     total energy              =     -95.07395862 Ry
     Harris-Foulkes estimate   =     -95.07395862 Ry
     estimated scf accuracy    <          1.0E-10 Ry

     iteration # 15     ecut=    40.00 Ry     beta=0.70
     Davidson diagonalization with overlap
     ethr =  1.12E-12,  avg # of iterations =  2.0

     total cpu time spent up to now is       67.3 secs

     total energy              =     -95.07395862 Ry
     Harris-Foulkes estimate   =     -95.07395862 Ry
     estimated scf accuracy    <          1.8E-11 Ry

     iteration # 16     ecut=    40.00 Ry     beta=0.70
     Davidson diagonalization with overlap
     ethr =  2.03E-13,  avg # of iterations =  1.0

     total cpu time spent up to now is       68.5 secs

     total energy              =     -95.07395862 Ry
     Harris-Foulkes estimate   =     -95.07395862 Ry
     estimated scf accuracy    <          3.7E-12 Ry

     iteration # 17     ecut=    40.00 Ry     beta=0.70
     Davidson diagonalization with overlap
     ethr =  1.00E-13,  avg # of iterations =  1.0

     total cpu time spent up to now is       69.8 secs

     End of self-consistent calculation

     Number of k-points >= 100: set verbosity='high' to print the bands.

     the Fermi energy is     5.0460 ev

!    total energy              =     -95.07395862 Ry
     Harris-Foulkes estimate   =     -95.07395862 Ry
     estimated scf accuracy    <          5.7E-14 Ry

     The total energy is the sum of the following terms:

     one-electron contribution =     -74.11536060 Ry
     hartree contribution      =      38.60316784 Ry
     xc contribution           =     -14.36136006 Ry
     ewald contribution        =     -45.20037395 Ry
     smearing contrib. (-TS)   =      -0.00003185 Ry

     convergence has been achieved in  17 iterations

     Forces acting on atoms (cartesian axes, Ry/au):

     atom    1 type  1   force =     0.00000000    0.00000000    0.00000000

     Total force =     0.000000     Total SCF correction =     0.000000


     Computing stress (Cartesian axis) and pressure

          total   stress  (Ry/bohr**3)                   (kbar)     P=  130.09
   0.00088432  -0.00000000   0.00000000        130.09     -0.00      0.00
  -0.00000000   0.00088432   0.00000000         -0.00    130.09      0.00
   0.00000000   0.00000000   0.00088432          0.00      0.00    130.09


     number of scf cycles    =   3
     number of bfgs steps    =   2

     enthalpy old            =     -94.9781256945 Ry
     enthalpy new            =     -94.9797001865 Ry

     CASE: enthalpy_new < enthalpy_old

     new trust radius        =       0.0465364145 bohr
     new conv_thr            =            1.0E-12 Ry

     new unit-cell volume =    147.04215 a.u.^3 (    21.78940 Ang^3 )
     density =      1.75204 g/cm^3

CELL_PARAMETERS (alat=  8.00000000)
  -0.523657463  -0.000000000   0.523657463
  -0.000000000   0.523657463   0.523657463
  -0.523657463   0.523657463  -0.000000000

ATOMIC_POSITIONS (crystal)
Na       0.000000000   0.000000000   0.000000000



     Writing output data file na.fcc.save
     NEW-OLD atomic charge density approx. for the potential
     extrapolated charge    9.51275, renormalised to    9.00000

     total cpu time spent up to now is       73.2 secs

     per-process dynamical memory:    14.0 Mb

     Self-consistent Calculation

     iteration #  1     ecut=    40.00 Ry     beta=0.70
     Davidson diagonalization with overlap
     ethr =  1.00E-06,  avg # of iterations =  4.0

     total cpu time spent up to now is       76.0 secs

     total energy              =     -94.87747433 Ry
     Harris-Foulkes estimate   =     -91.65852967 Ry
     estimated scf accuracy    <       0.11359044 Ry

     iteration #  2     ecut=    40.00 Ry     beta=0.70
     Davidson diagonalization with overlap
     ethr =  1.26E-03,  avg # of iterations =  3.0

     total cpu time spent up to now is       78.2 secs

     total energy              =     -95.08824200 Ry
     Harris-Foulkes estimate   =     -95.17159775 Ry
     estimated scf accuracy    <       0.18958938 Ry

     iteration #  3     ecut=    40.00 Ry     beta=0.70
     Davidson diagonalization with overlap
     ethr =  1.26E-03,  avg # of iterations =  1.2

     total cpu time spent up to now is       79.5 secs

     total energy              =     -95.08519111 Ry
     Harris-Foulkes estimate   =     -95.09933782 Ry
     estimated scf accuracy    <       0.04109687 Ry

     iteration #  4     ecut=    40.00 Ry     beta=0.70
     Davidson diagonalization with overlap
     ethr =  4.57E-04,  avg # of iterations =  1.0

     total cpu time spent up to now is       80.8 secs

     total energy              =     -95.08441020 Ry
     Harris-Foulkes estimate   =     -95.08695954 Ry
     estimated scf accuracy    <       0.01360720 Ry

     iteration #  5     ecut=    40.00 Ry     beta=0.70
     Davidson diagonalization with overlap
     ethr =  1.51E-04,  avg # of iterations =  1.0

     total cpu time spent up to now is       82.0 secs

     total energy              =     -95.08224165 Ry
     Harris-Foulkes estimate   =     -95.08460379 Ry
     estimated scf accuracy    <       0.00854881 Ry

     iteration #  6     ecut=    40.00 Ry     beta=0.70
     Davidson diagonalization with overlap
     ethr =  9.50E-05,  avg # of iterations =  1.0

     total cpu time spent up to now is       83.3 secs

     total energy              =     -95.07990875 Ry
     Harris-Foulkes estimate   =     -95.08241802 Ry
     estimated scf accuracy    <       0.00398678 Ry

     iteration #  7     ecut=    40.00 Ry     beta=0.70
     Davidson diagonalization with overlap
     ethr =  4.43E-05,  avg # of iterations =  2.0

     total cpu time spent up to now is       85.1 secs

     total energy              =     -95.08059037 Ry
     Harris-Foulkes estimate   =     -95.08059431 Ry
     estimated scf accuracy    <       0.00004973 Ry

     iteration #  8     ecut=    40.00 Ry     beta=0.70
     Davidson diagonalization with overlap
     ethr =  5.53E-07,  avg # of iterations =  1.6

     total cpu time spent up to now is       86.7 secs

     total energy              =     -95.08055577 Ry
     Harris-Foulkes estimate   =     -95.08059169 Ry
     estimated scf accuracy    <       0.00004253 Ry

     iteration #  9     ecut=    40.00 Ry     beta=0.70
     Davidson diagonalization with overlap
     ethr =  4.73E-07,  avg # of iterations =  2.0

     total cpu time spent up to now is       88.3 secs

     total energy              =     -95.08058303 Ry
     Harris-Foulkes estimate   =     -95.08058487 Ry
     estimated scf accuracy    <       0.00002672 Ry

     iteration # 10     ecut=    40.00 Ry     beta=0.70
     Davidson diagonalization with overlap
     ethr =  2.97E-07,  avg # of iterations =  1.0

     total cpu time spent up to now is       89.9 secs

     total energy              =     -95.08056634 Ry
     Harris-Foulkes estimate   =     -95.08058307 Ry
     estimated scf accuracy    <       0.00002262 Ry

     iteration # 11     ecut=    40.00 Ry     beta=0.70
     Davidson diagonalization with overlap
     ethr =  2.51E-07,  avg # of iterations =  2.0

     total cpu time spent up to now is       91.4 secs

     total energy              =     -95.08057242 Ry
     Harris-Foulkes estimate   =     -95.08057282 Ry
     estimated scf accuracy    <       0.00000084 Ry

     iteration # 12     ecut=    40.00 Ry     beta=0.70
     Davidson diagonalization with overlap
     ethr =  9.29E-09,  avg # of iterations =  2.0

     total cpu time spent up to now is       93.0 secs

     total energy              =     -95.08057252 Ry
     Harris-Foulkes estimate   =     -95.08057252 Ry
     estimated scf accuracy    <       0.00000001 Ry

     iteration # 13     ecut=    40.00 Ry     beta=0.70
     Davidson diagonalization with overlap
     ethr =  1.35E-10,  avg # of iterations =  2.0

     total cpu time spent up to now is       94.5 secs

     total energy              =     -95.08057252 Ry
     Harris-Foulkes estimate   =     -95.08057252 Ry
     estimated scf accuracy    <          2.4E-09 Ry

     iteration # 14     ecut=    40.00 Ry     beta=0.70
     Davidson diagonalization with overlap
     ethr =  2.65E-11,  avg # of iterations =  1.0

     total cpu time spent up to now is       95.8 secs

     total energy              =     -95.08057252 Ry
     Harris-Foulkes estimate   =     -95.08057252 Ry
     estimated scf accuracy    <          1.2E-10 Ry

     iteration # 15     ecut=    40.00 Ry     beta=0.70
     Davidson diagonalization with overlap
     ethr =  1.29E-12,  avg # of iterations =  2.0

     total cpu time spent up to now is       97.3 secs

     total energy              =     -95.08057252 Ry
     Harris-Foulkes estimate   =     -95.08057252 Ry
     estimated scf accuracy    <          1.0E-11 Ry

     iteration # 16     ecut=    40.00 Ry     beta=0.70
     Davidson diagonalization with overlap
     ethr =  1.12E-13,  avg # of iterations =  1.0

     total cpu time spent up to now is       98.7 secs

     total energy              =     -95.08057252 Ry
     Harris-Foulkes estimate   =     -95.08057252 Ry
     estimated scf accuracy    <          4.5E-12 Ry

     iteration # 17     ecut=    40.00 Ry     beta=0.70
     Davidson diagonalization with overlap
     ethr =  1.00E-13,  avg # of iterations =  1.6

     total cpu time spent up to now is      100.1 secs

     total energy              =     -95.08057252 Ry
     Harris-Foulkes estimate   =     -95.08057252 Ry
     estimated scf accuracy    <          3.0E-12 Ry

     iteration # 18     ecut=    40.00 Ry     beta=0.70
     Davidson diagonalization with overlap
     ethr =  1.00E-13,  avg # of iterations =  1.0

     total cpu time spent up to now is      101.3 secs

     End of self-consistent calculation

     Number of k-points >= 100: set verbosity='high' to print the bands.

     the Fermi energy is     4.5948 ev

!    total energy              =     -95.08057252 Ry
     Harris-Foulkes estimate   =     -95.08057252 Ry
     estimated scf accuracy    <          3.2E-13 Ry

     The total energy is the sum of the following terms:

     one-electron contribution =     -75.62326209 Ry
     hartree contribution      =      39.21752651 Ry
     xc contribution           =     -14.35028723 Ry
     ewald contribution        =     -44.32451728 Ry
     smearing contrib. (-TS)   =      -0.00003243 Ry

     convergence has been achieved in  18 iterations

     Forces acting on atoms (cartesian axes, Ry/au):

     atom    1 type  1   force =     0.00000000    0.00000000    0.00000000

     Total force =     0.000000     Total SCF correction =     0.000000


     Computing stress (Cartesian axis) and pressure

          total   stress  (Ry/bohr**3)                   (kbar)     P=  103.15
   0.00070122  -0.00000000  -0.00000000        103.15     -0.00     -0.00
  -0.00000000   0.00070122  -0.00000000         -0.00    103.15     -0.00
  -0.00000000   0.00000000   0.00070122         -0.00      0.00    103.15


     number of scf cycles    =   4
     number of bfgs steps    =   3

     enthalpy old            =     -94.9797001865 Ry
     enthalpy new            =     -94.9806152811 Ry

     CASE: enthalpy_new < enthalpy_old

     new trust radius        =       0.0057478056 bohr
     new conv_thr            =            1.0E-12 Ry

     new unit-cell volume =    148.09011 a.u.^3 (    21.94469 Ang^3 )
     density =      1.73964 g/cm^3

CELL_PARAMETERS (alat=  8.00000000)
  -0.524898539   0.000000000   0.524898539
  -0.000000000   0.524898539   0.524898539
  -0.524898539   0.524898539  -0.000000000

ATOMIC_POSITIONS (crystal)
Na       0.000000000   0.000000000   0.000000000



     Writing output data file na.fcc.save
     NEW-OLD atomic charge density approx. for the potential
     extrapolated charge    9.06364, renormalised to    9.00000

     total cpu time spent up to now is      104.7 secs

     per-process dynamical memory:    14.0 Mb

     Self-consistent Calculation

     iteration #  1     ecut=    40.00 Ry     beta=0.70
     Davidson diagonalization with overlap
     ethr =  1.00E-06,  avg # of iterations =  2.6

     total cpu time spent up to now is      106.8 secs

     total energy              =     -95.07870245 Ry
     Harris-Foulkes estimate   =     -94.65705493 Ry
     estimated scf accuracy    <       0.00145527 Ry

     iteration #  2     ecut=    40.00 Ry     beta=0.70
     Davidson diagonalization with overlap
     ethr =  1.62E-05,  avg # of iterations =  2.9

     total cpu time spent up to now is      108.9 secs

     total energy              =     -95.08135118 Ry
     Harris-Foulkes estimate   =     -95.08242421 Ry
     estimated scf accuracy    <       0.00244627 Ry

     iteration #  3     ecut=    40.00 Ry     beta=0.70
     Davidson diagonalization with overlap
     ethr =  1.62E-05,  avg # of iterations =  1.4

     total cpu time spent up to now is      110.3 secs

     total energy              =     -95.08136494 Ry
     Harris-Foulkes estimate   =     -95.08151052 Ry
     estimated scf accuracy    <       0.00047991 Ry

     iteration #  4     ecut=    40.00 Ry     beta=0.70
     Davidson diagonalization with overlap
     ethr =  5.33E-06,  avg # of iterations =  1.0

     total cpu time spent up to now is      111.7 secs

     total energy              =     -95.08133971 Ry
     Harris-Foulkes estimate   =     -95.08138226 Ry
     estimated scf accuracy    <       0.00018436 Ry

     iteration #  5     ecut=    40.00 Ry     beta=0.70
     Davidson diagonalization with overlap
     ethr =  2.05E-06,  avg # of iterations =  1.0

     total cpu time spent up to now is      112.9 secs

     total energy              =     -95.08131743 Ry
     Harris-Foulkes estimate   =     -95.08134300 Ry
     estimated scf accuracy    <       0.00009856 Ry

     iteration #  6     ecut=    40.00 Ry     beta=0.70
     Davidson diagonalization with overlap
     ethr =  1.10E-06,  avg # of iterations =  1.0

     total cpu time spent up to now is      114.2 secs

     total energy              =     -95.08129007 Ry
     Harris-Foulkes estimate   =     -95.08131921 Ry
     estimated scf accuracy    <       0.00004841 Ry

     iteration #  7     ecut=    40.00 Ry     beta=0.70
     Davidson diagonalization with overlap
     ethr =  5.38E-07,  avg # of iterations =  2.0

     total cpu time spent up to now is      115.7 secs

     total energy              =     -95.08129710 Ry
     Harris-Foulkes estimate   =     -95.08129748 Ry
     estimated scf accuracy    <       0.00000113 Ry

     iteration #  8     ecut=    40.00 Ry     beta=0.70
     Davidson diagonalization with overlap
     ethr =  1.25E-08,  avg # of iterations =  1.3

     total cpu time spent up to now is      117.1 secs

     total energy              =     -95.08129695 Ry
     Harris-Foulkes estimate   =     -95.08129716 Ry
     estimated scf accuracy    <       0.00000039 Ry

     iteration #  9     ecut=    40.00 Ry     beta=0.70
     Davidson diagonalization with overlap
     ethr =  4.38E-09,  avg # of iterations =  1.9

     total cpu time spent up to now is      118.8 secs

     total energy              =     -95.08129700 Ry
     Harris-Foulkes estimate   =     -95.08129700 Ry
     estimated scf accuracy    <       0.00000003 Ry

     iteration # 10     ecut=    40.00 Ry     beta=0.70
     Davidson diagonalization with overlap
     ethr =  2.79E-10,  avg # of iterations =  1.0

     total cpu time spent up to now is      120.0 secs

     total energy              =     -95.08129698 Ry
     Harris-Foulkes estimate   =     -95.08129700 Ry
     estimated scf accuracy    <       0.00000002 Ry

     iteration # 11     ecut=    40.00 Ry     beta=0.70
     Davidson diagonalization with overlap
     ethr =  2.18E-10,  avg # of iterations =  2.0

     total cpu time spent up to now is      121.5 secs

     total energy              =     -95.08129699 Ry
     Harris-Foulkes estimate   =     -95.08129699 Ry
     estimated scf accuracy    <          9.6E-10 Ry

     iteration # 12     ecut=    40.00 Ry     beta=0.70
     Davidson diagonalization with overlap
     ethr =  1.07E-11,  avg # of iterations =  1.3

     total cpu time spent up to now is      122.9 secs

     total energy              =     -95.08129699 Ry
     Harris-Foulkes estimate   =     -95.08129699 Ry
     estimated scf accuracy    <          6.1E-10 Ry

     iteration # 13     ecut=    40.00 Ry     beta=0.70
     Davidson diagonalization with overlap
     ethr =  6.75E-12,  avg # of iterations =  2.0

     total cpu time spent up to now is      124.5 secs

     total energy              =     -95.08129699 Ry
     Harris-Foulkes estimate   =     -95.08129699 Ry
     estimated scf accuracy    <          1.5E-11 Ry

     iteration # 14     ecut=    40.00 Ry     beta=0.70
     Davidson diagonalization with overlap
     ethr =  1.66E-13,  avg # of iterations =  2.0

     total cpu time spent up to now is      126.0 secs

     total energy              =     -95.08129699 Ry
     Harris-Foulkes estimate   =     -95.08129699 Ry
     estimated scf accuracy    <          1.1E-11 Ry

     iteration # 15     ecut=    40.00 Ry     beta=0.70
     Davidson diagonalization with overlap
     ethr =  1.18E-13,  avg # of iterations =  1.6

     total cpu time spent up to now is      127.4 secs

     End of self-consistent calculation

     Number of k-points >= 100: set verbosity='high' to print the bands.

     the Fermi energy is     4.5422 ev

!    total energy              =     -95.08129699 Ry
     Harris-Foulkes estimate   =     -95.08129699 Ry
     estimated scf accuracy    <          3.1E-13 Ry

     The total energy is the sum of the following terms:

     one-electron contribution =     -75.80394593 Ry
     hartree contribution      =      39.29138297 Ry
     xc contribution           =     -14.34898563 Ry
     ewald contribution        =     -44.21971588 Ry
     smearing contrib. (-TS)   =      -0.00003251 Ry

     convergence has been achieved in  15 iterations

     Forces acting on atoms (cartesian axes, Ry/au):

     atom    1 type  1   force =     0.00000000    0.00000000    0.00000000

     Total force =     0.000000     Total SCF correction =     0.000000


     Computing stress (Cartesian axis) and pressure

          total   stress  (Ry/bohr**3)                   (kbar)     P=  100.25
   0.00068150   0.00000000   0.00000000        100.25      0.00      0.00
   0.00000000   0.00068150  -0.00000000          0.00    100.25     -0.00
   0.00000000  -0.00000000   0.00068150          0.00     -0.00    100.25


     number of scf cycles    =   5
     number of bfgs steps    =   4

     enthalpy old            =     -94.9806152811 Ry
     enthalpy new            =     -94.9806273614 Ry

     CASE: enthalpy_new < enthalpy_old

     new trust radius        =       0.0005037136 bohr
     new conv_thr            =            1.0E-12 Ry

     new unit-cell volume =    148.18207 a.u.^3 (    21.95832 Ang^3 )
     density =      1.73856 g/cm^3

CELL_PARAMETERS (alat=  8.00000000)
  -0.525007173  -0.000000000   0.525007173
  -0.000000000   0.525007173   0.525007173
  -0.525007173   0.525007173  -0.000000000

ATOMIC_POSITIONS (crystal)
Na       0.000000000   0.000000000   0.000000000



     Writing output data file na.fcc.save
     NEW-OLD atomic charge density approx. for the potential
     extrapolated charge    9.00558, renormalised to    9.00000

     total cpu time spent up to now is      130.8 secs

     per-process dynamical memory:    14.0 Mb

     Self-consistent Calculation

     iteration #  1     ecut=    40.00 Ry     beta=0.70
     Davidson diagonalization with overlap
     ethr =  1.00E-06,  avg # of iterations =  2.0

     total cpu time spent up to now is      132.6 secs

     total energy              =     -95.08134005 Ry
     Harris-Foulkes estimate   =     -95.04417424 Ry
     estimated scf accuracy    <       0.00001097 Ry

     iteration #  2     ecut=    40.00 Ry     beta=0.70
     Davidson diagonalization with overlap
     ethr =  1.22E-07,  avg # of iterations =  2.9

     total cpu time spent up to now is      134.5 secs

     total energy              =     -95.08135994 Ry
     Harris-Foulkes estimate   =     -95.08136803 Ry
     estimated scf accuracy    <       0.00001842 Ry

     iteration #  3     ecut=    40.00 Ry     beta=0.70
     Davidson diagonalization with overlap
     ethr =  1.22E-07,  avg # of iterations =  1.4

     total cpu time spent up to now is      135.9 secs

     total energy              =     -95.08136018 Ry
     Harris-Foulkes estimate   =     -95.08136116 Ry
     estimated scf accuracy    <       0.00000358 Ry

     iteration #  4     ecut=    40.00 Ry     beta=0.70
     Davidson diagonalization with overlap
     ethr =  3.98E-08,  avg # of iterations =  1.0

     total cpu time spent up to now is      137.1 secs

     total energy              =     -95.08135992 Ry
     Harris-Foulkes estimate   =     -95.08136030 Ry
     estimated scf accuracy    <       0.00000155 Ry

     iteration #  5     ecut=    40.00 Ry     beta=0.70
     Davidson diagonalization with overlap
     ethr =  1.72E-08,  avg # of iterations =  1.0

     total cpu time spent up to now is      138.5 secs

     total energy              =     -95.08135968 Ry
     Harris-Foulkes estimate   =     -95.08135995 Ry
     estimated scf accuracy    <       0.00000080 Ry

     iteration #  6     ecut=    40.00 Ry     beta=0.70
     Davidson diagonalization with overlap
     ethr =  8.91E-09,  avg # of iterations =  1.0

     total cpu time spent up to now is      139.8 secs

     total energy              =     -95.08135955 Ry
     Harris-Foulkes estimate   =     -95.08135971 Ry
     estimated scf accuracy    <       0.00000028 Ry

     iteration #  7     ecut=    40.00 Ry     beta=0.70
     Davidson diagonalization with overlap
     ethr =  3.06E-09,  avg # of iterations =  2.0

     total cpu time spent up to now is      141.3 secs

     total energy              =     -95.08135958 Ry
     Harris-Foulkes estimate   =     -95.08135958 Ry
     estimated scf accuracy    <       0.00000001 Ry

     iteration #  8     ecut=    40.00 Ry     beta=0.70
     Davidson diagonalization with overlap
     ethr =  1.24E-10,  avg # of iterations =  2.0

     total cpu time spent up to now is      142.8 secs

     total energy              =     -95.08135958 Ry
     Harris-Foulkes estimate   =     -95.08135958 Ry
     estimated scf accuracy    <          3.9E-10 Ry

     iteration #  9     ecut=    40.00 Ry     beta=0.70
     Davidson diagonalization with overlap
     ethr =  4.38E-12,  avg # of iterations =  1.1

     total cpu time spent up to now is      144.1 secs

     total energy              =     -95.08135958 Ry
     Harris-Foulkes estimate   =     -95.08135958 Ry
     estimated scf accuracy    <          5.2E-11 Ry

     iteration # 10     ecut=    40.00 Ry     beta=0.70
     Davidson diagonalization with overlap
     ethr =  5.82E-13,  avg # of iterations =  1.0

     total cpu time spent up to now is      145.7 secs

     total energy              =     -95.08135958 Ry
     Harris-Foulkes estimate   =     -95.08135958 Ry
     estimated scf accuracy    <          4.3E-11 Ry

     iteration # 11     ecut=    40.00 Ry     beta=0.70
     Davidson diagonalization with overlap
     ethr =  4.83E-13,  avg # of iterations =  2.0

     total cpu time spent up to now is      147.2 secs

     total energy              =     -95.08135958 Ry
     Harris-Foulkes estimate   =     -95.08135958 Ry
     estimated scf accuracy    <          1.4E-12 Ry

     iteration # 12     ecut=    40.00 Ry     beta=0.70
     Davidson diagonalization with overlap
     ethr =  1.00E-13,  avg # of iterations =  1.0

     total cpu time spent up to now is      148.5 secs

     End of self-consistent calculation

     Number of k-points >= 100: set verbosity='high' to print the bands.

     the Fermi energy is     4.5376 ev

!    total energy              =     -95.08135958 Ry
     Harris-Foulkes estimate   =     -95.08135958 Ry
     estimated scf accuracy    <          1.0E-13 Ry

     The total energy is the sum of the following terms:

     one-electron contribution =     -75.81972090 Ry
     hartree contribution      =      39.29783144 Ry
     xc contribution           =     -14.34887162 Ry
     ewald contribution        =     -44.21056597 Ry
     smearing contrib. (-TS)   =      -0.00003252 Ry

     convergence has been achieved in  12 iterations

     Forces acting on atoms (cartesian axes, Ry/au):

     atom    1 type  1   force =     0.00000000    0.00000000    0.00000000

     Total force =     0.000000     Total SCF correction =     0.000000


     Computing stress (Cartesian axis) and pressure

          total   stress  (Ry/bohr**3)                   (kbar)     P=  100.00
   0.00067976   0.00000000   0.00000000        100.00      0.00      0.00
   0.00000000   0.00067976  -0.00000000          0.00    100.00     -0.00
   0.00000000   0.00000000   0.00067976          0.00      0.00    100.00


     bfgs converged in   6 scf cycles and   5 bfgs steps
     (criteria: energy <  1.0E-04 Ry, force <  1.0E-03Ry/Bohr, cell <  5.0E-02kbar)

     End of BFGS Geometry Optimization

     Final enthalpy =     -94.9806274370 Ry
Begin final coordinates
     new unit-cell volume =    148.18207 a.u.^3 (    21.95832 Ang^3 )
     density =      1.73856 g/cm^3

CELL_PARAMETERS (alat=  8.00000000)
  -0.525007173  -0.000000000   0.525007173
  -0.000000000   0.525007173   0.525007173
  -0.525007173   0.525007173  -0.000000000

ATOMIC_POSITIONS (crystal)
Na       0.000000000   0.000000000   0.000000000
End final coordinates



     A final scf calculation at the relaxed structure.
     The G-vectors are recalculated for the final unit cell
     Results may differ from those at the preceding step.

     Parallelization info
     --------------------
     sticks:   dense  smooth     PW     G-vecs:    dense   smooth      PW
     Min          48      23      8                  894      312      66
     Max          49      24      9                  898      316      68
     Sum         769     379    139                14331     5029    1067



     bravais-lattice index     =            2
     lattice parameter (alat)  =       8.0000  a.u.
     unit-cell volume          =     148.1821 (a.u.)^3
     number of atoms/cell      =            1
     number of atomic types    =            1
     number of electrons       =         9.00
     number of Kohn-Sham states=            9
     kinetic-energy cutoff     =      40.0000  Ry
     charge density cutoff     =     320.0000  Ry
     convergence threshold     =      1.0E-12
     mixing beta               =       0.7000
     number of iterations used =            8  plain     mixing
     Exchange-correlation      = SLA  PW   PBE  PBE ( 1  4  3  4 0 0)

     celldm(1)=   8.000000  celldm(2)=   0.000000  celldm(3)=   0.000000
     celldm(4)=   0.000000  celldm(5)=   0.000000  celldm(6)=   0.000000

     crystal axes: (cart. coord. in units of alat)
               a(1) = (  -0.525007  -0.000000   0.525007 )  
               a(2) = (  -0.000000   0.525007   0.525007 )  
               a(3) = (  -0.525007   0.525007  -0.000000 )  

     reciprocal axes: (cart. coord. in units 2 pi/alat)
               b(1) = ( -0.952368 -0.952368  0.952368 )  
               b(2) = (  0.952368  0.952368  0.952368 )  
               b(3) = ( -0.952368  0.952368 -0.952368 )  


     PseudoPot. # 1 for Na read from file:
     /home/s1333534/quantum_espresso/qe-6.1/pseudo/Na_pbe_v1.uspp.F.UPF
     MD5 check sum: 76a99c7e9422403d3e93cbc85ab7bccb
     Pseudo is Ultrasoft, Zval =  9.0
     Generated by new atomic code, or converted to UPF format
     Using radial grid of  819 points,  5 beta functions with: 
                l(1) =   0
                l(2) =   0
                l(3) =   1
                l(4) =   1
                l(5) =   2
     Q(r) pseudized with  8 coefficients,  rinner =    1.250   1.250   1.250
                                                       1.250   1.250

     atomic species   valence    mass     pseudopotential
        Na             9.00    22.99000     Na( 1.00)

     48 Sym. Ops., with inversion, found



   Cartesian axes

     site n.     atom                  positions (alat units)
         1           Na  tau(   1) = (  -0.0000000   0.0000000   0.0000000  )

     number of k points=   770  Marzari-Vanderbilt smearing, width (Ry)=  0.0200

     Number of k-points >= 100: set verbosity='high' to print them.

     Dense  grid:    14331 G-vectors     FFT dimensions: (  36,  36,  36)

     Smooth grid:     5029 G-vectors     FFT dimensions: (  24,  24,  24)

     Estimated max dynamical RAM per process >       1.75MB

     Estimated total allocated dynamical RAM >     112.15MB

     Initial potential from superposition of free atoms

     starting charge    8.99371, renormalised to    9.00000
     Starting wfc are    5 randomized atomic wfcs +    4 random wfc

     Writing output data file na.fcc.save

     total cpu time spent up to now is      152.6 secs

     per-process dynamical memory:    14.1 Mb

     Self-consistent Calculation

     iteration #  1     ecut=    40.00 Ry     beta=0.70
     Davidson diagonalization with overlap
     ethr =  1.00E-06,  avg # of iterations = 10.1

     total cpu time spent up to now is      157.7 secs

     total energy              =     -95.08197993 Ry
     Harris-Foulkes estimate   =     -95.08260809 Ry
     estimated scf accuracy    <       0.00168265 Ry

     iteration #  2     ecut=    40.00 Ry     beta=0.70
     Davidson diagonalization with overlap
     ethr =  1.87E-05,  avg # of iterations =  2.0

     total cpu time spent up to now is      159.5 secs

     total energy              =     -95.08220778 Ry
     Harris-Foulkes estimate   =     -95.08226062 Ry
     estimated scf accuracy    <       0.00019442 Ry

     iteration #  3     ecut=    40.00 Ry     beta=0.70
     Davidson diagonalization with overlap
     ethr =  2.16E-06,  avg # of iterations =  2.0

     total cpu time spent up to now is      161.1 secs

     total energy              =     -95.08223228 Ry
     Harris-Foulkes estimate   =     -95.08223370 Ry
     estimated scf accuracy    <       0.00001130 Ry

     iteration #  4     ecut=    40.00 Ry     beta=0.70
     Davidson diagonalization with overlap
     ethr =  1.26E-07,  avg # of iterations =  1.0

     total cpu time spent up to now is      162.4 secs

     total energy              =     -95.08223326 Ry
     Harris-Foulkes estimate   =     -95.08223320 Ry
     estimated scf accuracy    <       0.00000001 Ry

     iteration #  5     ecut=    40.00 Ry     beta=0.70
     Davidson diagonalization with overlap
     ethr =  1.61E-10,  avg # of iterations =  3.0

     total cpu time spent up to now is      164.4 secs

     total energy              =     -95.08223330 Ry
     Harris-Foulkes estimate   =     -95.08223330 Ry
     estimated scf accuracy    <          1.8E-09 Ry

     iteration #  6     ecut=    40.00 Ry     beta=0.70
     Davidson diagonalization with overlap
     ethr =  2.05E-11,  avg # of iterations =  1.6

     total cpu time spent up to now is      165.9 secs

     total energy              =     -95.08223330 Ry
     Harris-Foulkes estimate   =     -95.08223330 Ry
     estimated scf accuracy    <          6.2E-11 Ry

     iteration #  7     ecut=    40.00 Ry     beta=0.70
     Davidson diagonalization with overlap
     ethr =  6.91E-13,  avg # of iterations =  2.0

     total cpu time spent up to now is      167.6 secs

     total energy              =     -95.08223330 Ry
     Harris-Foulkes estimate   =     -95.08223330 Ry
     estimated scf accuracy    <          2.4E-12 Ry

     iteration #  8     ecut=    40.00 Ry     beta=0.70
     Davidson diagonalization with overlap
     ethr =  1.00E-13,  avg # of iterations =  1.0

     total cpu time spent up to now is      169.0 secs

     End of self-consistent calculation

     Number of k-points >= 100: set verbosity='high' to print the bands.

     the Fermi energy is     4.5382 ev

!    total energy              =     -95.08223330 Ry
     Harris-Foulkes estimate   =     -95.08223330 Ry
     estimated scf accuracy    <          1.9E-13 Ry

     The total energy is the sum of the following terms:

     one-electron contribution =     -75.82054347 Ry
     hartree contribution      =      39.29785062 Ry
     xc contribution           =     -14.34894197 Ry
     ewald contribution        =     -44.21056597 Ry
     smearing contrib. (-TS)   =      -0.00003252 Ry

     convergence has been achieved in   8 iterations

     Forces acting on atoms (cartesian axes, Ry/au):

     atom    1 type  1   force =     0.00000000    0.00000000    0.00000000

     Total force =     0.000000     Total SCF correction =     0.000000


     Computing stress (Cartesian axis) and pressure

          total   stress  (Ry/bohr**3)                   (kbar)     P=  102.61
   0.00069753   0.00000000   0.00000000        102.61      0.00      0.00
   0.00000000   0.00069753  -0.00000000          0.00    102.61     -0.00
   0.00000000  -0.00000000   0.00069753          0.00     -0.00    102.61


     Writing output data file na.fcc.save

     init_run     :      1.36s CPU      1.48s WALL (       2 calls)
     electrons    :    133.15s CPU    146.90s WALL (       7 calls)
     update_pot   :      0.52s CPU      0.54s WALL (       5 calls)
     forces       :      0.74s CPU      0.77s WALL (       7 calls)
     stress       :      2.10s CPU      2.13s WALL (       7 calls)

     Called by init_run:
     wfcinit      :      0.84s CPU      0.91s WALL (       2 calls)
     potinit      :      0.07s CPU      0.07s WALL (       2 calls)

     Called by electrons:
     c_bands      :    113.44s CPU    125.73s WALL (      92 calls)
     sum_band     :     18.14s CPU     19.53s WALL (      92 calls)
     v_of_rho     :      0.78s CPU      0.80s WALL (      98 calls)
     newd         :      0.57s CPU      0.58s WALL (      98 calls)
     mix_rho      :      0.12s CPU      0.12s WALL (      92 calls)

     Called by c_bands:
     init_us_2    :      1.71s CPU      1.86s WALL (   38600 calls)
     cegterg      :    102.63s CPU    114.50s WALL (   17756 calls)

     Called by sum_band:
     sum_band:bec :      0.18s CPU      0.21s WALL (   17756 calls)
     addusdens    :      0.57s CPU      0.58s WALL (      92 calls)

     Called by *egterg:
     h_psi        :     69.94s CPU     76.44s WALL (   50875 calls)
     s_psi        :      0.81s CPU      0.89s WALL (   50875 calls)
     g_psi        :      0.18s CPU      0.22s WALL (   32733 calls)
     cdiaghg      :     17.55s CPU     19.84s WALL (   49331 calls)

     Called by h_psi:
     h_psi:pot    :     69.60s CPU     76.03s WALL (   50875 calls)
     h_psi:calbec :      3.72s CPU      4.03s WALL (   50875 calls)
     vloc_psi     :     64.56s CPU     70.57s WALL (   50875 calls)
     add_vuspsi   :      0.85s CPU      0.94s WALL (   50875 calls)

     General routines
     calbec       :      5.11s CPU      5.52s WALL (   75386 calls)
     fft          :      0.65s CPU      0.68s WALL (    1605 calls)
     ffts         :      0.03s CPU      0.03s WALL (     190 calls)
     fftw         :     69.36s CPU     75.60s WALL (  919738 calls)
     interpolate  :      0.09s CPU      0.10s WALL (     190 calls)
     davcio       :      0.01s CPU      0.04s WALL (     386 calls)

     Parallel routines
     fft_scatter  :     33.44s CPU     36.42s WALL (  921533 calls)

     PWSCF        :  2m37.72s CPU     2m52.37s WALL


   This run was terminated on:  22:59:40  28Jan2018            

=------------------------------------------------------------------------------=
   JOB DONE.
=------------------------------------------------------------------------------=
