
     Program PHONON v.6.1 (svn rev. 13369) starts on  1Feb2018 at  3:41:38 

     This program is part of the open-source Quantum ESPRESSO suite
     for quantum simulation of materials; please cite
         "P. Giannozzi et al., J. Phys.:Condens. Matter 21 395502 (2009);
          URL http://www.quantum-espresso.org", 
     in publications or presentations arising from this work. More details at
     http://www.quantum-espresso.org/quote

     Parallel version (MPI), running on    64 processors
     K-points division:     npool     =       4
     R & G space division:  proc/nbgrp/npool/nimage =      16

     Reading data from directory:
     ./na.fcc.save

   Info: using nr1, nr2, nr3 values from input

   Info: using nr1, nr2, nr3 values from input

     IMPORTANT: XC functional enforced from input :
     Exchange-correlation      = SLA  PW   PBE  PBE ( 1  4  3  4 0 0)
     Any further DFT definition will be discarded
     Please, verify this is what you really want


     Parallelization info
     --------------------
     sticks:   dense  smooth     PW     G-vecs:    dense   smooth      PW
     Min          69      34     11                 1519      536     101
     Max          70      35     12                 1521      539     103
     Sum        1111     559    187                24309     8609    1639



     Dynamical matrices for ( 6, 6, 6)  uniform grid of q-points
     (  16q-points):
       N         xq(1)         xq(2)         xq(3) 
       1   0.000000000   0.000000000   0.000000000
       2  -0.166666667   0.166666667  -0.166666667
       3  -0.333333333   0.333333333  -0.333333333
       4   0.500000000  -0.500000000   0.500000000
       5   0.000000000   0.333333333   0.000000000
       6  -0.166666667   0.500000000  -0.166666667
       7   0.666666667  -0.333333333   0.666666667
       8   0.500000000  -0.166666667   0.500000000
       9   0.333333333   0.000000000   0.333333333
      10   0.000000000   0.666666667   0.000000000
      11   0.833333333  -0.166666667   0.833333333
      12   0.666666667  -0.000000000   0.666666667
      13   0.000000000  -1.000000000   0.000000000
      14   0.666666667  -0.333333333   1.000000000
      15   0.500000000  -0.166666667   0.833333333
      16  -0.333333333  -1.000000000   0.000000000

     Calculation of q =    0.0000000   0.0000000   0.0000000

                                                                                

     bravais-lattice index     =            2
     lattice parameter (alat)  =      10.0200  a.u.
     unit-cell volume          =     251.5030 (a.u.)^3
     number of atoms/cell      =            1
     number of atomic types    =            1
     kinetic-energy cut-off    =      40.0000  Ry
     charge density cut-off    =     320.0000  Ry
     convergence threshold     =      1.0E-16
     beta                      =       0.7000
     number of iterations used =            4
     Exchange-correlation      = SLA  PW   PBE  PBE ( 1  4  3  4 0 0)


     celldm(1)=   10.02000  celldm(2)=    0.00000  celldm(3)=    0.00000
     celldm(4)=    0.00000  celldm(5)=    0.00000  celldm(6)=    0.00000

     crystal axes: (cart. coord. in units of alat)
               a(1) = ( -0.5000  0.0000  0.5000 )  
               a(2) = (  0.0000  0.5000  0.5000 )  
               a(3) = ( -0.5000  0.5000  0.0000 )  

     reciprocal axes: (cart. coord. in units 2 pi/alat)
               b(1) = ( -1.0000 -1.0000  1.0000 )  
               b(2) = (  1.0000  1.0000  1.0000 )  
               b(3) = ( -1.0000  1.0000 -1.0000 )  


     Atoms inside the unit cell: 

     Cartesian axes

     site n.  atom      mass           positions (alat units)
        1     Na  22.9900   tau(    1) = (    0.00000    0.00000    0.00000  )

     Computing dynamical matrix for 
                    q = (   0.0000000   0.0000000   0.0000000 )

     49 Sym.Ops. (with q -> -q+G )


     G cutoff =  813.8150  (   1520 G-vectors)     FFT grid: ( 45, 45, 45)
     G cutoff =  406.9075  (    538 G-vectors)  smooth grid: ( 30, 30, 30)

     number of k points=   770  Marzari-Vanderbilt smearing, width (Ry)=  0.0200

     PseudoPot. # 1 for Na read from file:
     /home/s1333534/quantum_espresso/qe-6.1/pseudo/Na_pbe_v1.uspp.F.UPF
     MD5 check sum: 76a99c7e9422403d3e93cbc85ab7bccb
     Pseudo is Ultrasoft, Zval =  9.0
     Generated by new atomic code, or converted to UPF format
     Using radial grid of  819 points,  5 beta functions with: 
                l(1) =   0
                l(2) =   0
                l(3) =   1
                l(4) =   1
                l(5) =   2
     Q(r) pseudized with  8 coefficients,  rinner =    1.250   1.250   1.250
                                                       1.250   1.250

     Mode symmetry, O_h (m-3m)  point group:


     Atomic displacements:
     There are   1 irreducible representations

     Representation     1      3 modes -T_1u G_15  G_4-  To be done



     Alpha used in Ewald sum =   2.8000
     PHONON       :     7.52s CPU         8.05s WALL



     Representation #  1 modes #   1  2  3

     Self-consistent Calculation

     Pert. #  1: Fermi energy shift (Ry) =     1.3786E-25    -1.8808E-37
     Pert. #  2: Fermi energy shift (Ry) =     2.2403E-25     1.7241E-37
     Pert. #  3: Fermi energy shift (Ry) =    -1.1201E-25     6.5828E-37

      iter #   1 total cpu time :    18.7 secs   av.it.:   5.4
      thresh= 1.000E-02 alpha_mix =  0.700 |ddv_scf|^2 =  8.731E-07

     Pert. #  1: Fermi energy shift (Ry) =     0.0000E+00     2.7551E-40
     Pert. #  2: Fermi energy shift (Ry) =     8.6165E-27     3.9795E-40
     Pert. #  3: Fermi energy shift (Ry) =    -4.3082E-27    -1.2245E-40

      iter #   2 total cpu time :    31.4 secs   av.it.:   8.4
      thresh= 9.344E-05 alpha_mix =  0.700 |ddv_scf|^2 =  1.633E-08

     Pert. #  1: Fermi energy shift (Ry) =     2.6926E-27     3.8265E-41
     Pert. #  2: Fermi energy shift (Ry) =    -8.8857E-27     0.0000E+00
     Pert. #  3: Fermi energy shift (Ry) =    -7.8087E-27    -5.3571E-41

      iter #   3 total cpu time :    44.2 secs   av.it.:   8.6
      thresh= 1.278E-05 alpha_mix =  0.700 |ddv_scf|^2 =  3.525E-10

     Pert. #  1: Fermi energy shift (Ry) =    -2.6926E-27    -3.8265E-41
     Pert. #  2: Fermi energy shift (Ry) =     1.8849E-27     1.1479E-41
     Pert. #  3: Fermi energy shift (Ry) =    -2.1541E-27     7.6530E-41

      iter #   4 total cpu time :    56.9 secs   av.it.:   8.1
      thresh= 1.878E-06 alpha_mix =  0.700 |ddv_scf|^2 =  1.168E-12

     Pert. #  1: Fermi energy shift (Ry) =     2.6926E-27     0.0000E+00
     Pert. #  2: Fermi energy shift (Ry) =    -9.4243E-27    -1.1958E-42
     Pert. #  3: Fermi energy shift (Ry) =     1.7502E-26    -4.7831E-43

      iter #   5 total cpu time :    69.8 secs   av.it.:   8.5
      thresh= 1.081E-07 alpha_mix =  0.700 |ddv_scf|^2 =  2.424E-15

     Pert. #  1: Fermi energy shift (Ry) =    -9.1550E-27    -2.3915E-43
     Pert. #  2: Fermi energy shift (Ry) =    -1.0771E-27    -4.7831E-43
     Pert. #  3: Fermi energy shift (Ry) =    -5.3853E-28     4.7831E-43

      iter #   6 total cpu time :    82.2 secs   av.it.:   8.1
      thresh= 4.924E-09 alpha_mix =  0.700 |ddv_scf|^2 =  5.983E-17

     End of self-consistent calculation

     Convergence has been achieved 

     Number of q in the star =    1
     List of q in the star:
          1   0.000000000   0.000000000   0.000000000

     Diagonalizing the dynamical matrix

     q = (    0.000000000   0.000000000   0.000000000 ) 

 **************************************************************************
     freq (    1) =      -0.413318 [THz] =     -13.786815 [cm-1]
     freq (    2) =      -0.413318 [THz] =     -13.786815 [cm-1]
     freq (    3) =      -0.413318 [THz] =     -13.786815 [cm-1]
 **************************************************************************

     Mode symmetry, O_h (m-3m)  point group:

     freq (  1 -  3) =        -13.8  [cm-1]   --> T_1u G_15  G_4- I  

     Calculation of q =   -0.1666667   0.1666667  -0.1666667

   Info: using nr1, nr2, nr3 values from input

   Info: using nr1, nr2, nr3 values from input

     Parallelization info
     --------------------
     sticks:   dense  smooth     PW     G-vecs:    dense   smooth      PW
     Min          69      34     12                 1519      536     112
     Max          70      35     13                 1521      539     114
     Sum        1111     559    199                24309     8609    1807



     bravais-lattice index     =            2
     lattice parameter (alat)  =      10.0200  a.u.
     unit-cell volume          =     251.5030 (a.u.)^3
     number of atoms/cell      =            1
     number of atomic types    =            1
     number of electrons       =         9.00
     number of Kohn-Sham states=            9
     kinetic-energy cutoff     =      40.0000  Ry
     charge density cutoff     =     320.0000  Ry
     Exchange-correlation      = SLA  PW   PBE  PBE ( 1  4  3  4 0 0)

     celldm(1)=  10.020000  celldm(2)=   0.000000  celldm(3)=   0.000000
     celldm(4)=   0.000000  celldm(5)=   0.000000  celldm(6)=   0.000000

     crystal axes: (cart. coord. in units of alat)
               a(1) = (  -0.500000   0.000000   0.500000 )  
               a(2) = (   0.000000   0.500000   0.500000 )  
               a(3) = (  -0.500000   0.500000   0.000000 )  

     reciprocal axes: (cart. coord. in units 2 pi/alat)
               b(1) = ( -1.000000 -1.000000  1.000000 )  
               b(2) = (  1.000000  1.000000  1.000000 )  
               b(3) = ( -1.000000  1.000000 -1.000000 )  


     PseudoPot. # 1 for Na read from file:
     /home/s1333534/quantum_espresso/qe-6.1/pseudo/Na_pbe_v1.uspp.F.UPF
     MD5 check sum: 76a99c7e9422403d3e93cbc85ab7bccb
     Pseudo is Ultrasoft, Zval =  9.0
     Generated by new atomic code, or converted to UPF format
     Using radial grid of  819 points,  5 beta functions with: 
                l(1) =   0
                l(2) =   0
                l(3) =   1
                l(4) =   1
                l(5) =   2
     Q(r) pseudized with  8 coefficients,  rinner =    1.250   1.250   1.250
                                                       1.250   1.250

     atomic species   valence    mass     pseudopotential
        Na             9.00    22.99000     Na( 1.00)

     48 Sym. Ops., with inversion, found



   Cartesian axes

     site n.     atom                  positions (alat units)
         1           Na  tau(   1) = (   0.0000000   0.0000000   0.0000000  )

     number of k points= 11480  Marzari-Vanderbilt smearing, width (Ry)=  0.0200

     Number of k-points >= 100: set verbosity='high' to print them.

     Dense  grid:    24309 G-vectors     FFT dimensions: (  45,  45,  45)

     Smooth grid:     8609 G-vectors     FFT dimensions: (  30,  30,  30)

     Estimated max dynamical RAM per process >       0.83MB

     Estimated total allocated dynamical RAM >      53.41MB

     The potential is recalculated from file :
     ./_ph0/na.fcc.save/charge-density.dat

     Starting wfc are    5 atomic +    4 random wfc

     Band Structure Calculation
     Davidson diagonalization with overlap

     ethr =  1.11E-10,  avg # of iterations = 20.1

     total cpu time spent up to now is      199.3 secs

     End of band structure calculation

     Number of k-points >= 100: set verbosity='high' to print the bands.

     the Fermi energy is     1.5817 ev

     Writing output data file na.fcc.save

                                                                                

     bravais-lattice index     =            2
     lattice parameter (alat)  =      10.0200  a.u.
     unit-cell volume          =     251.5030 (a.u.)^3
     number of atoms/cell      =            1
     number of atomic types    =            1
     kinetic-energy cut-off    =      40.0000  Ry
     charge density cut-off    =     320.0000  Ry
     convergence threshold     =      1.0E-16
     beta                      =       0.7000
     number of iterations used =            4
     Exchange-correlation      = SLA  PW   PBE  PBE ( 1  4  3  4 0 0)


     celldm(1)=   10.02000  celldm(2)=    0.00000  celldm(3)=    0.00000
     celldm(4)=    0.00000  celldm(5)=    0.00000  celldm(6)=    0.00000

     crystal axes: (cart. coord. in units of alat)
               a(1) = ( -0.5000  0.0000  0.5000 )  
               a(2) = (  0.0000  0.5000  0.5000 )  
               a(3) = ( -0.5000  0.5000  0.0000 )  

     reciprocal axes: (cart. coord. in units 2 pi/alat)
               b(1) = ( -1.0000 -1.0000  1.0000 )  
               b(2) = (  1.0000  1.0000  1.0000 )  
               b(3) = ( -1.0000  1.0000 -1.0000 )  


     Atoms inside the unit cell: 

     Cartesian axes

     site n.  atom      mass           positions (alat units)
        1     Na  22.9900   tau(    1) = (    0.00000    0.00000    0.00000  )

     Computing dynamical matrix for 
                    q = (  -0.1666667   0.1666667  -0.1666667 )

      6 Sym.Ops. (no q -> -q+G )


     G cutoff =  813.8150  (   1520 G-vectors)     FFT grid: ( 45, 45, 45)
     G cutoff =  406.9075  (    538 G-vectors)  smooth grid: ( 30, 30, 30)

     number of k points= 11480  Marzari-Vanderbilt smearing, width (Ry)=  0.0200

     PseudoPot. # 1 for Na read from file:
     /home/s1333534/quantum_espresso/qe-6.1/pseudo/Na_pbe_v1.uspp.F.UPF
     MD5 check sum: 76a99c7e9422403d3e93cbc85ab7bccb
     Pseudo is Ultrasoft, Zval =  9.0
     Generated by new atomic code, or converted to UPF format
     Using radial grid of  819 points,  5 beta functions with: 
                l(1) =   0
                l(2) =   0
                l(3) =   1
                l(4) =   1
                l(5) =   2
     Q(r) pseudized with  8 coefficients,  rinner =    1.250   1.250   1.250
                                                       1.250   1.250

     Mode symmetry, C_3v (3m)   point group:


     Atomic displacements:
     There are   2 irreducible representations

     Representation     1      1 modes -A_1  L_1  To be done

     Representation     2      2 modes -E    L_3  To be done



     Alpha used in Ewald sum =   2.8000
     PHONON       :  5m 7.31s CPU     5m24.95s WALL



     Representation #  1 mode #   1

     Self-consistent Calculation

      iter #   1 total cpu time :   350.0 secs   av.it.:   5.7
      thresh= 1.000E-02 alpha_mix =  0.700 |ddv_scf|^2 =  2.362E-02

      iter #   2 total cpu time :   373.5 secs   av.it.:   6.4
      thresh= 1.000E-02 alpha_mix =  0.700 |ddv_scf|^2 =  3.954E+00

      iter #   3 total cpu time :   396.8 secs   av.it.:   6.4
      thresh= 1.000E-02 alpha_mix =  0.700 |ddv_scf|^2 =  1.308E-07

      iter #   4 total cpu time :   425.5 secs   av.it.:   8.4
      thresh= 3.617E-05 alpha_mix =  0.700 |ddv_scf|^2 =  3.480E-08

      iter #   5 total cpu time :   453.0 secs   av.it.:   7.6
      thresh= 1.866E-05 alpha_mix =  0.700 |ddv_scf|^2 =  3.255E-09

      iter #   6 total cpu time :   478.7 secs   av.it.:   7.6
      thresh= 5.706E-06 alpha_mix =  0.700 |ddv_scf|^2 =  3.820E-08

      iter #   7 total cpu time :   497.7 secs   av.it.:   4.2
      thresh= 1.955E-05 alpha_mix =  0.700 |ddv_scf|^2 =  1.754E-10

      iter #   8 total cpu time :   525.0 secs   av.it.:   7.8
      thresh= 1.324E-06 alpha_mix =  0.700 |ddv_scf|^2 =  1.951E-11

      iter #   9 total cpu time :   550.6 secs   av.it.:   7.4
      thresh= 4.416E-07 alpha_mix =  0.700 |ddv_scf|^2 =  1.126E-12

      iter #  10 total cpu time :   575.8 secs   av.it.:   7.3
      thresh= 1.061E-07 alpha_mix =  0.700 |ddv_scf|^2 =  1.321E-13

      iter #  11 total cpu time :   601.8 secs   av.it.:   7.3
      thresh= 3.635E-08 alpha_mix =  0.700 |ddv_scf|^2 =  4.540E-16

      iter #  12 total cpu time :   629.3 secs   av.it.:   7.9
      thresh= 2.131E-09 alpha_mix =  0.700 |ddv_scf|^2 =  6.532E-16

      iter #  13 total cpu time :   651.9 secs   av.it.:   6.2
      thresh= 2.556E-09 alpha_mix =  0.700 |ddv_scf|^2 =  2.918E-15

      iter #  14 total cpu time :   674.7 secs   av.it.:   6.5
      thresh= 5.402E-09 alpha_mix =  0.700 |ddv_scf|^2 =  2.072E-18

     End of self-consistent calculation

     Convergence has been achieved 


     Representation #  2 modes #   2  3

     Self-consistent Calculation

      iter #   1 total cpu time :   723.3 secs   av.it.:   5.5
      thresh= 1.000E-02 alpha_mix =  0.700 |ddv_scf|^2 =  1.997E-06

      iter #   2 total cpu time :   780.8 secs   av.it.:   8.5
      thresh= 1.413E-04 alpha_mix =  0.700 |ddv_scf|^2 =  3.653E-08

      iter #   3 total cpu time :   838.4 secs   av.it.:   8.6
      thresh= 1.911E-05 alpha_mix =  0.700 |ddv_scf|^2 =  8.982E-10

      iter #   4 total cpu time :   895.5 secs   av.it.:   8.5
      thresh= 2.997E-06 alpha_mix =  0.700 |ddv_scf|^2 =  2.976E-12

      iter #   5 total cpu time :   954.2 secs   av.it.:   8.7
      thresh= 1.725E-07 alpha_mix =  0.700 |ddv_scf|^2 =  5.416E-15

      iter #   6 total cpu time :  1010.6 secs   av.it.:   8.1
      thresh= 7.359E-09 alpha_mix =  0.700 |ddv_scf|^2 =  1.721E-16

      iter #   7 total cpu time :  1069.9 secs   av.it.:   8.6
      thresh= 1.312E-09 alpha_mix =  0.700 |ddv_scf|^2 =  1.488E-19

     End of self-consistent calculation

     Convergence has been achieved 

     Number of q in the star =    8
     List of q in the star:
          1  -0.166666667   0.166666667  -0.166666667
          2   0.166666667   0.166666667   0.166666667
          3  -0.166666667  -0.166666667  -0.166666667
          4   0.166666667  -0.166666667   0.166666667
          5   0.166666667  -0.166666667  -0.166666667
          6   0.166666667   0.166666667  -0.166666667
          7  -0.166666667  -0.166666667   0.166666667
          8  -0.166666667   0.166666667   0.166666667

     Diagonalizing the dynamical matrix

     q = (   -0.166666667   0.166666667  -0.166666667 ) 

 **************************************************************************
     freq (    1) =       0.827693 [THz] =      27.608853 [cm-1]
     freq (    2) =       0.827693 [THz] =      27.608853 [cm-1]
     freq (    3) =       2.003669 [THz] =      66.835199 [cm-1]
 **************************************************************************

     Mode symmetry, C_3v (3m)   point group:

     freq (  1 -  2) =         27.6  [cm-1]   --> E    L_3           
     freq (  3 -  3) =         66.8  [cm-1]   --> A_1  L_1           

     Calculation of q =   -0.3333333   0.3333333  -0.3333333

   Info: using nr1, nr2, nr3 values from input

   Info: using nr1, nr2, nr3 values from input

     Parallelization info
     --------------------
     sticks:   dense  smooth     PW     G-vecs:    dense   smooth      PW
     Min          69      34     12                 1519      536     118
     Max          70      35     13                 1521      539     122
     Sum        1111     559    199                24309     8609    1917



     bravais-lattice index     =            2
     lattice parameter (alat)  =      10.0200  a.u.
     unit-cell volume          =     251.5030 (a.u.)^3
     number of atoms/cell      =            1
     number of atomic types    =            1
     number of electrons       =         9.00
     number of Kohn-Sham states=            9
     kinetic-energy cutoff     =      40.0000  Ry
     charge density cutoff     =     320.0000  Ry
     Exchange-correlation      = SLA  PW   PBE  PBE ( 1  4  3  4 0 0)

     celldm(1)=  10.020000  celldm(2)=   0.000000  celldm(3)=   0.000000
     celldm(4)=   0.000000  celldm(5)=   0.000000  celldm(6)=   0.000000

     crystal axes: (cart. coord. in units of alat)
               a(1) = (  -0.500000   0.000000   0.500000 )  
               a(2) = (   0.000000   0.500000   0.500000 )  
               a(3) = (  -0.500000   0.500000   0.000000 )  

     reciprocal axes: (cart. coord. in units 2 pi/alat)
               b(1) = ( -1.000000 -1.000000  1.000000 )  
               b(2) = (  1.000000  1.000000  1.000000 )  
               b(3) = ( -1.000000  1.000000 -1.000000 )  


     PseudoPot. # 1 for Na read from file:
     /home/s1333534/quantum_espresso/qe-6.1/pseudo/Na_pbe_v1.uspp.F.UPF
     MD5 check sum: 76a99c7e9422403d3e93cbc85ab7bccb
     Pseudo is Ultrasoft, Zval =  9.0
     Generated by new atomic code, or converted to UPF format
     Using radial grid of  819 points,  5 beta functions with: 
                l(1) =   0
                l(2) =   0
                l(3) =   1
                l(4) =   1
                l(5) =   2
     Q(r) pseudized with  8 coefficients,  rinner =    1.250   1.250   1.250
                                                       1.250   1.250

     atomic species   valence    mass     pseudopotential
        Na             9.00    22.99000     Na( 1.00)

     48 Sym. Ops., with inversion, found



   Cartesian axes

     site n.     atom                  positions (alat units)
         1           Na  tau(   1) = (   0.0000000   0.0000000   0.0000000  )

     number of k points= 11480  Marzari-Vanderbilt smearing, width (Ry)=  0.0200

     Number of k-points >= 100: set verbosity='high' to print them.

     Dense  grid:    24309 G-vectors     FFT dimensions: (  45,  45,  45)

     Smooth grid:     8609 G-vectors     FFT dimensions: (  30,  30,  30)

     Estimated max dynamical RAM per process >       0.83MB

     Estimated total allocated dynamical RAM >      53.41MB

     The potential is recalculated from file :
     ./_ph0/na.fcc.save/charge-density.dat

     Starting wfc are    5 atomic +    4 random wfc

     Band Structure Calculation
     Davidson diagonalization with overlap

     ethr =  1.11E-10,  avg # of iterations = 20.0

     total cpu time spent up to now is      429.0 secs

     End of band structure calculation

     Number of k-points >= 100: set verbosity='high' to print the bands.

     the Fermi energy is     1.5817 ev

     Writing output data file na.fcc.save

                                                                                

     bravais-lattice index     =            2
     lattice parameter (alat)  =      10.0200  a.u.
     unit-cell volume          =     251.5030 (a.u.)^3
     number of atoms/cell      =            1
     number of atomic types    =            1
     kinetic-energy cut-off    =      40.0000  Ry
     charge density cut-off    =     320.0000  Ry
     convergence threshold     =      1.0E-16
     beta                      =       0.7000
     number of iterations used =            4
     Exchange-correlation      = SLA  PW   PBE  PBE ( 1  4  3  4 0 0)


     celldm(1)=   10.02000  celldm(2)=    0.00000  celldm(3)=    0.00000
     celldm(4)=    0.00000  celldm(5)=    0.00000  celldm(6)=    0.00000

     crystal axes: (cart. coord. in units of alat)
               a(1) = ( -0.5000  0.0000  0.5000 )  
               a(2) = (  0.0000  0.5000  0.5000 )  
               a(3) = ( -0.5000  0.5000  0.0000 )  

     reciprocal axes: (cart. coord. in units 2 pi/alat)
               b(1) = ( -1.0000 -1.0000  1.0000 )  
               b(2) = (  1.0000  1.0000  1.0000 )  
               b(3) = ( -1.0000  1.0000 -1.0000 )  


     Atoms inside the unit cell: 

     Cartesian axes

     site n.  atom      mass           positions (alat units)
        1     Na  22.9900   tau(    1) = (    0.00000    0.00000    0.00000  )

     Computing dynamical matrix for 
                    q = (  -0.3333333   0.3333333  -0.3333333 )

      6 Sym.Ops. (no q -> -q+G )


     G cutoff =  813.8150  (   1520 G-vectors)     FFT grid: ( 45, 45, 45)
     G cutoff =  406.9075  (    538 G-vectors)  smooth grid: ( 30, 30, 30)

     number of k points= 11480  Marzari-Vanderbilt smearing, width (Ry)=  0.0200

     PseudoPot. # 1 for Na read from file:
     /home/s1333534/quantum_espresso/qe-6.1/pseudo/Na_pbe_v1.uspp.F.UPF
     MD5 check sum: 76a99c7e9422403d3e93cbc85ab7bccb
     Pseudo is Ultrasoft, Zval =  9.0
     Generated by new atomic code, or converted to UPF format
     Using radial grid of  819 points,  5 beta functions with: 
                l(1) =   0
                l(2) =   0
                l(3) =   1
                l(4) =   1
                l(5) =   2
     Q(r) pseudized with  8 coefficients,  rinner =    1.250   1.250   1.250
                                                       1.250   1.250

     Mode symmetry, C_3v (3m)   point group:


     Atomic displacements:
     There are   2 irreducible representations

     Representation     1      1 modes -A_1  L_1  To be done

     Representation     2      2 modes -E    L_3  To be done



     Alpha used in Ewald sum =   2.8000
     PHONON       : 20m17.27s CPU    21m50.27s WALL



     Representation #  1 mode #   1

     Self-consistent Calculation

      iter #   1 total cpu time :  1335.3 secs   av.it.:   5.7
      thresh= 1.000E-02 alpha_mix =  0.700 |ddv_scf|^2 =  3.969E-04

      iter #   2 total cpu time :  1360.2 secs   av.it.:   6.8
      thresh= 1.992E-03 alpha_mix =  0.700 |ddv_scf|^2 =  2.650E-03

      iter #   3 total cpu time :  1382.5 secs   av.it.:   5.8
      thresh= 5.148E-03 alpha_mix =  0.700 |ddv_scf|^2 =  4.380E-07

      iter #   4 total cpu time :  1411.0 secs   av.it.:   7.8
      thresh= 6.618E-05 alpha_mix =  0.700 |ddv_scf|^2 =  7.449E-09

      iter #   5 total cpu time :  1439.9 secs   av.it.:   8.4
      thresh= 8.631E-06 alpha_mix =  0.700 |ddv_scf|^2 =  2.745E-10

      iter #   6 total cpu time :  1468.1 secs   av.it.:   8.3
      thresh= 1.657E-06 alpha_mix =  0.700 |ddv_scf|^2 =  1.680E-11

      iter #   7 total cpu time :  1495.8 secs   av.it.:   8.0
      thresh= 4.098E-07 alpha_mix =  0.700 |ddv_scf|^2 =  5.453E-13

      iter #   8 total cpu time :  1523.9 secs   av.it.:   8.2
      thresh= 7.384E-08 alpha_mix =  0.700 |ddv_scf|^2 =  5.322E-14

      iter #   9 total cpu time :  1550.0 secs   av.it.:   7.2
      thresh= 2.307E-08 alpha_mix =  0.700 |ddv_scf|^2 =  2.132E-13

      iter #  10 total cpu time :  1573.9 secs   av.it.:   6.7
      thresh= 4.618E-08 alpha_mix =  0.700 |ddv_scf|^2 =  1.402E-15

      iter #  11 total cpu time :  1600.3 secs   av.it.:   7.7
      thresh= 3.745E-09 alpha_mix =  0.700 |ddv_scf|^2 =  3.173E-17

     End of self-consistent calculation

     Convergence has been achieved 


     Representation #  2 modes #   2  3

     Self-consistent Calculation

      iter #   1 total cpu time :  1648.6 secs   av.it.:   5.6
      thresh= 1.000E-02 alpha_mix =  0.700 |ddv_scf|^2 =  2.058E-06

      iter #   2 total cpu time :  1706.3 secs   av.it.:   8.5
      thresh= 1.435E-04 alpha_mix =  0.700 |ddv_scf|^2 =  3.623E-08

      iter #   3 total cpu time :  1765.5 secs   av.it.:   8.7
      thresh= 1.903E-05 alpha_mix =  0.700 |ddv_scf|^2 =  1.092E-09

      iter #   4 total cpu time :  1823.0 secs   av.it.:   8.5
      thresh= 3.304E-06 alpha_mix =  0.700 |ddv_scf|^2 =  3.614E-12

      iter #   5 total cpu time :  1882.0 secs   av.it.:   8.7
      thresh= 1.901E-07 alpha_mix =  0.700 |ddv_scf|^2 =  5.639E-15

      iter #   6 total cpu time :  1938.0 secs   av.it.:   7.9
      thresh= 7.510E-09 alpha_mix =  0.700 |ddv_scf|^2 =  2.355E-16

      iter #   7 total cpu time :  1997.3 secs   av.it.:   8.7
      thresh= 1.534E-09 alpha_mix =  0.700 |ddv_scf|^2 =  2.422E-19

     End of self-consistent calculation

     Convergence has been achieved 

     Number of q in the star =    8
     List of q in the star:
          1  -0.333333333   0.333333333  -0.333333333
          2   0.333333333   0.333333333   0.333333333
          3  -0.333333333  -0.333333333  -0.333333333
          4   0.333333333  -0.333333333   0.333333333
          5   0.333333333  -0.333333333  -0.333333333
          6   0.333333333   0.333333333  -0.333333333
          7  -0.333333333  -0.333333333   0.333333333
          8  -0.333333333   0.333333333   0.333333333

     Diagonalizing the dynamical matrix

     q = (   -0.333333333   0.333333333  -0.333333333 ) 

 **************************************************************************
     freq (    1) =       1.441965 [THz] =      48.098767 [cm-1]
     freq (    2) =       1.441965 [THz] =      48.098767 [cm-1]
     freq (    3) =       3.386543 [THz] =     112.962921 [cm-1]
 **************************************************************************

     Mode symmetry, C_3v (3m)   point group:

     freq (  1 -  2) =         48.1  [cm-1]   --> E    L_3           
     freq (  3 -  3) =        113.0  [cm-1]   --> A_1  L_1           

     Calculation of q =    0.5000000  -0.5000000   0.5000000

   Info: using nr1, nr2, nr3 values from input

   Info: using nr1, nr2, nr3 values from input

     Parallelization info
     --------------------
     sticks:   dense  smooth     PW     G-vecs:    dense   smooth      PW
     Min          69      34     13                 1519      536     129
     Max          70      35     14                 1521      539     132
     Sum        1111     559    211                24309     8609    2085



     bravais-lattice index     =            2
     lattice parameter (alat)  =      10.0200  a.u.
     unit-cell volume          =     251.5030 (a.u.)^3
     number of atoms/cell      =            1
     number of atomic types    =            1
     number of electrons       =         9.00
     number of Kohn-Sham states=            9
     kinetic-energy cutoff     =      40.0000  Ry
     charge density cutoff     =     320.0000  Ry
     Exchange-correlation      = SLA  PW   PBE  PBE ( 1  4  3  4 0 0)

     celldm(1)=  10.020000  celldm(2)=   0.000000  celldm(3)=   0.000000
     celldm(4)=   0.000000  celldm(5)=   0.000000  celldm(6)=   0.000000

     crystal axes: (cart. coord. in units of alat)
               a(1) = (  -0.500000   0.000000   0.500000 )  
               a(2) = (   0.000000   0.500000   0.500000 )  
               a(3) = (  -0.500000   0.500000   0.000000 )  

     reciprocal axes: (cart. coord. in units 2 pi/alat)
               b(1) = ( -1.000000 -1.000000  1.000000 )  
               b(2) = (  1.000000  1.000000  1.000000 )  
               b(3) = ( -1.000000  1.000000 -1.000000 )  


     PseudoPot. # 1 for Na read from file:
     /home/s1333534/quantum_espresso/qe-6.1/pseudo/Na_pbe_v1.uspp.F.UPF
     MD5 check sum: 76a99c7e9422403d3e93cbc85ab7bccb
     Pseudo is Ultrasoft, Zval =  9.0
     Generated by new atomic code, or converted to UPF format
     Using radial grid of  819 points,  5 beta functions with: 
                l(1) =   0
                l(2) =   0
                l(3) =   1
                l(4) =   1
                l(5) =   2
     Q(r) pseudized with  8 coefficients,  rinner =    1.250   1.250   1.250
                                                       1.250   1.250

     atomic species   valence    mass     pseudopotential
        Na             9.00    22.99000     Na( 1.00)

     48 Sym. Ops., with inversion, found



   Cartesian axes

     site n.     atom                  positions (alat units)
         1           Na  tau(   1) = (   0.0000000   0.0000000   0.0000000  )

     number of k points=  5740  Marzari-Vanderbilt smearing, width (Ry)=  0.0200

     Number of k-points >= 100: set verbosity='high' to print them.

     Dense  grid:    24309 G-vectors     FFT dimensions: (  45,  45,  45)

     Smooth grid:     8609 G-vectors     FFT dimensions: (  30,  30,  30)

     Estimated max dynamical RAM per process >       0.83MB

     Estimated total allocated dynamical RAM >      53.41MB

     The potential is recalculated from file :
     ./_ph0/na.fcc.save/charge-density.dat

     Starting wfc are    5 atomic +    4 random wfc

     Band Structure Calculation
     Davidson diagonalization with overlap

     ethr =  1.11E-10,  avg # of iterations = 20.1

     total cpu time spent up to now is      562.3 secs

     End of band structure calculation

     Number of k-points >= 100: set verbosity='high' to print the bands.

     the Fermi energy is     1.5817 ev

     Writing output data file na.fcc.save

                                                                                

     bravais-lattice index     =            2
     lattice parameter (alat)  =      10.0200  a.u.
     unit-cell volume          =     251.5030 (a.u.)^3
     number of atoms/cell      =            1
     number of atomic types    =            1
     kinetic-energy cut-off    =      40.0000  Ry
     charge density cut-off    =     320.0000  Ry
     convergence threshold     =      1.0E-16
     beta                      =       0.7000
     number of iterations used =            4
     Exchange-correlation      = SLA  PW   PBE  PBE ( 1  4  3  4 0 0)


     celldm(1)=   10.02000  celldm(2)=    0.00000  celldm(3)=    0.00000
     celldm(4)=    0.00000  celldm(5)=    0.00000  celldm(6)=    0.00000

     crystal axes: (cart. coord. in units of alat)
               a(1) = ( -0.5000  0.0000  0.5000 )  
               a(2) = (  0.0000  0.5000  0.5000 )  
               a(3) = ( -0.5000  0.5000  0.0000 )  

     reciprocal axes: (cart. coord. in units 2 pi/alat)
               b(1) = ( -1.0000 -1.0000  1.0000 )  
               b(2) = (  1.0000  1.0000  1.0000 )  
               b(3) = ( -1.0000  1.0000 -1.0000 )  


     Atoms inside the unit cell: 

     Cartesian axes

     site n.  atom      mass           positions (alat units)
        1     Na  22.9900   tau(    1) = (    0.00000    0.00000    0.00000  )

     Computing dynamical matrix for 
                    q = (   0.5000000  -0.5000000   0.5000000 )

     13 Sym.Ops. (with q -> -q+G )


     G cutoff =  813.8150  (   1520 G-vectors)     FFT grid: ( 45, 45, 45)
     G cutoff =  406.9075  (    538 G-vectors)  smooth grid: ( 30, 30, 30)

     number of k points=  5740  Marzari-Vanderbilt smearing, width (Ry)=  0.0200

     PseudoPot. # 1 for Na read from file:
     /home/s1333534/quantum_espresso/qe-6.1/pseudo/Na_pbe_v1.uspp.F.UPF
     MD5 check sum: 76a99c7e9422403d3e93cbc85ab7bccb
     Pseudo is Ultrasoft, Zval =  9.0
     Generated by new atomic code, or converted to UPF format
     Using radial grid of  819 points,  5 beta functions with: 
                l(1) =   0
                l(2) =   0
                l(3) =   1
                l(4) =   1
                l(5) =   2
     Q(r) pseudized with  8 coefficients,  rinner =    1.250   1.250   1.250
                                                       1.250   1.250

     Mode symmetry, D_3d (-3m)  point group:


     Atomic displacements:
     There are   2 irreducible representations

     Representation     1      1 modes -A_2u L_2'  To be done

     Representation     2      2 modes -E_u  L_3'  To be done



     Alpha used in Ewald sum =   2.8000
     PHONON       : 32m45.82s CPU    35m20.81s WALL



     Representation #  1 mode #   1

     Self-consistent Calculation

      iter #   1 total cpu time :  2133.9 secs   av.it.:   5.7
      thresh= 1.000E-02 alpha_mix =  0.700 |ddv_scf|^2 =  7.933E-05

      iter #   2 total cpu time :  2147.5 secs   av.it.:   6.9
      thresh= 8.906E-04 alpha_mix =  0.700 |ddv_scf|^2 =  4.938E-05

      iter #   3 total cpu time :  2160.4 secs   av.it.:   6.7
      thresh= 7.027E-04 alpha_mix =  0.700 |ddv_scf|^2 =  6.120E-08

      iter #   4 total cpu time :  2175.2 secs   av.it.:   8.0
      thresh= 2.474E-05 alpha_mix =  0.700 |ddv_scf|^2 =  2.530E-10

      iter #   5 total cpu time :  2188.5 secs   av.it.:   7.1
      thresh= 1.591E-06 alpha_mix =  0.700 |ddv_scf|^2 =  4.987E-12

      iter #   6 total cpu time :  2201.3 secs   av.it.:   6.8
      thresh= 2.233E-07 alpha_mix =  0.700 |ddv_scf|^2 =  1.440E-14

      iter #   7 total cpu time :  2215.6 secs   av.it.:   7.6
      thresh= 1.200E-08 alpha_mix =  0.700 |ddv_scf|^2 =  3.011E-17

     End of self-consistent calculation

     Convergence has been achieved 


     Representation #  2 modes #   2  3

     Self-consistent Calculation

      iter #   1 total cpu time :  2240.8 secs   av.it.:   5.4
      thresh= 1.000E-02 alpha_mix =  0.700 |ddv_scf|^2 =  2.087E-06

      iter #   2 total cpu time :  2270.7 secs   av.it.:   8.4
      thresh= 1.444E-04 alpha_mix =  0.700 |ddv_scf|^2 =  3.607E-08

      iter #   3 total cpu time :  2300.4 secs   av.it.:   8.6
      thresh= 1.899E-05 alpha_mix =  0.700 |ddv_scf|^2 =  1.168E-09

      iter #   4 total cpu time :  2329.2 secs   av.it.:   8.0
      thresh= 3.418E-06 alpha_mix =  0.700 |ddv_scf|^2 =  3.903E-12

      iter #   5 total cpu time :  2358.8 secs   av.it.:   8.3
      thresh= 1.976E-07 alpha_mix =  0.700 |ddv_scf|^2 =  5.828E-15

      iter #   6 total cpu time :  2386.2 secs   av.it.:   7.6
      thresh= 7.634E-09 alpha_mix =  0.700 |ddv_scf|^2 =  2.595E-16

      iter #   7 total cpu time :  2415.2 secs   av.it.:   8.4
      thresh= 1.611E-09 alpha_mix =  0.700 |ddv_scf|^2 =  2.385E-19

     End of self-consistent calculation

     Convergence has been achieved 

     Number of q in the star =    4
     List of q in the star:
          1   0.500000000  -0.500000000   0.500000000
          2   0.500000000   0.500000000   0.500000000
          3  -0.500000000   0.500000000   0.500000000
          4   0.500000000   0.500000000  -0.500000000

     Diagonalizing the dynamical matrix

     q = (    0.500000000  -0.500000000   0.500000000 ) 

 **************************************************************************
     freq (    1) =       1.694538 [THz] =      56.523699 [cm-1]
     freq (    2) =       1.694538 [THz] =      56.523699 [cm-1]
     freq (    3) =       3.886213 [THz] =     129.630124 [cm-1]
 **************************************************************************

     Mode symmetry, D_3d (-3m)  point group:

     freq (  1 -  2) =         56.5  [cm-1]   --> E_u  L_3'          
     freq (  3 -  3) =        129.6  [cm-1]   --> A_2u L_2'          

     Calculation of q =    0.0000000   0.3333333   0.0000000

   Info: using nr1, nr2, nr3 values from input

   Info: using nr1, nr2, nr3 values from input

     Parallelization info
     --------------------
     sticks:   dense  smooth     PW     G-vecs:    dense   smooth      PW
     Min          69      34     12                 1519      536     112
     Max          70      35     13                 1521      539     114
     Sum        1111     559    199                24309     8609    1807



     bravais-lattice index     =            2
     lattice parameter (alat)  =      10.0200  a.u.
     unit-cell volume          =     251.5030 (a.u.)^3
     number of atoms/cell      =            1
     number of atomic types    =            1
     number of electrons       =         9.00
     number of Kohn-Sham states=            9
     kinetic-energy cutoff     =      40.0000  Ry
     charge density cutoff     =     320.0000  Ry
     Exchange-correlation      = SLA  PW   PBE  PBE ( 1  4  3  4 0 0)

     celldm(1)=  10.020000  celldm(2)=   0.000000  celldm(3)=   0.000000
     celldm(4)=   0.000000  celldm(5)=   0.000000  celldm(6)=   0.000000

     crystal axes: (cart. coord. in units of alat)
               a(1) = (  -0.500000   0.000000   0.500000 )  
               a(2) = (   0.000000   0.500000   0.500000 )  
               a(3) = (  -0.500000   0.500000   0.000000 )  

     reciprocal axes: (cart. coord. in units 2 pi/alat)
               b(1) = ( -1.000000 -1.000000  1.000000 )  
               b(2) = (  1.000000  1.000000  1.000000 )  
               b(3) = ( -1.000000  1.000000 -1.000000 )  


     PseudoPot. # 1 for Na read from file:
     /home/s1333534/quantum_espresso/qe-6.1/pseudo/Na_pbe_v1.uspp.F.UPF
     MD5 check sum: 76a99c7e9422403d3e93cbc85ab7bccb
     Pseudo is Ultrasoft, Zval =  9.0
     Generated by new atomic code, or converted to UPF format
     Using radial grid of  819 points,  5 beta functions with: 
                l(1) =   0
                l(2) =   0
                l(3) =   1
                l(4) =   1
                l(5) =   2
     Q(r) pseudized with  8 coefficients,  rinner =    1.250   1.250   1.250
                                                       1.250   1.250

     atomic species   valence    mass     pseudopotential
        Na             9.00    22.99000     Na( 1.00)

     48 Sym. Ops., with inversion, found



   Cartesian axes

     site n.     atom                  positions (alat units)
         1           Na  tau(   1) = (   0.0000000   0.0000000   0.0000000  )

     number of k points=  8400  Marzari-Vanderbilt smearing, width (Ry)=  0.0200

     Number of k-points >= 100: set verbosity='high' to print them.

     Dense  grid:    24309 G-vectors     FFT dimensions: (  45,  45,  45)

     Smooth grid:     8609 G-vectors     FFT dimensions: (  30,  30,  30)

     Estimated max dynamical RAM per process >       0.83MB

     Estimated total allocated dynamical RAM >      53.41MB

     The potential is recalculated from file :
     ./_ph0/na.fcc.save/charge-density.dat

     Starting wfc are    5 atomic +    4 random wfc

     Band Structure Calculation
     Davidson diagonalization with overlap

     ethr =  1.11E-10,  avg # of iterations = 20.0

     total cpu time spent up to now is      721.9 secs

     End of band structure calculation

     Number of k-points >= 100: set verbosity='high' to print the bands.

     the Fermi energy is     1.5817 ev

     Writing output data file na.fcc.save

                                                                                

     bravais-lattice index     =            2
     lattice parameter (alat)  =      10.0200  a.u.
     unit-cell volume          =     251.5030 (a.u.)^3
     number of atoms/cell      =            1
     number of atomic types    =            1
     kinetic-energy cut-off    =      40.0000  Ry
     charge density cut-off    =     320.0000  Ry
     convergence threshold     =      1.0E-16
     beta                      =       0.7000
     number of iterations used =            4
     Exchange-correlation      = SLA  PW   PBE  PBE ( 1  4  3  4 0 0)


     celldm(1)=   10.02000  celldm(2)=    0.00000  celldm(3)=    0.00000
     celldm(4)=    0.00000  celldm(5)=    0.00000  celldm(6)=    0.00000

     crystal axes: (cart. coord. in units of alat)
               a(1) = ( -0.5000  0.0000  0.5000 )  
               a(2) = (  0.0000  0.5000  0.5000 )  
               a(3) = ( -0.5000  0.5000  0.0000 )  

     reciprocal axes: (cart. coord. in units 2 pi/alat)
               b(1) = ( -1.0000 -1.0000  1.0000 )  
               b(2) = (  1.0000  1.0000  1.0000 )  
               b(3) = ( -1.0000  1.0000 -1.0000 )  


     Atoms inside the unit cell: 

     Cartesian axes

     site n.  atom      mass           positions (alat units)
        1     Na  22.9900   tau(    1) = (    0.00000    0.00000    0.00000  )

     Computing dynamical matrix for 
                    q = (   0.0000000   0.3333333   0.0000000 )

      8 Sym.Ops. (no q -> -q+G )


     G cutoff =  813.8150  (   1520 G-vectors)     FFT grid: ( 45, 45, 45)
     G cutoff =  406.9075  (    538 G-vectors)  smooth grid: ( 30, 30, 30)

     number of k points=  8400  Marzari-Vanderbilt smearing, width (Ry)=  0.0200

     PseudoPot. # 1 for Na read from file:
     /home/s1333534/quantum_espresso/qe-6.1/pseudo/Na_pbe_v1.uspp.F.UPF
     MD5 check sum: 76a99c7e9422403d3e93cbc85ab7bccb
     Pseudo is Ultrasoft, Zval =  9.0
     Generated by new atomic code, or converted to UPF format
     Using radial grid of  819 points,  5 beta functions with: 
                l(1) =   0
                l(2) =   0
                l(3) =   1
                l(4) =   1
                l(5) =   2
     Q(r) pseudized with  8 coefficients,  rinner =    1.250   1.250   1.250
                                                       1.250   1.250

     Mode symmetry, C_4v (4mm)  point group:


     Atomic displacements:
     There are   2 irreducible representations

     Representation     1      1 modes -A_1  G_1 D_1  To be done

     Representation     2      2 modes -E    G_5 D_5  To be done



     Alpha used in Ewald sum =   2.8000
     PHONON       : 40m 8.12s CPU    43m12.30s WALL



     Representation #  1 mode #   1

     Self-consistent Calculation

      iter #   1 total cpu time :  2611.5 secs   av.it.:   5.7
      thresh= 1.000E-02 alpha_mix =  0.700 |ddv_scf|^2 =  1.008E-02

      iter #   2 total cpu time :  2629.0 secs   av.it.:   6.2
      thresh= 1.000E-02 alpha_mix =  0.700 |ddv_scf|^2 =  9.126E-01

      iter #   3 total cpu time :  2646.2 secs   av.it.:   6.2
      thresh= 1.000E-02 alpha_mix =  0.700 |ddv_scf|^2 =  1.226E-06

      iter #   4 total cpu time :  2665.7 secs   av.it.:   7.6
      thresh= 1.107E-04 alpha_mix =  0.700 |ddv_scf|^2 =  3.910E-08

      iter #   5 total cpu time :  2685.5 secs   av.it.:   7.6
      thresh= 1.977E-05 alpha_mix =  0.700 |ddv_scf|^2 =  1.378E-09

      iter #   6 total cpu time :  2704.9 secs   av.it.:   7.7
      thresh= 3.712E-06 alpha_mix =  0.700 |ddv_scf|^2 =  6.763E-10

      iter #   7 total cpu time :  2722.2 secs   av.it.:   6.6
      thresh= 2.601E-06 alpha_mix =  0.700 |ddv_scf|^2 =  2.919E-09

      iter #   8 total cpu time :  2739.4 secs   av.it.:   6.5
      thresh= 5.402E-06 alpha_mix =  0.700 |ddv_scf|^2 =  3.574E-11

      iter #   9 total cpu time :  2758.0 secs   av.it.:   7.0
      thresh= 5.978E-07 alpha_mix =  0.700 |ddv_scf|^2 =  1.551E-12

      iter #  10 total cpu time :  2776.0 secs   av.it.:   7.0
      thresh= 1.245E-07 alpha_mix =  0.700 |ddv_scf|^2 =  3.765E-14

      iter #  11 total cpu time :  2796.6 secs   av.it.:   7.6
      thresh= 1.940E-08 alpha_mix =  0.700 |ddv_scf|^2 =  2.831E-16

      iter #  12 total cpu time :  2816.3 secs   av.it.:   7.8
      thresh= 1.682E-09 alpha_mix =  0.700 |ddv_scf|^2 =  6.141E-17

     End of self-consistent calculation

     Convergence has been achieved 


     Representation #  2 modes #   2  3

     Self-consistent Calculation

      iter #   1 total cpu time :  2853.2 secs   av.it.:   5.5
      thresh= 1.000E-02 alpha_mix =  0.700 |ddv_scf|^2 =  2.104E-06

      iter #   2 total cpu time :  2895.6 secs   av.it.:   8.5
      thresh= 1.451E-04 alpha_mix =  0.700 |ddv_scf|^2 =  3.543E-08

      iter #   3 total cpu time :  2939.8 secs   av.it.:   8.6
      thresh= 1.882E-05 alpha_mix =  0.700 |ddv_scf|^2 =  1.336E-09

      iter #   4 total cpu time :  2981.4 secs   av.it.:   8.4
      thresh= 3.655E-06 alpha_mix =  0.700 |ddv_scf|^2 =  4.253E-12

      iter #   5 total cpu time :  3024.2 secs   av.it.:   8.7
      thresh= 2.062E-07 alpha_mix =  0.700 |ddv_scf|^2 =  4.855E-15

      iter #   6 total cpu time :  3064.0 secs   av.it.:   7.7
      thresh= 6.968E-09 alpha_mix =  0.700 |ddv_scf|^2 =  2.226E-16

      iter #   7 total cpu time :  3108.3 secs   av.it.:   8.6
      thresh= 1.492E-09 alpha_mix =  0.700 |ddv_scf|^2 =  8.569E-20

     End of self-consistent calculation

     Convergence has been achieved 

     Number of q in the star =    6
     List of q in the star:
          1   0.000000000   0.333333333   0.000000000
          2   0.333333333   0.000000000   0.000000000
          3   0.000000000   0.000000000   0.333333333
          4   0.000000000  -0.333333333   0.000000000
          5  -0.333333333   0.000000000   0.000000000
          6   0.000000000   0.000000000  -0.333333333

     Diagonalizing the dynamical matrix

     q = (    0.000000000   0.333333333   0.000000000 ) 

 **************************************************************************
     freq (    1) =       1.435978 [THz] =      47.899075 [cm-1]
     freq (    2) =       1.435978 [THz] =      47.899075 [cm-1]
     freq (    3) =       1.824686 [THz] =      60.864989 [cm-1]
 **************************************************************************

     Mode symmetry, C_4v (4mm)  point group:

     freq (  1 -  2) =         47.9  [cm-1]   --> E    G_5 D_5       
     freq (  3 -  3) =         60.9  [cm-1]   --> A_1  G_1 D_1       

     Calculation of q =   -0.1666667   0.5000000  -0.1666667

   Info: using nr1, nr2, nr3 values from input

   Info: using nr1, nr2, nr3 values from input

     Parallelization info
     --------------------
     sticks:   dense  smooth     PW     G-vecs:    dense   smooth      PW
     Min          69      34     12                 1519      536     118
     Max          70      35     13                 1521      539     122
     Sum        1111     559    199                24309     8609    1917



     bravais-lattice index     =            2
     lattice parameter (alat)  =      10.0200  a.u.
     unit-cell volume          =     251.5030 (a.u.)^3
     number of atoms/cell      =            1
     number of atomic types    =            1
     number of electrons       =         9.00
     number of Kohn-Sham states=            9
     kinetic-energy cutoff     =      40.0000  Ry
     charge density cutoff     =     320.0000  Ry
     Exchange-correlation      = SLA  PW   PBE  PBE ( 1  4  3  4 0 0)

     celldm(1)=  10.020000  celldm(2)=   0.000000  celldm(3)=   0.000000
     celldm(4)=   0.000000  celldm(5)=   0.000000  celldm(6)=   0.000000

     crystal axes: (cart. coord. in units of alat)
               a(1) = (  -0.500000   0.000000   0.500000 )  
               a(2) = (   0.000000   0.500000   0.500000 )  
               a(3) = (  -0.500000   0.500000   0.000000 )  

     reciprocal axes: (cart. coord. in units 2 pi/alat)
               b(1) = ( -1.000000 -1.000000  1.000000 )  
               b(2) = (  1.000000  1.000000  1.000000 )  
               b(3) = ( -1.000000  1.000000 -1.000000 )  


     PseudoPot. # 1 for Na read from file:
     /home/s1333534/quantum_espresso/qe-6.1/pseudo/Na_pbe_v1.uspp.F.UPF
     MD5 check sum: 76a99c7e9422403d3e93cbc85ab7bccb
     Pseudo is Ultrasoft, Zval =  9.0
     Generated by new atomic code, or converted to UPF format
     Using radial grid of  819 points,  5 beta functions with: 
                l(1) =   0
                l(2) =   0
                l(3) =   1
                l(4) =   1
                l(5) =   2
     Q(r) pseudized with  8 coefficients,  rinner =    1.250   1.250   1.250
                                                       1.250   1.250

     atomic species   valence    mass     pseudopotential
        Na             9.00    22.99000     Na( 1.00)

     48 Sym. Ops., with inversion, found



   Cartesian axes

     site n.     atom                  positions (alat units)
         1           Na  tau(   1) = (   0.0000000   0.0000000   0.0000000  )

     number of k points= 32800  Marzari-Vanderbilt smearing, width (Ry)=  0.0200

     Number of k-points >= 100: set verbosity='high' to print them.

     Dense  grid:    24309 G-vectors     FFT dimensions: (  45,  45,  45)

     Smooth grid:     8609 G-vectors     FFT dimensions: (  30,  30,  30)

     Estimated max dynamical RAM per process >       0.83MB

     Estimated total allocated dynamical RAM >      53.41MB

     The potential is recalculated from file :
     ./_ph0/na.fcc.save/charge-density.dat

     Starting wfc are    5 atomic +    4 random wfc

     Band Structure Calculation
     Davidson diagonalization with overlap

     ethr =  1.11E-10,  avg # of iterations = 19.9

     total cpu time spent up to now is     1301.0 secs

     End of band structure calculation

     Number of k-points >= 100: set verbosity='high' to print the bands.

     the Fermi energy is     1.5817 ev

     Writing output data file na.fcc.save

                                                                                

     bravais-lattice index     =            2
     lattice parameter (alat)  =      10.0200  a.u.
     unit-cell volume          =     251.5030 (a.u.)^3
     number of atoms/cell      =            1
     number of atomic types    =            1
     kinetic-energy cut-off    =      40.0000  Ry
     charge density cut-off    =     320.0000  Ry
     convergence threshold     =      1.0E-16
     beta                      =       0.7000
     number of iterations used =            4
     Exchange-correlation      = SLA  PW   PBE  PBE ( 1  4  3  4 0 0)


     celldm(1)=   10.02000  celldm(2)=    0.00000  celldm(3)=    0.00000
     celldm(4)=    0.00000  celldm(5)=    0.00000  celldm(6)=    0.00000

     crystal axes: (cart. coord. in units of alat)
               a(1) = ( -0.5000  0.0000  0.5000 )  
               a(2) = (  0.0000  0.5000  0.5000 )  
               a(3) = ( -0.5000  0.5000  0.0000 )  

     reciprocal axes: (cart. coord. in units 2 pi/alat)
               b(1) = ( -1.0000 -1.0000  1.0000 )  
               b(2) = (  1.0000  1.0000  1.0000 )  
               b(3) = ( -1.0000  1.0000 -1.0000 )  


     Atoms inside the unit cell: 

     Cartesian axes

     site n.  atom      mass           positions (alat units)
        1     Na  22.9900   tau(    1) = (    0.00000    0.00000    0.00000  )

     Computing dynamical matrix for 
                    q = (  -0.1666667   0.5000000  -0.1666667 )

      2 Sym.Ops. (no q -> -q+G )


     G cutoff =  813.8150  (   1520 G-vectors)     FFT grid: ( 45, 45, 45)
     G cutoff =  406.9075  (    538 G-vectors)  smooth grid: ( 30, 30, 30)

     number of k points= 32800  Marzari-Vanderbilt smearing, width (Ry)=  0.0200

     PseudoPot. # 1 for Na read from file:
     /home/s1333534/quantum_espresso/qe-6.1/pseudo/Na_pbe_v1.uspp.F.UPF
     MD5 check sum: 76a99c7e9422403d3e93cbc85ab7bccb
     Pseudo is Ultrasoft, Zval =  9.0
     Generated by new atomic code, or converted to UPF format
     Using radial grid of  819 points,  5 beta functions with: 
                l(1) =   0
                l(2) =   0
                l(3) =   1
                l(4) =   1
                l(5) =   2
     Q(r) pseudized with  8 coefficients,  rinner =    1.250   1.250   1.250
                                                       1.250   1.250

     Mode symmetry, C_s (m)     point group:


     Atomic displacements:
     There are   3 irreducible representations

     Representation     1      1 modes -A'  To be done

     Representation     2      1 modes -A'  To be done

     Representation     3      1 modes -A''  To be done



     Alpha used in Ewald sum =   2.8000
     PHONON       :     0h58m CPU        1h 3m WALL



     Representation #  1 mode #   1

     Self-consistent Calculation

      iter #   1 total cpu time :  3857.8 secs   av.it.:   5.8
      thresh= 1.000E-02 alpha_mix =  0.700 |ddv_scf|^2 =  4.430E-04

      iter #   2 total cpu time :  3930.7 secs   av.it.:   7.0
      thresh= 2.105E-03 alpha_mix =  0.700 |ddv_scf|^2 =  3.753E-03

      iter #   3 total cpu time :  3993.5 secs   av.it.:   5.7
      thresh= 6.126E-03 alpha_mix =  0.700 |ddv_scf|^2 =  4.755E-07

      iter #   4 total cpu time :  4073.4 secs   av.it.:   7.9
      thresh= 6.896E-05 alpha_mix =  0.700 |ddv_scf|^2 =  4.633E-09

      iter #   5 total cpu time :  4155.8 secs   av.it.:   8.4
      thresh= 6.806E-06 alpha_mix =  0.700 |ddv_scf|^2 =  4.191E-10

      iter #   6 total cpu time :  4238.2 secs   av.it.:   8.3
      thresh= 2.047E-06 alpha_mix =  0.700 |ddv_scf|^2 =  1.924E-11

      iter #   7 total cpu time :  4319.8 secs   av.it.:   8.2
      thresh= 4.387E-07 alpha_mix =  0.700 |ddv_scf|^2 =  2.277E-11

      iter #   8 total cpu time :  4391.9 secs   av.it.:   6.9
      thresh= 4.772E-07 alpha_mix =  0.700 |ddv_scf|^2 =  5.499E-12

      iter #   9 total cpu time :  4465.6 secs   av.it.:   7.1
      thresh= 2.345E-07 alpha_mix =  0.700 |ddv_scf|^2 =  1.284E-12

      iter #  10 total cpu time :  4536.8 secs   av.it.:   6.8
      thresh= 1.133E-07 alpha_mix =  0.700 |ddv_scf|^2 =  6.372E-15

      iter #  11 total cpu time :  4620.3 secs   av.it.:   8.5
      thresh= 7.982E-09 alpha_mix =  0.700 |ddv_scf|^2 =  3.627E-16

      iter #  12 total cpu time :  4701.0 secs   av.it.:   7.9
      thresh= 1.905E-09 alpha_mix =  0.700 |ddv_scf|^2 =  2.268E-17

     End of self-consistent calculation

     Convergence has been achieved 


     Representation #  2 mode #   2

     Self-consistent Calculation

      iter #   1 total cpu time :  4778.0 secs   av.it.:   5.7
      thresh= 1.000E-02 alpha_mix =  0.700 |ddv_scf|^2 =  7.508E-05

      iter #   2 total cpu time :  4855.9 secs   av.it.:   7.5
      thresh= 8.665E-04 alpha_mix =  0.700 |ddv_scf|^2 =  5.653E-04

      iter #   3 total cpu time :  4919.1 secs   av.it.:   5.7
      thresh= 2.378E-03 alpha_mix =  0.700 |ddv_scf|^2 =  1.870E-07

      iter #   4 total cpu time :  5002.0 secs   av.it.:   8.3
      thresh= 4.325E-05 alpha_mix =  0.700 |ddv_scf|^2 =  5.597E-09

      iter #   5 total cpu time :  5087.4 secs   av.it.:   8.3
      thresh= 7.481E-06 alpha_mix =  0.700 |ddv_scf|^2 =  1.663E-10

      iter #   6 total cpu time :  5171.2 secs   av.it.:   8.3
      thresh= 1.290E-06 alpha_mix =  0.700 |ddv_scf|^2 =  1.281E-11

      iter #   7 total cpu time :  5255.4 secs   av.it.:   8.3
      thresh= 3.579E-07 alpha_mix =  0.700 |ddv_scf|^2 =  1.733E-12

      iter #   8 total cpu time :  5334.6 secs   av.it.:   7.5
      thresh= 1.317E-07 alpha_mix =  0.700 |ddv_scf|^2 =  6.677E-12

      iter #   9 total cpu time :  5403.1 secs   av.it.:   6.4
      thresh= 2.584E-07 alpha_mix =  0.700 |ddv_scf|^2 =  1.169E-14

      iter #  10 total cpu time :  5481.0 secs   av.it.:   7.7
      thresh= 1.081E-08 alpha_mix =  0.700 |ddv_scf|^2 =  1.924E-16

      iter #  11 total cpu time :  5560.1 secs   av.it.:   7.9
      thresh= 1.387E-09 alpha_mix =  0.700 |ddv_scf|^2 =  6.782E-16

      iter #  12 total cpu time :  5629.7 secs   av.it.:   6.6
      thresh= 2.604E-09 alpha_mix =  0.700 |ddv_scf|^2 =  5.035E-18

     End of self-consistent calculation

     Convergence has been achieved 


     Representation #  3 mode #   3

     Self-consistent Calculation

      iter #   1 total cpu time :  5701.4 secs   av.it.:   5.5
      thresh= 1.000E-02 alpha_mix =  0.700 |ddv_scf|^2 =  8.891E-06

      iter #   2 total cpu time :  5780.7 secs   av.it.:   7.8
      thresh= 2.982E-04 alpha_mix =  0.700 |ddv_scf|^2 =  1.389E-07

      iter #   3 total cpu time :  5862.2 secs   av.it.:   8.1
      thresh= 3.727E-05 alpha_mix =  0.700 |ddv_scf|^2 =  7.249E-09

      iter #   4 total cpu time :  5940.0 secs   av.it.:   7.7
      thresh= 8.514E-06 alpha_mix =  0.700 |ddv_scf|^2 =  2.330E-11

      iter #   5 total cpu time :  6021.1 secs   av.it.:   8.0
      thresh= 4.827E-07 alpha_mix =  0.700 |ddv_scf|^2 =  2.040E-14

      iter #   6 total cpu time :  6089.0 secs   av.it.:   6.4
      thresh= 1.428E-08 alpha_mix =  0.700 |ddv_scf|^2 =  1.224E-15

      iter #   7 total cpu time :  6169.2 secs   av.it.:   7.8
      thresh= 3.499E-09 alpha_mix =  0.700 |ddv_scf|^2 =  1.193E-18

     End of self-consistent calculation

     Convergence has been achieved 

     Number of q in the star =   24
     List of q in the star:
          1  -0.166666667   0.500000000  -0.166666667
          2   0.166666667   0.500000000   0.166666667
          3  -0.166666667   0.500000000   0.166666667
          4   0.166666667   0.500000000  -0.166666667
          5   0.500000000  -0.166666667   0.166666667
          6   0.166666667  -0.166666667   0.500000000
          7  -0.166666667  -0.500000000  -0.166666667
          8   0.166666667  -0.500000000  -0.166666667
          9  -0.166666667  -0.500000000   0.166666667
         10   0.500000000  -0.166666667  -0.166666667
         11  -0.500000000  -0.166666667   0.166666667
         12   0.500000000   0.166666667   0.166666667
         13  -0.166666667   0.166666667  -0.500000000
         14  -0.166666667  -0.166666667   0.500000000
         15   0.166666667   0.166666667   0.500000000
         16   0.166666667  -0.166666667  -0.500000000
         17  -0.500000000   0.166666667  -0.166666667
         18  -0.500000000  -0.166666667  -0.166666667
         19   0.166666667  -0.500000000   0.166666667
         20   0.500000000   0.166666667  -0.166666667
         21   0.166666667   0.166666667  -0.500000000
         22  -0.166666667  -0.166666667  -0.500000000
         23  -0.500000000   0.166666667   0.166666667
         24  -0.166666667   0.166666667   0.500000000

     Diagonalizing the dynamical matrix

     q = (   -0.166666667   0.500000000  -0.166666667 ) 

 **************************************************************************
     freq (    1) =       1.842930 [THz] =      61.473544 [cm-1]
     freq (    2) =       1.941857 [THz] =      64.773376 [cm-1]
     freq (    3) =       3.076387 [THz] =     102.617209 [cm-1]
 **************************************************************************

     Mode symmetry, C_s (m)     point group:

     freq (  1 -  1) =         61.5  [cm-1]   --> A'                 
     freq (  2 -  2) =         64.8  [cm-1]   --> A''                
     freq (  3 -  3) =        102.6  [cm-1]   --> A'                 

     Calculation of q =    0.6666667  -0.3333333   0.6666667

   Info: using nr1, nr2, nr3 values from input

   Info: using nr1, nr2, nr3 values from input

     Parallelization info
     --------------------
     sticks:   dense  smooth     PW     G-vecs:    dense   smooth      PW
     Min          69      34     13                 1519      536     129
     Max          70      35     14                 1521      539     132
     Sum        1111     559    211                24309     8609    2085



     bravais-lattice index     =            2
     lattice parameter (alat)  =      10.0200  a.u.
     unit-cell volume          =     251.5030 (a.u.)^3
     number of atoms/cell      =            1
     number of atomic types    =            1
     number of electrons       =         9.00
     number of Kohn-Sham states=            9
     kinetic-energy cutoff     =      40.0000  Ry
     charge density cutoff     =     320.0000  Ry
     Exchange-correlation      = SLA  PW   PBE  PBE ( 1  4  3  4 0 0)

     celldm(1)=  10.020000  celldm(2)=   0.000000  celldm(3)=   0.000000
     celldm(4)=   0.000000  celldm(5)=   0.000000  celldm(6)=   0.000000

     crystal axes: (cart. coord. in units of alat)
               a(1) = (  -0.500000   0.000000   0.500000 )  
               a(2) = (   0.000000   0.500000   0.500000 )  
               a(3) = (  -0.500000   0.500000   0.000000 )  

     reciprocal axes: (cart. coord. in units 2 pi/alat)
               b(1) = ( -1.000000 -1.000000  1.000000 )  
               b(2) = (  1.000000  1.000000  1.000000 )  
               b(3) = ( -1.000000  1.000000 -1.000000 )  


     PseudoPot. # 1 for Na read from file:
     /home/s1333534/quantum_espresso/qe-6.1/pseudo/Na_pbe_v1.uspp.F.UPF
     MD5 check sum: 76a99c7e9422403d3e93cbc85ab7bccb
     Pseudo is Ultrasoft, Zval =  9.0
     Generated by new atomic code, or converted to UPF format
     Using radial grid of  819 points,  5 beta functions with: 
                l(1) =   0
                l(2) =   0
                l(3) =   1
                l(4) =   1
                l(5) =   2
     Q(r) pseudized with  8 coefficients,  rinner =    1.250   1.250   1.250
                                                       1.250   1.250

     atomic species   valence    mass     pseudopotential
        Na             9.00    22.99000     Na( 1.00)

     48 Sym. Ops., with inversion, found



   Cartesian axes

     site n.     atom                  positions (alat units)
         1           Na  tau(   1) = (   0.0000000   0.0000000   0.0000000  )

     number of k points= 32800  Marzari-Vanderbilt smearing, width (Ry)=  0.0200

     Number of k-points >= 100: set verbosity='high' to print them.

     Dense  grid:    24309 G-vectors     FFT dimensions: (  45,  45,  45)

     Smooth grid:     8609 G-vectors     FFT dimensions: (  30,  30,  30)

     Estimated max dynamical RAM per process >       0.83MB

     Estimated total allocated dynamical RAM >      53.41MB

     The potential is recalculated from file :
     ./_ph0/na.fcc.save/charge-density.dat

     Starting wfc are    5 atomic +    4 random wfc

     Band Structure Calculation
     Davidson diagonalization with overlap

     ethr =  1.11E-10,  avg # of iterations = 19.9

     total cpu time spent up to now is     1971.1 secs

     End of band structure calculation

     Number of k-points >= 100: set verbosity='high' to print the bands.

     the Fermi energy is     1.5817 ev

     Writing output data file na.fcc.save

                                                                                

     bravais-lattice index     =            2
     lattice parameter (alat)  =      10.0200  a.u.
     unit-cell volume          =     251.5030 (a.u.)^3
     number of atoms/cell      =            1
     number of atomic types    =            1
     kinetic-energy cut-off    =      40.0000  Ry
     charge density cut-off    =     320.0000  Ry
     convergence threshold     =      1.0E-16
     beta                      =       0.7000
     number of iterations used =            4
     Exchange-correlation      = SLA  PW   PBE  PBE ( 1  4  3  4 0 0)


     celldm(1)=   10.02000  celldm(2)=    0.00000  celldm(3)=    0.00000
     celldm(4)=    0.00000  celldm(5)=    0.00000  celldm(6)=    0.00000

     crystal axes: (cart. coord. in units of alat)
               a(1) = ( -0.5000  0.0000  0.5000 )  
               a(2) = (  0.0000  0.5000  0.5000 )  
               a(3) = ( -0.5000  0.5000  0.0000 )  

     reciprocal axes: (cart. coord. in units 2 pi/alat)
               b(1) = ( -1.0000 -1.0000  1.0000 )  
               b(2) = (  1.0000  1.0000  1.0000 )  
               b(3) = ( -1.0000  1.0000 -1.0000 )  


     Atoms inside the unit cell: 

     Cartesian axes

     site n.  atom      mass           positions (alat units)
        1     Na  22.9900   tau(    1) = (    0.00000    0.00000    0.00000  )

     Computing dynamical matrix for 
                    q = (   0.6666667  -0.3333333   0.6666667 )

      2 Sym.Ops. (no q -> -q+G )


     G cutoff =  813.8150  (   1520 G-vectors)     FFT grid: ( 45, 45, 45)
     G cutoff =  406.9075  (    538 G-vectors)  smooth grid: ( 30, 30, 30)

     number of k points= 32800  Marzari-Vanderbilt smearing, width (Ry)=  0.0200

     PseudoPot. # 1 for Na read from file:
     /home/s1333534/quantum_espresso/qe-6.1/pseudo/Na_pbe_v1.uspp.F.UPF
     MD5 check sum: 76a99c7e9422403d3e93cbc85ab7bccb
     Pseudo is Ultrasoft, Zval =  9.0
     Generated by new atomic code, or converted to UPF format
     Using radial grid of  819 points,  5 beta functions with: 
                l(1) =   0
                l(2) =   0
                l(3) =   1
                l(4) =   1
                l(5) =   2
     Q(r) pseudized with  8 coefficients,  rinner =    1.250   1.250   1.250
                                                       1.250   1.250

     Mode symmetry, C_s (m)     point group:


     Atomic displacements:
     There are   3 irreducible representations

     Representation     1      1 modes -A'  To be done

     Representation     2      1 modes -A'  To be done

     Representation     3      1 modes -A''  To be done



     Alpha used in Ewald sum =   2.8000
     PHONON       :     1h46m CPU        1h54m WALL



     Representation #  1 mode #   1

     Self-consistent Calculation

      iter #   1 total cpu time :  6955.7 secs   av.it.:   5.8
      thresh= 1.000E-02 alpha_mix =  0.700 |ddv_scf|^2 =  5.426E-05

      iter #   2 total cpu time :  7037.0 secs   av.it.:   7.6
      thresh= 7.366E-04 alpha_mix =  0.700 |ddv_scf|^2 =  4.023E-05

      iter #   3 total cpu time :  7113.3 secs   av.it.:   7.1
      thresh= 6.343E-04 alpha_mix =  0.700 |ddv_scf|^2 =  1.081E-07

      iter #   4 total cpu time :  7199.1 secs   av.it.:   8.3
      thresh= 3.288E-05 alpha_mix =  0.700 |ddv_scf|^2 =  8.429E-09

      iter #   5 total cpu time :  7284.6 secs   av.it.:   8.2
      thresh= 9.181E-06 alpha_mix =  0.700 |ddv_scf|^2 =  4.558E-10

      iter #   6 total cpu time :  7369.3 secs   av.it.:   8.0
      thresh= 2.135E-06 alpha_mix =  0.700 |ddv_scf|^2 =  5.684E-12

      iter #   7 total cpu time :  7456.8 secs   av.it.:   8.4
      thresh= 2.384E-07 alpha_mix =  0.700 |ddv_scf|^2 =  2.558E-13

      iter #   8 total cpu time :  7544.4 secs   av.it.:   8.5
      thresh= 5.058E-08 alpha_mix =  0.700 |ddv_scf|^2 =  2.190E-14

      iter #   9 total cpu time :  7631.4 secs   av.it.:   8.3
      thresh= 1.480E-08 alpha_mix =  0.700 |ddv_scf|^2 =  9.112E-16

      iter #  10 total cpu time :  7711.5 secs   av.it.:   7.5
      thresh= 3.019E-09 alpha_mix =  0.700 |ddv_scf|^2 =  8.743E-17

     End of self-consistent calculation

     Convergence has been achieved 


     Representation #  2 mode #   2

     Self-consistent Calculation

      iter #   1 total cpu time :  7792.1 secs   av.it.:   5.7
      thresh= 1.000E-02 alpha_mix =  0.700 |ddv_scf|^2 =  2.836E-05

      iter #   2 total cpu time :  7876.3 secs   av.it.:   7.9
      thresh= 5.325E-04 alpha_mix =  0.700 |ddv_scf|^2 =  1.231E-05

      iter #   3 total cpu time :  7956.1 secs   av.it.:   7.3
      thresh= 3.509E-04 alpha_mix =  0.700 |ddv_scf|^2 =  3.908E-07

      iter #   4 total cpu time :  8037.8 secs   av.it.:   7.7
      thresh= 6.252E-05 alpha_mix =  0.700 |ddv_scf|^2 =  1.371E-08

      iter #   5 total cpu time :  8122.8 secs   av.it.:   8.2
      thresh= 1.171E-05 alpha_mix =  0.700 |ddv_scf|^2 =  3.748E-10

      iter #   6 total cpu time :  8208.8 secs   av.it.:   8.2
      thresh= 1.936E-06 alpha_mix =  0.700 |ddv_scf|^2 =  1.232E-11

      iter #   7 total cpu time :  8295.8 secs   av.it.:   8.5
      thresh= 3.510E-07 alpha_mix =  0.700 |ddv_scf|^2 =  8.216E-13

      iter #   8 total cpu time :  8385.0 secs   av.it.:   8.6
      thresh= 9.064E-08 alpha_mix =  0.700 |ddv_scf|^2 =  2.586E-14

      iter #   9 total cpu time :  8472.4 secs   av.it.:   8.3
      thresh= 1.608E-08 alpha_mix =  0.700 |ddv_scf|^2 =  4.870E-15

      iter #  10 total cpu time :  8555.9 secs   av.it.:   7.8
      thresh= 6.978E-09 alpha_mix =  0.700 |ddv_scf|^2 =  1.233E-16

      iter #  11 total cpu time :  8642.1 secs   av.it.:   8.2
      thresh= 1.110E-09 alpha_mix =  0.700 |ddv_scf|^2 =  5.166E-18

     End of self-consistent calculation

     Convergence has been achieved 


     Representation #  3 mode #   3

     Self-consistent Calculation

      iter #   1 total cpu time :  8721.0 secs   av.it.:   5.5
      thresh= 1.000E-02 alpha_mix =  0.700 |ddv_scf|^2 =  8.876E-06

      iter #   2 total cpu time :  8803.4 secs   av.it.:   7.8
      thresh= 2.979E-04 alpha_mix =  0.700 |ddv_scf|^2 =  1.398E-07

      iter #   3 total cpu time :  8888.8 secs   av.it.:   8.0
      thresh= 3.738E-05 alpha_mix =  0.700 |ddv_scf|^2 =  7.110E-09

      iter #   4 total cpu time :  8970.1 secs   av.it.:   7.7
      thresh= 8.432E-06 alpha_mix =  0.700 |ddv_scf|^2 =  2.355E-11

      iter #   5 total cpu time :  9055.2 secs   av.it.:   8.0
      thresh= 4.853E-07 alpha_mix =  0.700 |ddv_scf|^2 =  2.218E-14

      iter #   6 total cpu time :  9130.1 secs   av.it.:   6.9
      thresh= 1.489E-08 alpha_mix =  0.700 |ddv_scf|^2 =  1.336E-15

      iter #   7 total cpu time :  9214.0 secs   av.it.:   7.8
      thresh= 3.655E-09 alpha_mix =  0.700 |ddv_scf|^2 =  1.554E-18

     End of self-consistent calculation

     Convergence has been achieved 

     Number of q in the star =   24
     List of q in the star:
          1   0.666666667  -0.333333333   0.666666667
          2  -0.666666667  -0.333333333  -0.666666667
          3   0.666666667  -0.333333333  -0.666666667
          4  -0.666666667  -0.333333333   0.666666667
          5  -0.333333333   0.666666667  -0.666666667
          6  -0.666666667   0.666666667  -0.333333333
          7   0.666666667   0.333333333   0.666666667
          8  -0.666666667   0.333333333   0.666666667
          9   0.666666667   0.333333333  -0.666666667
         10  -0.333333333   0.666666667   0.666666667
         11   0.333333333   0.666666667  -0.666666667
         12  -0.333333333  -0.666666667  -0.666666667
         13   0.666666667  -0.666666667   0.333333333
         14   0.666666667   0.666666667  -0.333333333
         15  -0.666666667  -0.666666667  -0.333333333
         16  -0.666666667   0.666666667   0.333333333
         17   0.333333333  -0.666666667   0.666666667
         18   0.333333333   0.666666667   0.666666667
         19  -0.666666667   0.333333333  -0.666666667
         20  -0.333333333  -0.666666667   0.666666667
         21  -0.666666667  -0.666666667   0.333333333
         22   0.666666667   0.666666667   0.333333333
         23   0.333333333  -0.666666667  -0.666666667
         24   0.666666667  -0.666666667  -0.333333333

     Diagonalizing the dynamical matrix

     q = (    0.666666667  -0.333333333   0.666666667 ) 

 **************************************************************************
     freq (    1) =       2.056938 [THz] =      68.612059 [cm-1]
     freq (    2) =       2.343864 [THz] =      78.182880 [cm-1]
     freq (    3) =       3.752999 [THz] =     125.186570 [cm-1]
 **************************************************************************

     Mode symmetry, C_s (m)     point group:

     freq (  1 -  1) =         68.6  [cm-1]   --> A''                
     freq (  2 -  2) =         78.2  [cm-1]   --> A'                 
     freq (  3 -  3) =        125.2  [cm-1]   --> A'                 

     Calculation of q =    0.5000000  -0.1666667   0.5000000

   Info: using nr1, nr2, nr3 values from input

   Info: using nr1, nr2, nr3 values from input

     Parallelization info
     --------------------
     sticks:   dense  smooth     PW     G-vecs:    dense   smooth      PW
     Min          69      34     13                 1519      536     123
     Max          70      35     14                 1521      539     126
     Sum        1111     559    211                24309     8609    1989



     bravais-lattice index     =            2
     lattice parameter (alat)  =      10.0200  a.u.
     unit-cell volume          =     251.5030 (a.u.)^3
     number of atoms/cell      =            1
     number of atomic types    =            1
     number of electrons       =         9.00
     number of Kohn-Sham states=            9
     kinetic-energy cutoff     =      40.0000  Ry
     charge density cutoff     =     320.0000  Ry
     Exchange-correlation      = SLA  PW   PBE  PBE ( 1  4  3  4 0 0)

     celldm(1)=  10.020000  celldm(2)=   0.000000  celldm(3)=   0.000000
     celldm(4)=   0.000000  celldm(5)=   0.000000  celldm(6)=   0.000000

     crystal axes: (cart. coord. in units of alat)
               a(1) = (  -0.500000   0.000000   0.500000 )  
               a(2) = (   0.000000   0.500000   0.500000 )  
               a(3) = (  -0.500000   0.500000   0.000000 )  

     reciprocal axes: (cart. coord. in units 2 pi/alat)
               b(1) = ( -1.000000 -1.000000  1.000000 )  
               b(2) = (  1.000000  1.000000  1.000000 )  
               b(3) = ( -1.000000  1.000000 -1.000000 )  


     PseudoPot. # 1 for Na read from file:
     /home/s1333534/quantum_espresso/qe-6.1/pseudo/Na_pbe_v1.uspp.F.UPF
     MD5 check sum: 76a99c7e9422403d3e93cbc85ab7bccb
     Pseudo is Ultrasoft, Zval =  9.0
     Generated by new atomic code, or converted to UPF format
     Using radial grid of  819 points,  5 beta functions with: 
                l(1) =   0
                l(2) =   0
                l(3) =   1
                l(4) =   1
                l(5) =   2
     Q(r) pseudized with  8 coefficients,  rinner =    1.250   1.250   1.250
                                                       1.250   1.250

     atomic species   valence    mass     pseudopotential
        Na             9.00    22.99000     Na( 1.00)

     48 Sym. Ops., with inversion, found



   Cartesian axes

     site n.     atom                  positions (alat units)
         1           Na  tau(   1) = (   0.0000000   0.0000000   0.0000000  )

     number of k points= 32800  Marzari-Vanderbilt smearing, width (Ry)=  0.0200

     Number of k-points >= 100: set verbosity='high' to print them.

     Dense  grid:    24309 G-vectors     FFT dimensions: (  45,  45,  45)

     Smooth grid:     8609 G-vectors     FFT dimensions: (  30,  30,  30)

     Estimated max dynamical RAM per process >       0.83MB

     Estimated total allocated dynamical RAM >      53.41MB

     The potential is recalculated from file :
     ./_ph0/na.fcc.save/charge-density.dat

     Starting wfc are    5 atomic +    4 random wfc

     Band Structure Calculation
     Davidson diagonalization with overlap

     ethr =  1.11E-10,  avg # of iterations = 19.9

     total cpu time spent up to now is     2653.4 secs

     End of band structure calculation

     Number of k-points >= 100: set verbosity='high' to print the bands.

     the Fermi energy is     1.5817 ev

     Writing output data file na.fcc.save

                                                                                

     bravais-lattice index     =            2
     lattice parameter (alat)  =      10.0200  a.u.
     unit-cell volume          =     251.5030 (a.u.)^3
     number of atoms/cell      =            1
     number of atomic types    =            1
     kinetic-energy cut-off    =      40.0000  Ry
     charge density cut-off    =     320.0000  Ry
     convergence threshold     =      1.0E-16
     beta                      =       0.7000
     number of iterations used =            4
     Exchange-correlation      = SLA  PW   PBE  PBE ( 1  4  3  4 0 0)


     celldm(1)=   10.02000  celldm(2)=    0.00000  celldm(3)=    0.00000
     celldm(4)=    0.00000  celldm(5)=    0.00000  celldm(6)=    0.00000

     crystal axes: (cart. coord. in units of alat)
               a(1) = ( -0.5000  0.0000  0.5000 )  
               a(2) = (  0.0000  0.5000  0.5000 )  
               a(3) = ( -0.5000  0.5000  0.0000 )  

     reciprocal axes: (cart. coord. in units 2 pi/alat)
               b(1) = ( -1.0000 -1.0000  1.0000 )  
               b(2) = (  1.0000  1.0000  1.0000 )  
               b(3) = ( -1.0000  1.0000 -1.0000 )  


     Atoms inside the unit cell: 

     Cartesian axes

     site n.  atom      mass           positions (alat units)
        1     Na  22.9900   tau(    1) = (    0.00000    0.00000    0.00000  )

     Computing dynamical matrix for 
                    q = (   0.5000000  -0.1666667   0.5000000 )

      2 Sym.Ops. (no q -> -q+G )


     G cutoff =  813.8150  (   1520 G-vectors)     FFT grid: ( 45, 45, 45)
     G cutoff =  406.9075  (    538 G-vectors)  smooth grid: ( 30, 30, 30)

     number of k points= 32800  Marzari-Vanderbilt smearing, width (Ry)=  0.0200

     PseudoPot. # 1 for Na read from file:
     /home/s1333534/quantum_espresso/qe-6.1/pseudo/Na_pbe_v1.uspp.F.UPF
     MD5 check sum: 76a99c7e9422403d3e93cbc85ab7bccb
     Pseudo is Ultrasoft, Zval =  9.0
     Generated by new atomic code, or converted to UPF format
     Using radial grid of  819 points,  5 beta functions with: 
                l(1) =   0
                l(2) =   0
                l(3) =   1
                l(4) =   1
                l(5) =   2
     Q(r) pseudized with  8 coefficients,  rinner =    1.250   1.250   1.250
                                                       1.250   1.250

     Mode symmetry, C_s (m)     point group:


     Atomic displacements:
     There are   3 irreducible representations

     Representation     1      1 modes -A'  To be done

     Representation     2      1 modes -A'  To be done

     Representation     3      1 modes -A''  To be done



     Alpha used in Ewald sum =   2.8000
     PHONON       :     2h33m CPU        2h45m WALL



     Representation #  1 mode #   1

     Self-consistent Calculation

      iter #   1 total cpu time : 10005.9 secs   av.it.:   5.8
      thresh= 1.000E-02 alpha_mix =  0.700 |ddv_scf|^2 =  4.270E-05

      iter #   2 total cpu time : 10088.5 secs   av.it.:   7.7
      thresh= 6.534E-04 alpha_mix =  0.700 |ddv_scf|^2 =  5.514E-05

      iter #   3 total cpu time : 10164.1 secs   av.it.:   6.8
[...]

      iter #   4 total cpu time : 24297.6 secs   av.it.:   8.3
      thresh= 1.662E-05 alpha_mix =  0.700 |ddv_scf|^2 =  9.875E-10

      iter #   5 total cpu time : 24378.1 secs   av.it.:   7.8
      thresh= 3.142E-06 alpha_mix =  0.700 |ddv_scf|^2 =  2.763E-11

      iter #   6 total cpu time : 24457.7 secs   av.it.:   7.6
      thresh= 5.256E-07 alpha_mix =  0.700 |ddv_scf|^2 =  4.842E-14

      iter #   7 total cpu time : 24539.3 secs   av.it.:   8.0
      thresh= 2.200E-08 alpha_mix =  0.700 |ddv_scf|^2 =  3.660E-15

      iter #   8 total cpu time : 24620.3 secs   av.it.:   8.0
      thresh= 6.050E-09 alpha_mix =  0.700 |ddv_scf|^2 =  1.115E-17

     End of self-consistent calculation

     Convergence has been achieved 

     Number of q in the star =   24
     List of q in the star:
          1   0.500000000  -0.166666667   0.833333333
          2   0.833333333   0.166666667   0.500000000
          3   0.500000000   0.166666667   0.833333333
          4  -0.833333333  -0.166666667   0.500000000
          5  -0.833333333  -0.166666667  -0.500000000
          6  -0.500000000  -0.166666667  -0.833333333
          7   0.833333333  -0.166666667   0.500000000
          8  -0.500000000  -0.166666667   0.833333333
          9  -0.833333333   0.166666667   0.500000000
         10   0.833333333   0.166666667  -0.500000000
         11   0.833333333  -0.166666667  -0.500000000
         12   0.500000000   0.166666667  -0.833333333
         13  -0.500000000   0.166666667   0.833333333
         14  -0.500000000   0.166666667  -0.833333333
         15  -0.833333333   0.166666667  -0.500000000
         16   0.833333333  -0.500000000   0.166666667
         17   0.833333333   0.500000000  -0.166666667
         18  -0.833333333  -0.500000000  -0.166666667
         19  -0.833333333   0.500000000   0.166666667
         20   0.166666667  -0.500000000   0.833333333
         21  -0.166666667   0.500000000   0.833333333
         22   0.166666667   0.500000000  -0.833333333
         23  -0.166666667  -0.500000000  -0.833333333
         24  -0.500000000   0.833333333   0.166666667

     Diagonalizing the dynamical matrix

     q = (    0.500000000  -0.166666667   0.833333333 ) 

 **************************************************************************
     freq (    1) =       2.351479 [THz] =      78.436883 [cm-1]
     freq (    2) =       3.116981 [THz] =     103.971294 [cm-1]
     freq (    3) =       3.615266 [THz] =     120.592283 [cm-1]
 **************************************************************************

     Mode symmetry, C_2  (2)    point group:

     freq (  1 -  1) =         78.4  [cm-1]   --> B                  
     freq (  2 -  2) =        104.0  [cm-1]   --> A                  
     freq (  3 -  3) =        120.6  [cm-1]   --> B                  

     Calculation of q =   -0.3333333  -1.0000000   0.0000000

   Info: using nr1, nr2, nr3 values from input

   Info: using nr1, nr2, nr3 values from input

     Parallelization info
     --------------------
     sticks:   dense  smooth     PW     G-vecs:    dense   smooth      PW
     Min          69      34     13                 1519      536     129
     Max          70      35     14                 1521      539     132
     Sum        1111     559    211                24309     8609    2085



     bravais-lattice index     =            2
     lattice parameter (alat)  =      10.0200  a.u.
     unit-cell volume          =     251.5030 (a.u.)^3
     number of atoms/cell      =            1
     number of atomic types    =            1
     number of electrons       =         9.00
     number of Kohn-Sham states=            9
     kinetic-energy cutoff     =      40.0000  Ry
     charge density cutoff     =     320.0000  Ry
     Exchange-correlation      = SLA  PW   PBE  PBE ( 1  4  3  4 0 0)

     celldm(1)=  10.020000  celldm(2)=   0.000000  celldm(3)=   0.000000
     celldm(4)=   0.000000  celldm(5)=   0.000000  celldm(6)=   0.000000

     crystal axes: (cart. coord. in units of alat)
               a(1) = (  -0.500000   0.000000   0.500000 )  
               a(2) = (   0.000000   0.500000   0.500000 )  
               a(3) = (  -0.500000   0.500000   0.000000 )  

     reciprocal axes: (cart. coord. in units 2 pi/alat)
               b(1) = ( -1.000000 -1.000000  1.000000 )  
               b(2) = (  1.000000  1.000000  1.000000 )  
               b(3) = ( -1.000000  1.000000 -1.000000 )  


     PseudoPot. # 1 for Na read from file:
     /home/s1333534/quantum_espresso/qe-6.1/pseudo/Na_pbe_v1.uspp.F.UPF
     MD5 check sum: 76a99c7e9422403d3e93cbc85ab7bccb
     Pseudo is Ultrasoft, Zval =  9.0
     Generated by new atomic code, or converted to UPF format
     Using radial grid of  819 points,  5 beta functions with: 
                l(1) =   0
                l(2) =   0
                l(3) =   1
                l(4) =   1
                l(5) =   2
     Q(r) pseudized with  8 coefficients,  rinner =    1.250   1.250   1.250
                                                       1.250   1.250

     atomic species   valence    mass     pseudopotential
        Na             9.00    22.99000     Na( 1.00)

     48 Sym. Ops., with inversion, found



   Cartesian axes

     site n.     atom                  positions (alat units)
         1           Na  tau(   1) = (   0.0000000   0.0000000   0.0000000  )

     number of k points= 16000  Marzari-Vanderbilt smearing, width (Ry)=  0.0200

     Number of k-points >= 100: set verbosity='high' to print them.

     Dense  grid:    24309 G-vectors     FFT dimensions: (  45,  45,  45)

     Smooth grid:     8609 G-vectors     FFT dimensions: (  30,  30,  30)

     Estimated max dynamical RAM per process >       0.83MB

     Estimated total allocated dynamical RAM >      53.41MB

     The potential is recalculated from file :
     ./_ph0/na.fcc.save/charge-density.dat

     Starting wfc are    5 atomic +    4 random wfc

     Band Structure Calculation
     Davidson diagonalization with overlap

     ethr =  1.11E-10,  avg # of iterations = 19.9

     total cpu time spent up to now is     5977.8 secs

     End of band structure calculation

     Number of k-points >= 100: set verbosity='high' to print the bands.

     the Fermi energy is     1.5817 ev

     Writing output data file na.fcc.save

                                                                                

     bravais-lattice index     =            2
     lattice parameter (alat)  =      10.0200  a.u.
     unit-cell volume          =     251.5030 (a.u.)^3
     number of atoms/cell      =            1
     number of atomic types    =            1
     kinetic-energy cut-off    =      40.0000  Ry
     charge density cut-off    =     320.0000  Ry
     convergence threshold     =      1.0E-16
     beta                      =       0.7000
     number of iterations used =            4
     Exchange-correlation      = SLA  PW   PBE  PBE ( 1  4  3  4 0 0)


     celldm(1)=   10.02000  celldm(2)=    0.00000  celldm(3)=    0.00000
     celldm(4)=    0.00000  celldm(5)=    0.00000  celldm(6)=    0.00000

     crystal axes: (cart. coord. in units of alat)
               a(1) = ( -0.5000  0.0000  0.5000 )  
               a(2) = (  0.0000  0.5000  0.5000 )  
               a(3) = ( -0.5000  0.5000  0.0000 )  

     reciprocal axes: (cart. coord. in units 2 pi/alat)
               b(1) = ( -1.0000 -1.0000  1.0000 )  
               b(2) = (  1.0000  1.0000  1.0000 )  
               b(3) = ( -1.0000  1.0000 -1.0000 )  


     Atoms inside the unit cell: 

     Cartesian axes

     site n.  atom      mass           positions (alat units)
        1     Na  22.9900   tau(    1) = (    0.00000    0.00000    0.00000  )

     Computing dynamical matrix for 
                    q = (  -0.3333333  -1.0000000   0.0000000 )

      4 Sym.Ops. (no q -> -q+G )


     G cutoff =  813.8150  (   1520 G-vectors)     FFT grid: ( 45, 45, 45)
     G cutoff =  406.9075  (    538 G-vectors)  smooth grid: ( 30, 30, 30)

     number of k points= 16000  Marzari-Vanderbilt smearing, width (Ry)=  0.0200

     PseudoPot. # 1 for Na read from file:
     /home/s1333534/quantum_espresso/qe-6.1/pseudo/Na_pbe_v1.uspp.F.UPF
     MD5 check sum: 76a99c7e9422403d3e93cbc85ab7bccb
     Pseudo is Ultrasoft, Zval =  9.0
     Generated by new atomic code, or converted to UPF format
     Using radial grid of  819 points,  5 beta functions with: 
                l(1) =   0
                l(2) =   0
                l(3) =   1
                l(4) =   1
                l(5) =   2
     Q(r) pseudized with  8 coefficients,  rinner =    1.250   1.250   1.250
                                                       1.250   1.250

     Mode symmetry, C_2v (mm2)  point group:


     Atomic displacements:
     There are   3 irreducible representations

     Representation     1      1 modes -A_1  D_1  S_1  To be done

     Representation     2      1 modes -B_1  D_3  S_3  To be done

     Representation     3      1 modes -B_2  D_4  S_4  To be done



     Alpha used in Ewald sum =   2.8000
     PHONON       :     6h26m CPU        6h56m WALL



     Representation #  1 mode #   1

     Self-consistent Calculation

      iter #   1 total cpu time : 25000.3 secs   av.it.:   5.6
      thresh= 1.000E-02 alpha_mix =  0.700 |ddv_scf|^2 =  1.301E-05

      iter #   2 total cpu time : 25041.3 secs   av.it.:   8.0
      thresh= 3.607E-04 alpha_mix =  0.700 |ddv_scf|^2 =  4.141E-07

      iter #   3 total cpu time : 25084.2 secs   av.it.:   7.9
      thresh= 6.435E-05 alpha_mix =  0.700 |ddv_scf|^2 =  1.506E-08

      iter #   4 total cpu time : 25126.1 secs   av.it.:   8.2
      thresh= 1.227E-05 alpha_mix =  0.700 |ddv_scf|^2 =  7.521E-10

      iter #   5 total cpu time : 25167.5 secs   av.it.:   8.1
      thresh= 2.742E-06 alpha_mix =  0.700 |ddv_scf|^2 =  3.869E-11

      iter #   6 total cpu time : 25209.7 secs   av.it.:   8.2
      thresh= 6.220E-07 alpha_mix =  0.700 |ddv_scf|^2 =  2.699E-12

      iter #   7 total cpu time : 25251.4 secs   av.it.:   8.2
      thresh= 1.643E-07 alpha_mix =  0.700 |ddv_scf|^2 =  2.662E-14

      iter #   8 total cpu time : 25294.5 secs   av.it.:   8.0
      thresh= 1.632E-08 alpha_mix =  0.700 |ddv_scf|^2 =  6.772E-16

      iter #   9 total cpu time : 25336.2 secs   av.it.:   8.2
      thresh= 2.602E-09 alpha_mix =  0.700 |ddv_scf|^2 =  2.137E-17

     End of self-consistent calculation

     Convergence has been achieved 


     Representation #  2 mode #   2

     Self-consistent Calculation

      iter #   1 total cpu time : 25375.4 secs   av.it.:   5.6
      thresh= 1.000E-02 alpha_mix =  0.700 |ddv_scf|^2 =  1.452E-05

      iter #   2 total cpu time : 25416.8 secs   av.it.:   7.9
      thresh= 3.811E-04 alpha_mix =  0.700 |ddv_scf|^2 =  3.182E-07

      iter #   3 total cpu time : 25458.8 secs   av.it.:   7.8
      thresh= 5.641E-05 alpha_mix =  0.700 |ddv_scf|^2 =  1.614E-08

      iter #   4 total cpu time : 25500.9 secs   av.it.:   8.0
      thresh= 1.271E-05 alpha_mix =  0.700 |ddv_scf|^2 =  1.780E-10

      iter #   5 total cpu time : 25538.5 secs   av.it.:   7.2
      thresh= 1.334E-06 alpha_mix =  0.700 |ddv_scf|^2 =  1.333E-13

      iter #   6 total cpu time : 25579.3 secs   av.it.:   7.8
      thresh= 3.651E-08 alpha_mix =  0.700 |ddv_scf|^2 =  4.323E-15

      iter #   7 total cpu time : 25619.7 secs   av.it.:   7.7
      thresh= 6.575E-09 alpha_mix =  0.700 |ddv_scf|^2 =  3.989E-17

     End of self-consistent calculation

     Convergence has been achieved 


     Representation #  3 mode #   3

     Self-consistent Calculation

      iter #   1 total cpu time : 25657.7 secs   av.it.:   5.6
      thresh= 1.000E-02 alpha_mix =  0.700 |ddv_scf|^2 =  2.784E-05

      iter #   2 total cpu time : 25698.1 secs   av.it.:   7.7
      thresh= 5.277E-04 alpha_mix =  0.700 |ddv_scf|^2 =  2.988E-06

      iter #   3 total cpu time : 25737.2 secs   av.it.:   7.4
      thresh= 1.729E-04 alpha_mix =  0.700 |ddv_scf|^2 =  3.018E-08

      iter #   4 total cpu time : 25778.6 secs   av.it.:   8.1
      thresh= 1.737E-05 alpha_mix =  0.700 |ddv_scf|^2 =  1.457E-10

      iter #   5 total cpu time : 25816.1 secs   av.it.:   7.0
      thresh= 1.207E-06 alpha_mix =  0.700 |ddv_scf|^2 =  1.534E-13

      iter #   6 total cpu time : 25855.5 secs   av.it.:   7.7
      thresh= 3.916E-08 alpha_mix =  0.700 |ddv_scf|^2 =  8.327E-15

      iter #   7 total cpu time : 25893.9 secs   av.it.:   7.4
      thresh= 9.125E-09 alpha_mix =  0.700 |ddv_scf|^2 =  1.956E-17

     End of self-consistent calculation

     Convergence has been achieved 

     Number of q in the star =   12
     List of q in the star:
          1  -0.333333333  -1.000000000   0.000000000
          2   0.000000000  -1.000000000  -0.333333333
          3   0.000000000  -1.000000000   0.333333333
          4   0.333333333  -1.000000000   0.000000000
          5  -1.000000000   0.000000000  -0.333333333
          6   1.000000000   0.000000000   0.333333333
          7   0.000000000   0.333333333   1.000000000
          8   0.000000000  -0.333333333  -1.000000000
          9  -1.000000000  -0.333333333   0.000000000
         10   1.000000000   0.333333333   0.000000000
         11  -0.333333333   0.000000000   1.000000000
         12   0.333333333   0.000000000   1.000000000

     Diagonalizing the dynamical matrix

     q = (   -0.333333333  -1.000000000   0.000000000 ) 

 **************************************************************************
     freq (    1) =       2.663226 [THz] =      88.835672 [cm-1]
     freq (    2) =       3.141714 [THz] =     104.796300 [cm-1]
     freq (    3) =       3.732742 [THz] =     124.510877 [cm-1]
 **************************************************************************

     Mode symmetry, C_2v (mm2)  point group:

     freq (  1 -  1) =         88.8  [cm-1]   --> A_1  D_1  S_1      
     freq (  2 -  2) =        104.8  [cm-1]   --> B_1  D_3  S_3      
     freq (  3 -  3) =        124.5  [cm-1]   --> B_2  D_4  S_4      

     init_run     :      3.59s CPU      3.75s WALL (      15 calls)
     electrons    :   4885.43s CPU   5144.90s WALL (      15 calls)

     Called by init_run:
     wfcinit      :      0.00s CPU      0.00s WALL (      15 calls)
     potinit      :      0.48s CPU      0.49s WALL (      15 calls)

     Called by electrons:
     c_bands      :   4884.20s CPU   5143.65s WALL (      15 calls)
     v_of_rho     :      0.22s CPU      0.22s WALL (      16 calls)
     newd         :      0.18s CPU      0.19s WALL (      16 calls)

     Called by c_bands:
     init_us_2    :    101.41s CPU    109.28s WALL ( 1264294 calls)
     cegterg      :   3804.01s CPU   4030.19s WALL (  100002 calls)

     Called by sum_band:

     Called by *egterg:
     h_psi        :  14407.06s CPU  15418.44s WALL (11740000 calls)
     s_psi        :    377.40s CPU    411.76s WALL (22749138 calls)
     g_psi        :     11.77s CPU     12.65s WALL ( 1542366 calls)
     cdiaghg      :    968.26s CPU   1027.02s WALL ( 1615792 calls)

     Called by h_psi:
     h_psi:pot    :  14316.30s CPU  15319.05s WALL (11740000 calls)
     h_psi:calbec :    777.48s CPU    827.33s WALL (11740000 calls)
     vloc_psi     :  13204.15s CPU  14132.69s WALL (11740000 calls)
     add_vuspsi   :    205.99s CPU    223.30s WALL (11740000 calls)

     General routines
     calbec       :   1448.60s CPU   1550.14s WALL (24803765 calls)
     fft          :      6.17s CPU      7.27s WALL (    6466 calls)
     ffts         :     22.41s CPU     24.47s WALL (  112708 calls)
     fftw         :  14515.58s CPU  15609.03s WALL (******** calls)
     interpolate  :      1.10s CPU      1.40s WALL (     886 calls)
     davcio       :    127.20s CPU    319.82s WALL ( 5131114 calls)

     Parallel routines
     fft_scatter  :   6558.94s CPU   7043.19s WALL (******** calls)

     PHONON       :     6h40m CPU        7h11m WALL

     INITIALIZATION: 
     phq_setup    :      0.88s CPU      0.95s WALL (      16 calls)
     phq_init     :    247.18s CPU    261.19s WALL (      16 calls)

     phq_init     :    247.18s CPU    261.19s WALL (      16 calls)
     init_vloc    :      0.15s CPU      0.15s WALL (      16 calls)
     init_us_1    :      1.48s CPU      1.60s WALL (      16 calls)
     newd         :      0.18s CPU      0.19s WALL (      16 calls)
     dvanqq       :      0.68s CPU      0.69s WALL (      16 calls)
     drho         :    195.94s CPU    206.85s WALL (      16 calls)

     DYNAMICAL MATRIX:
     dynmat0      :     34.23s CPU     35.96s WALL (      16 calls)
     phqscf       :  18026.17s CPU  19601.19s WALL (      16 calls)
     dynmatrix    :      0.13s CPU      0.14s WALL (      16 calls)

     phqscf       :  18026.17s CPU  19601.19s WALL (      16 calls)
     solve_linter :  17970.24s CPU  19540.80s WALL (      40 calls)
     drhodv       :     55.33s CPU     58.72s WALL (      40 calls)

     dynmat0      :     34.23s CPU     35.96s WALL (      16 calls)
     dynmat_us    :     34.18s CPU     35.78s WALL (      16 calls)
     d2ionq       :      0.01s CPU      0.01s WALL (      16 calls)

     dynmat_us    :     34.18s CPU     35.78s WALL (      16 calls)
     addusdynmat  :      0.00s CPU      0.00s WALL (      16 calls)

     phqscf       :  18026.17s CPU  19601.19s WALL (      16 calls)
     solve_linter :  17970.24s CPU  19540.80s WALL (      40 calls)

     solve_linter :  17970.24s CPU  19540.80s WALL (      40 calls)
     dvqpsi_us    :    357.80s CPU    380.40s WALL (  110718 calls)
     ortho        :    234.54s CPU    250.12s WALL (  984932 calls)
     cgsolve      :  14262.77s CPU  15338.24s WALL (  984932 calls)
     incdrhoscf   :   1407.93s CPU   1579.01s WALL (  984932 calls)
     addusddens   :      5.28s CPU      5.35s WALL (     389 calls)
     vpsifft      :   1138.03s CPU   1224.21s WALL (  874214 calls)
     dv_of_drho   :      4.67s CPU      5.61s WALL (     403 calls)
     mix_pot      :      0.86s CPU      4.33s WALL (     349 calls)
     ef_shift     :      0.04s CPU      0.13s WALL (       7 calls)
     localdos     :      0.25s CPU      0.26s WALL (       1 calls)
     psymdvscf    :     36.74s CPU     37.87s WALL (     349 calls)
     newdq        :      5.14s CPU      5.23s WALL (     349 calls)
     adddvscf     :     55.57s CPU     59.25s WALL (  874214 calls)
     drhodvus     :      0.01s CPU      0.02s WALL (      40 calls)

     dvqpsi_us    :    357.80s CPU    380.40s WALL (  110718 calls)
     dvqpsi_us_on :     54.47s CPU     56.94s WALL (  110718 calls)

     cgsolve      :  14262.77s CPU  15338.24s WALL (  984932 calls)
     ch_psi       :  13543.66s CPU  14554.51s WALL (10024206 calls)

     ch_psi       :  13543.66s CPU  14554.51s WALL (10024206 calls)
     h_psi        :  14407.06s CPU  15418.44s WALL (11740000 calls)
     last         :   1315.24s CPU   1420.89s WALL (10024206 calls)

     h_psi        :  14407.06s CPU  15418.44s WALL (11740000 calls)
     add_vuspsi   :    205.99s CPU    223.30s WALL (11740000 calls)

     incdrhoscf   :   1407.93s CPU   1579.01s WALL (  984932 calls)
     addusdbec    :    110.98s CPU    117.60s WALL ( 1095650 calls)

     drhodvus     :      0.01s CPU      0.02s WALL (      40 calls)

      General routines
     calbec       :   1448.60s CPU   1550.14s WALL (24803765 calls)
     fft          :      6.17s CPU      7.27s WALL (    6466 calls)
     ffts         :     22.41s CPU     24.47s WALL (  112708 calls)
     fftw         :  14515.58s CPU  15609.03s WALL (******** calls)
     davcio       :    127.20s CPU    319.82s WALL ( 5131114 calls)
     write_rec    :      1.68s CPU      4.47s WALL (     389 calls)


     PHONON       :     6h40m CPU        7h11m WALL


   This run was terminated on:  10:53:13   1Feb2018            

=------------------------------------------------------------------------------=
   JOB DONE.
=------------------------------------------------------------------------------=
