
     Program PWSCF v.6.1 (svn rev. 13369) starts on 20Dec2017 at 14: 8:33 

     This program is part of the open-source Quantum ESPRESSO suite
     for quantum simulation of materials; please cite
         "P. Giannozzi et al., J. Phys.:Condens. Matter 21 395502 (2009);
          URL http://www.quantum-espresso.org", 
     in publications or presentations arising from this work. More details at
     http://www.quantum-espresso.org/quote

     Parallel version (MPI), running on     4 processors
     R & G space division:  proc/nbgrp/npool/nimage =       4
     Waiting for input...
     Reading input from standard input

     Current dimensions of program PWSCF are:
     Max number of different atomic species (ntypx) = 10
     Max number of k-points (npk) =  40000
     Max angular momentum in pseudopotentials (lmaxx) =  3

     Subspace diagonalization in iterative solution of the eigenvalue problem:
     a serial algorithm will be used


     Parallelization info
     --------------------
     sticks:   dense  smooth     PW     G-vecs:    dense   smooth      PW
     Min         205     105     37                 3896     1394     284
     Max         206     106     38                 3899     1395     285
     Sum         823     421    151                15593     5577    1139



     bravais-lattice index     =            2
     lattice parameter (alat)  =       8.6440  a.u.
     unit-cell volume          =     161.4655 (a.u.)^3
     number of atoms/cell      =            1
     number of atomic types    =            1
     number of electrons       =         9.00
     number of Kohn-Sham states=            9
     kinetic-energy cutoff     =      40.0000  Ry
     charge density cutoff     =     320.0000  Ry
     convergence threshold     =      1.0E-08
     mixing beta               =       0.7000
     number of iterations used =            8  plain     mixing
     Exchange-correlation      = SLA  PW   PBE  PBE ( 1  4  3  4 0 0)
     nstep                     =           50


     celldm(1)=   8.643971  celldm(2)=   0.000000  celldm(3)=   0.000000
     celldm(4)=   0.000000  celldm(5)=   0.000000  celldm(6)=   0.000000

     crystal axes: (cart. coord. in units of alat)
               a(1) = (  -0.500000   0.000000   0.500000 )  
               a(2) = (   0.000000   0.500000   0.500000 )  
               a(3) = (  -0.500000   0.500000   0.000000 )  

     reciprocal axes: (cart. coord. in units 2 pi/alat)
               b(1) = ( -1.000000 -1.000000  1.000000 )  
               b(2) = (  1.000000  1.000000  1.000000 )  
               b(3) = ( -1.000000  1.000000 -1.000000 )  


     PseudoPot. # 1 for Na read from file:
     /home/s1333534/quantum_espresso/qe-6.1/pseudo/Na_pbe_v1.uspp.F.UPF
     MD5 check sum: 76a99c7e9422403d3e93cbc85ab7bccb
     Pseudo is Ultrasoft, Zval =  9.0
     Generated by new atomic code, or converted to UPF format
     Using radial grid of  819 points,  5 beta functions with: 
                l(1) =   0
                l(2) =   0
                l(3) =   1
                l(4) =   1
                l(5) =   2
     Q(r) pseudized with  8 coefficients,  rinner =    1.250   1.250   1.250
                                                       1.250   1.250

     atomic species   valence    mass     pseudopotential
        Na             9.00    22.99000     Na( 1.00)

     48 Sym. Ops., with inversion, found



   Cartesian axes

     site n.     atom                  positions (alat units)
         1           Na  tau(   1) = (   0.0000000   0.0000000   0.0000000  )

     number of k points=   770  Marzari-Vanderbilt smearing, width (Ry)=  0.0200

     Number of k-points >= 100: set verbosity='high' to print them.

     Dense  grid:    15593 G-vectors     FFT dimensions: (  36,  36,  36)

     Smooth grid:     5577 G-vectors     FFT dimensions: (  25,  25,  25)

     Estimated max dynamical RAM per process >      20.82MB

     Estimated total allocated dynamical RAM >      83.28MB

     Initial potential from superposition of free atoms

     starting charge    8.99371, renormalised to    9.00000
     Starting wfc are    5 randomized atomic wfcs +    4 random wfc

     total cpu time spent up to now is        1.5 secs

     per-process dynamical memory:    28.7 Mb

     Self-consistent Calculation

     iteration #  1     ecut=    40.00 Ry     beta=0.70
     Davidson diagonalization with overlap
     ethr =  1.00E-02,  avg # of iterations =  5.3

     Threshold (ethr) on eigenvalues was too large:
     Diagonalizing with lowered threshold

     Davidson diagonalization with overlap
     ethr =  1.60E-05,  avg # of iterations =  3.1

     total cpu time spent up to now is       10.1 secs

     total energy              =     -95.09021139 Ry
     Harris-Foulkes estimate   =     -95.09073639 Ry
     estimated scf accuracy    <       0.00143347 Ry

     iteration #  2     ecut=    40.00 Ry     beta=0.70
     Davidson diagonalization with overlap
     ethr =  1.59E-05,  avg # of iterations =  2.0

     total cpu time spent up to now is       13.1 secs

     total energy              =     -95.09039657 Ry
     Harris-Foulkes estimate   =     -95.09043914 Ry
     estimated scf accuracy    <       0.00016111 Ry

     iteration #  3     ecut=    40.00 Ry     beta=0.70
     Davidson diagonalization with overlap
     ethr =  1.79E-06,  avg # of iterations =  2.1

     total cpu time spent up to now is       16.2 secs

     total energy              =     -95.09041695 Ry
     Harris-Foulkes estimate   =     -95.09041827 Ry
     estimated scf accuracy    <       0.00000933 Ry

     iteration #  4     ecut=    40.00 Ry     beta=0.70
     Davidson diagonalization with overlap
     ethr =  1.04E-07,  avg # of iterations =  1.0

     total cpu time spent up to now is       18.9 secs

     total energy              =     -95.09041780 Ry
     Harris-Foulkes estimate   =     -95.09041774 Ry
     estimated scf accuracy    <       0.00000001 Ry

     iteration #  5     ecut=    40.00 Ry     beta=0.70
     Davidson diagonalization with overlap
     ethr =  1.43E-10,  avg # of iterations =  3.0

     total cpu time spent up to now is       22.6 secs

     End of self-consistent calculation

     Number of k-points >= 100: set verbosity='high' to print the bands.

     the Fermi energy is     3.9345 ev

!    total energy              =     -95.09041784 Ry
     Harris-Foulkes estimate   =     -95.09041784 Ry
     estimated scf accuracy    <          1.9E-09 Ry

     The total energy is the sum of the following terms:

     one-electron contribution =     -77.97484916 Ry
     hartree contribution      =      40.18146864 Ry
     xc contribution           =     -14.33366643 Ry
     ewald contribution        =     -42.96333703 Ry
     smearing contrib. (-TS)   =      -0.00003386 Ry

     convergence has been achieved in   5 iterations

     Forces acting on atoms (cartesian axes, Ry/au):

     atom    1 type  1   force =     0.00000000    0.00000000    0.00000000

     Total force =     0.000000     Total SCF correction =     0.000000


     Computing stress (Cartesian axis) and pressure

          total   stress  (Ry/bohr**3)                   (kbar)     P=   71.97
   0.00048924  -0.00000000   0.00000000         71.97     -0.00      0.00
  -0.00000000   0.00048924   0.00000000         -0.00     71.97      0.00
   0.00000000   0.00000000   0.00048924          0.00      0.00     71.97


     BFGS Geometry Optimization

     number of scf cycles    =   1
     number of bfgs steps    =   0

     enthalpy new            =     -95.0135843939 Ry

     new trust radius        =       0.0008506010 bohr
     new conv_thr            =       0.0000000100 Ry

     new unit-cell volume =    161.62773 a.u.^3 (    23.95076 Ang^3 )
     density =      1.59393 g/cm^3

CELL_PARAMETERS (alat=  8.64397074)
  -0.500167350   0.000000000   0.500167350
  -0.000000000   0.500167350   0.500167350
  -0.500167350   0.500167350  -0.000000000

ATOMIC_POSITIONS (crystal)
Na       0.000000000   0.000000000   0.000000000



     Writing output data file na.fcc.save
     NEW-OLD atomic charge density approx. for the potential
     extrapolated charge    9.00902, renormalised to    9.00000

     total cpu time spent up to now is       24.7 secs

     per-process dynamical memory:    36.0 Mb

     Self-consistent Calculation

     iteration #  1     ecut=    40.00 Ry     beta=0.70
     Davidson diagonalization with overlap
     ethr =  1.00E-06,  avg # of iterations =  2.0

     total cpu time spent up to now is       28.4 secs

     total energy              =     -95.09044546 Ry
     Harris-Foulkes estimate   =     -95.02855917 Ry
     estimated scf accuracy    <       0.00002889 Ry

     iteration #  2     ecut=    40.00 Ry     beta=0.70
     Davidson diagonalization with overlap
     ethr =  3.21E-07,  avg # of iterations =  2.9

     total cpu time spent up to now is       32.1 secs

     total energy              =     -95.09049802 Ry
     Harris-Foulkes estimate   =     -95.09051933 Ry
     estimated scf accuracy    <       0.00004861 Ry

     iteration #  3     ecut=    40.00 Ry     beta=0.70
     Davidson diagonalization with overlap
     ethr =  3.21E-07,  avg # of iterations =  1.4

     total cpu time spent up to now is       34.8 secs

     total energy              =     -95.09049868 Ry
     Harris-Foulkes estimate   =     -95.09050120 Ry
     estimated scf accuracy    <       0.00000951 Ry

     iteration #  4     ecut=    40.00 Ry     beta=0.70
     Davidson diagonalization with overlap
     ethr =  1.06E-07,  avg # of iterations =  1.0

     total cpu time spent up to now is       37.5 secs

     total energy              =     -95.09049786 Ry
     Harris-Foulkes estimate   =     -95.09049899 Ry
     estimated scf accuracy    <       0.00000420 Ry

     iteration #  5     ecut=    40.00 Ry     beta=0.70
     Davidson diagonalization with overlap
     ethr =  4.66E-08,  avg # of iterations =  1.0

     total cpu time spent up to now is       40.1 secs

     total energy              =     -95.09049730 Ry
     Harris-Foulkes estimate   =     -95.09049795 Ry
     estimated scf accuracy    <       0.00000198 Ry

     iteration #  6     ecut=    40.00 Ry     beta=0.70
     Davidson diagonalization with overlap
     ethr =  2.20E-08,  avg # of iterations =  1.0

     total cpu time spent up to now is       42.8 secs

     total energy              =     -95.09049697 Ry
     Harris-Foulkes estimate   =     -95.09049737 Ry
     estimated scf accuracy    <       0.00000072 Ry

     iteration #  7     ecut=    40.00 Ry     beta=0.70
     Davidson diagonalization with overlap
     ethr =  8.03E-09,  avg # of iterations =  1.7

     total cpu time spent up to now is       45.6 secs

     total energy              =     -95.09049703 Ry
     Harris-Foulkes estimate   =     -95.09049706 Ry
     estimated scf accuracy    <       0.00000005 Ry

     iteration #  8     ecut=    40.00 Ry     beta=0.70
     Davidson diagonalization with overlap
     ethr =  5.42E-10,  avg # of iterations =  2.0

     total cpu time spent up to now is       48.8 secs

     End of self-consistent calculation

     Number of k-points >= 100: set verbosity='high' to print the bands.

     the Fermi energy is     3.9277 ev

!    total energy              =     -95.09049704 Ry
     Harris-Foulkes estimate   =     -95.09049704 Ry
     estimated scf accuracy    <          9.6E-11 Ry

     The total energy is the sum of the following terms:

     one-electron contribution =     -77.99979817 Ry
     hartree contribution      =      40.19181004 Ry
     xc contribution           =     -14.33351303 Ry
     ewald contribution        =     -42.94896200 Ry
     smearing contrib. (-TS)   =      -0.00003388 Ry

     convergence has been achieved in   8 iterations

     Forces acting on atoms (cartesian axes, Ry/au):

     atom    1 type  1   force =     0.00000000    0.00000000    0.00000000

     Total force =     0.000000     Total SCF correction =     0.000000


     Computing stress (Cartesian axis) and pressure

          total   stress  (Ry/bohr**3)                   (kbar)     P=   71.78
   0.00048793  -0.00000000  -0.00000000         71.78     -0.00     -0.00
  -0.00000000   0.00048793   0.00000000         -0.00     71.78      0.00
  -0.00000000   0.00000000   0.00048793         -0.00      0.00     71.78


     number of scf cycles    =   2
     number of bfgs steps    =   1

     enthalpy old            =     -95.0135843939 Ry
     enthalpy new            =     -95.0135864151 Ry

     CASE: enthalpy_new < enthalpy_old


     WARNING: bfgs curvature condition failed, Theta= 0.886
     new trust radius        =       0.0009358176 bohr
     new conv_thr            =            1.0E-10 Ry

     new unit-cell volume =    161.80626 a.u.^3 (    23.97721 Ang^3 )
     density =      1.59217 g/cm^3

CELL_PARAMETERS (alat=  8.64397074)
  -0.500351435   0.000000000   0.500351435
  -0.000000000   0.500351435   0.500351435
  -0.500351435   0.500351435   0.000000000

ATOMIC_POSITIONS (crystal)
Na       0.000000000   0.000000000   0.000000000



     Writing output data file na.fcc.save
     NEW-OLD atomic charge density approx. for the potential
     extrapolated charge    9.00992, renormalised to    9.00000

     total cpu time spent up to now is       51.0 secs

     per-process dynamical memory:    36.0 Mb

     Self-consistent Calculation

     iteration #  1     ecut=    40.00 Ry     beta=0.70
     Davidson diagonalization with overlap
     ethr =  1.00E-06,  avg # of iterations =  2.0

     total cpu time spent up to now is       54.7 secs

     total energy              =     -95.09052121 Ry
     Harris-Foulkes estimate   =     -95.02245344 Ry
     estimated scf accuracy    <       0.00003517 Ry

     iteration #  2     ecut=    40.00 Ry     beta=0.70
     Davidson diagonalization with overlap
     ethr =  3.91E-07,  avg # of iterations =  2.9

     total cpu time spent up to now is       58.3 secs

     total energy              =     -95.09058495 Ry
     Harris-Foulkes estimate   =     -95.09061080 Ry
     estimated scf accuracy    <       0.00005888 Ry

     iteration #  3     ecut=    40.00 Ry     beta=0.70
     Davidson diagonalization with overlap
     ethr =  3.91E-07,  avg # of iterations =  1.4

     total cpu time spent up to now is       61.1 secs

     total energy              =     -95.09058581 Ry
     Harris-Foulkes estimate   =     -95.09058881 Ry
     estimated scf accuracy    <       0.00001148 Ry

     iteration #  4     ecut=    40.00 Ry     beta=0.70
     Davidson diagonalization with overlap
     ethr =  1.28E-07,  avg # of iterations =  1.0

     total cpu time spent up to now is       63.7 secs

     total energy              =     -95.09058482 Ry
     Harris-Foulkes estimate   =     -95.09058617 Ry
     estimated scf accuracy    <       0.00000514 Ry

     iteration #  5     ecut=    40.00 Ry     beta=0.70
     Davidson diagonalization with overlap
     ethr =  5.71E-08,  avg # of iterations =  1.0

     total cpu time spent up to now is       66.3 secs

     total energy              =     -95.09058411 Ry
     Harris-Foulkes estimate   =     -95.09058492 Ry
     estimated scf accuracy    <       0.00000247 Ry

     iteration #  6     ecut=    40.00 Ry     beta=0.70
     Davidson diagonalization with overlap
     ethr =  2.75E-08,  avg # of iterations =  1.0

     total cpu time spent up to now is       69.0 secs

     total energy              =     -95.09058374 Ry
     Harris-Foulkes estimate   =     -95.09058419 Ry
     estimated scf accuracy    <       0.00000089 Ry

     iteration #  7     ecut=    40.00 Ry     beta=0.70
     Davidson diagonalization with overlap
     ethr =  9.93E-09,  avg # of iterations =  1.1

     total cpu time spent up to now is       71.7 secs

     total energy              =     -95.09058376 Ry
     Harris-Foulkes estimate   =     -95.09058382 Ry
     estimated scf accuracy    <       0.00000010 Ry

     iteration #  8     ecut=    40.00 Ry     beta=0.70
     Davidson diagonalization with overlap
     ethr =  1.07E-09,  avg # of iterations =  2.0

     total cpu time spent up to now is       74.8 secs

     total energy              =     -95.09058378 Ry
     Harris-Foulkes estimate   =     -95.09058378 Ry
     estimated scf accuracy    <          1.6E-10 Ry

     iteration #  9     ecut=    40.00 Ry     beta=0.70
     Davidson diagonalization with overlap
     ethr =  1.79E-12,  avg # of iterations =  3.0

     total cpu time spent up to now is       78.5 secs

     total energy              =     -95.09058378 Ry
     Harris-Foulkes estimate   =     -95.09058378 Ry
     estimated scf accuracy    <          7.3E-10 Ry

     iteration # 10     ecut=    40.00 Ry     beta=0.70
     Davidson diagonalization with overlap
     ethr =  1.79E-12,  avg # of iterations =  2.0

     total cpu time spent up to now is       81.7 secs

     End of self-consistent calculation

     Number of k-points >= 100: set verbosity='high' to print the bands.

     the Fermi energy is     3.9203 ev

!    total energy              =     -95.09058378 Ry
     Harris-Foulkes estimate   =     -95.09058378 Ry
     estimated scf accuracy    <          4.0E-12 Ry

     The total energy is the sum of the following terms:

     one-electron contribution =     -78.02709558 Ry
     hartree contribution      =      40.20301984 Ry
     xc contribution           =     -14.33331356 Ry
     ewald contribution        =     -42.93316058 Ry
     smearing contrib. (-TS)   =      -0.00003390 Ry

     convergence has been achieved in  10 iterations

     Forces acting on atoms (cartesian axes, Ry/au):

     atom    1 type  1   force =     0.00000000    0.00000000    0.00000000

     Total force =     0.000000     Total SCF correction =     0.000000


     Computing stress (Cartesian axis) and pressure

          total   stress  (Ry/bohr**3)                   (kbar)     P=   71.31
   0.00048475   0.00000000   0.00000000         71.31      0.00      0.00
   0.00000000   0.00048475  -0.00000000          0.00     71.31     -0.00
   0.00000000  -0.00000000   0.00048475          0.00     -0.00     71.31


     number of scf cycles    =   3
     number of bfgs steps    =   2

     enthalpy old            =     -95.0135864151 Ry
     enthalpy new            =     -95.0135882081 Ry

     CASE: enthalpy_new < enthalpy_old

     new trust radius        =       0.0014039847 bohr
     new conv_thr            =            1.0E-10 Ry

     new unit-cell volume =    162.07429 a.u.^3 (    24.01693 Ang^3 )
     density =      1.58954 g/cm^3

CELL_PARAMETERS (alat=  8.64397074)
  -0.500627563  -0.000000000   0.500627563
   0.000000000   0.500627563   0.500627563
  -0.500627563   0.500627563  -0.000000000

ATOMIC_POSITIONS (crystal)
Na       0.000000000   0.000000000   0.000000000



     Writing output data file na.fcc.save
     NEW-OLD atomic charge density approx. for the potential
     extrapolated charge    9.01487, renormalised to    9.00000

     total cpu time spent up to now is       83.9 secs

     per-process dynamical memory:    36.0 Mb

     Self-consistent Calculation

     iteration #  1     ecut=    40.00 Ry     beta=0.70
     Davidson diagonalization with overlap
     ethr =  1.00E-06,  avg # of iterations =  2.0

     total cpu time spent up to now is       87.7 secs

     total energy              =     -95.09057246 Ry
     Harris-Foulkes estimate   =     -94.98852876 Ry
     estimated scf accuracy    <       0.00007898 Ry

     iteration #  2     ecut=    40.00 Ry     beta=0.70
     Davidson diagonalization with overlap
     ethr =  8.78E-07,  avg # of iterations =  2.9

     total cpu time spent up to now is       91.4 secs

     total energy              =     -95.09071585 Ry
     Harris-Foulkes estimate   =     -95.09077398 Ry
     estimated scf accuracy    <       0.00013248 Ry

     iteration #  3     ecut=    40.00 Ry     beta=0.70
     Davidson diagonalization with overlap
     ethr =  8.78E-07,  avg # of iterations =  1.4

     total cpu time spent up to now is       94.2 secs

     total energy              =     -95.09071762 Ry
     Harris-Foulkes estimate   =     -95.09072451 Ry
     estimated scf accuracy    <       0.00002588 Ry

     iteration #  4     ecut=    40.00 Ry     beta=0.70
     Davidson diagonalization with overlap
     ethr =  2.88E-07,  avg # of iterations =  1.0

     total cpu time spent up to now is       96.8 secs

     total energy              =     -95.09071547 Ry
     Harris-Foulkes estimate   =     -95.09071847 Ry
     estimated scf accuracy    <       0.00001138 Ry

     iteration #  5     ecut=    40.00 Ry     beta=0.70
     Davidson diagonalization with overlap
     ethr =  1.26E-07,  avg # of iterations =  1.0

     total cpu time spent up to now is       99.4 secs

     total energy              =     -95.09071390 Ry
     Harris-Foulkes estimate   =     -95.09071570 Ry
     estimated scf accuracy    <       0.00000547 Ry

     iteration #  6     ecut=    40.00 Ry     beta=0.70
     Davidson diagonalization with overlap
     ethr =  6.08E-08,  avg # of iterations =  1.0

     total cpu time spent up to now is      102.0 secs

     total energy              =     -95.09071307 Ry
     Harris-Foulkes estimate   =     -95.09071408 Ry
     estimated scf accuracy    <       0.00000198 Ry

     iteration #  7     ecut=    40.00 Ry     beta=0.70
     Davidson diagonalization with overlap
     ethr =  2.21E-08,  avg # of iterations =  1.2

     total cpu time spent up to now is      104.7 secs

     total energy              =     -95.09071312 Ry
     Harris-Foulkes estimate   =     -95.09071326 Ry
     estimated scf accuracy    <       0.00000021 Ry

     iteration #  8     ecut=    40.00 Ry     beta=0.70
     Davidson diagonalization with overlap
     ethr =  2.31E-09,  avg # of iterations =  2.0

     total cpu time spent up to now is      107.9 secs

     total energy              =     -95.09071317 Ry
     Harris-Foulkes estimate   =     -95.09071317 Ry
     estimated scf accuracy    <          6.5E-10 Ry

     iteration #  9     ecut=    40.00 Ry     beta=0.70
     Davidson diagonalization with overlap
     ethr =  7.22E-12,  avg # of iterations =  2.3

     total cpu time spent up to now is      111.3 secs

     total energy              =     -95.09071317 Ry
     Harris-Foulkes estimate   =     -95.09071317 Ry
     estimated scf accuracy    <          1.5E-09 Ry

     iteration # 10     ecut=    40.00 Ry     beta=0.70
     Davidson diagonalization with overlap
     ethr =  7.22E-12,  avg # of iterations =  2.0

     total cpu time spent up to now is      114.5 secs

     End of self-consistent calculation

     Number of k-points >= 100: set verbosity='high' to print the bands.

     the Fermi energy is     3.9093 ev

!    total energy              =     -95.09071317 Ry
     Harris-Foulkes estimate   =     -95.09071317 Ry
     estimated scf accuracy    <          9.4E-12 Ry

     The total energy is the sum of the following terms:

     one-electron contribution =     -78.06804143 Ry
     hartree contribution      =      40.21986515 Ry
     xc contribution           =     -14.33302272 Ry
     ewald contribution        =     -42.90948024 Ry
     smearing contrib. (-TS)   =      -0.00003393 Ry

     convergence has been achieved in  10 iterations

     Forces acting on atoms (cartesian axes, Ry/au):

     atom    1 type  1   force =     0.00000000    0.00000000    0.00000000

     Total force =     0.000000     Total SCF correction =     0.000000


     Computing stress (Cartesian axis) and pressure

          total   stress  (Ry/bohr**3)                   (kbar)     P=   70.70
   0.00048064   0.00000000   0.00000000         70.70      0.00      0.00
   0.00000000   0.00048064   0.00000000          0.00     70.70      0.00
   0.00000000   0.00000000   0.00048064          0.00      0.00     70.70


     number of scf cycles    =   4
     number of bfgs steps    =   3

     enthalpy old            =     -95.0135882081 Ry
     enthalpy new            =     -95.0135900546 Ry

     CASE: enthalpy_new < enthalpy_old

     new trust radius        =       0.0016422258 bohr
     new conv_thr            =            1.0E-10 Ry

     new unit-cell volume =    162.38810 a.u.^3 (    24.06343 Ang^3 )
     density =      1.58646 g/cm^3

CELL_PARAMETERS (alat=  8.64397074)
  -0.500950457  -0.000000000   0.500950457
   0.000000000   0.500950457   0.500950457
  -0.500950457   0.500950457  -0.000000000

ATOMIC_POSITIONS (crystal)
Na       0.000000000   0.000000000   0.000000000



     Writing output data file na.fcc.save
     NEW-OLD atomic charge density approx. for the potential
     extrapolated charge    9.01738, renormalised to    9.00000

     total cpu time spent up to now is      116.7 secs

     per-process dynamical memory:    36.0 Mb

     Self-consistent Calculation

     iteration #  1     ecut=    40.00 Ry     beta=0.70
     Davidson diagonalization with overlap
     ethr =  1.00E-06,  avg # of iterations =  2.0

     total cpu time spent up to now is      120.4 secs

     total energy              =     -95.09067109 Ry
     Harris-Foulkes estimate   =     -94.97137897 Ry
     estimated scf accuracy    <       0.00010788 Ry

     iteration #  2     ecut=    40.00 Ry     beta=0.70
     Davidson diagonalization with overlap
     ethr =  1.20E-06,  avg # of iterations =  2.9

     total cpu time spent up to now is      124.2 secs

     total energy              =     -95.09086706 Ry
     Harris-Foulkes estimate   =     -95.09094650 Ry
     estimated scf accuracy    <       0.00018107 Ry

     iteration #  3     ecut=    40.00 Ry     beta=0.70
     Davidson diagonalization with overlap
     ethr =  1.20E-06,  avg # of iterations =  1.4

     total cpu time spent up to now is      127.0 secs

     total energy              =     -95.09086928 Ry
     Harris-Foulkes estimate   =     -95.09087891 Ry
     estimated scf accuracy    <       0.00003536 Ry

     iteration #  4     ecut=    40.00 Ry     beta=0.70
     Davidson diagonalization with overlap
     ethr =  3.93E-07,  avg # of iterations =  1.0

     total cpu time spent up to now is      129.6 secs

     total energy              =     -95.09086649 Ry
     Harris-Foulkes estimate   =     -95.09087045 Ry
     estimated scf accuracy    <       0.00001520 Ry

     iteration #  5     ecut=    40.00 Ry     beta=0.70
     Davidson diagonalization with overlap
     ethr =  1.69E-07,  avg # of iterations =  1.0

     total cpu time spent up to now is      132.2 secs

     total energy              =     -95.09086445 Ry
     Harris-Foulkes estimate   =     -95.09086680 Ry
     estimated scf accuracy    <       0.00000737 Ry

     iteration #  6     ecut=    40.00 Ry     beta=0.70
     Davidson diagonalization with overlap
     ethr =  8.19E-08,  avg # of iterations =  1.0

     total cpu time spent up to now is      134.9 secs

     total energy              =     -95.09086319 Ry
     Harris-Foulkes estimate   =     -95.09086467 Ry
     estimated scf accuracy    <       0.00000283 Ry

     iteration #  7     ecut=    40.00 Ry     beta=0.70
     Davidson diagonalization with overlap
     ethr =  3.15E-08,  avg # of iterations =  1.3

     total cpu time spent up to now is      137.6 secs

     total energy              =     -95.09086332 Ry
     Harris-Foulkes estimate   =     -95.09086348 Ry
     estimated scf accuracy    <       0.00000025 Ry

     iteration #  8     ecut=    40.00 Ry     beta=0.70
     Davidson diagonalization with overlap
     ethr =  2.81E-09,  avg # of iterations =  2.0

     total cpu time spent up to now is      140.8 secs

     total energy              =     -95.09086338 Ry
     Harris-Foulkes estimate   =     -95.09086338 Ry
     estimated scf accuracy    <          2.0E-09 Ry

     iteration #  9     ecut=    40.00 Ry     beta=0.70
     Davidson diagonalization with overlap
     ethr =  2.22E-11,  avg # of iterations =  2.0

     total cpu time spent up to now is      144.0 secs

     total energy              =     -95.09086338 Ry
     Harris-Foulkes estimate   =     -95.09086338 Ry
     estimated scf accuracy    <          5.5E-10 Ry

     iteration # 10     ecut=    40.00 Ry     beta=0.70
     Davidson diagonalization with overlap
     ethr =  6.16E-12,  avg # of iterations =  2.0

     total cpu time spent up to now is      147.1 secs

     End of self-consistent calculation

     Number of k-points >= 100: set verbosity='high' to print the bands.

     the Fermi energy is     3.8964 ev

!    total energy              =     -95.09086338 Ry
     Harris-Foulkes estimate   =     -95.09086338 Ry
     estimated scf accuracy    <          1.1E-11 Ry

     The total energy is the sum of the following terms:

     one-electron contribution =     -78.11588707 Ry
     hartree contribution      =      40.23956763 Ry
     xc contribution           =     -14.33268762 Ry
     ewald contribution        =     -42.88182235 Ry
     smearing contrib. (-TS)   =      -0.00003396 Ry

     convergence has been achieved in  10 iterations

     Forces acting on atoms (cartesian axes, Ry/au):

     atom    1 type  1   force =     0.00000000    0.00000000    0.00000000

     Total force =     0.000000     Total SCF correction =     0.000000


     Computing stress (Cartesian axis) and pressure

          total   stress  (Ry/bohr**3)                   (kbar)     P=   70.06
   0.00047624   0.00000000  -0.00000000         70.06      0.00     -0.00
  -0.00000000   0.00047624   0.00000000         -0.00     70.06      0.00
  -0.00000000   0.00000000   0.00047624         -0.00      0.00     70.06


     bfgs converged in   5 scf cycles and   4 bfgs steps
     (criteria: energy <  1.0E-04 Ry, force <  1.0E-03Ry/Bohr, cell <  5.0E-01kbar)

     End of BFGS Geometry Optimization

     Final enthalpy =     -95.0135909348 Ry
Begin final coordinates
     new unit-cell volume =    162.38810 a.u.^3 (    24.06343 Ang^3 )
     density =      1.58646 g/cm^3

CELL_PARAMETERS (alat=  8.64397074)
  -0.500950457  -0.000000000   0.500950457
   0.000000000   0.500950457   0.500950457
  -0.500950457   0.500950457  -0.000000000

ATOMIC_POSITIONS (crystal)
Na       0.000000000   0.000000000   0.000000000
End final coordinates



     A final scf calculation at the relaxed structure.
     The G-vectors are recalculated for the final unit cell
     Results may differ from those at the preceding step.

     Parallelization info
     --------------------
     sticks:   dense  smooth     PW     G-vecs:    dense   smooth      PW
     Min         205     105     37                 3896     1394     284
     Max         206     106     38                 3899     1395     285
     Sum         823     421    151                15593     5577    1139



     bravais-lattice index     =            2
     lattice parameter (alat)  =       8.6440  a.u.
     unit-cell volume          =     162.3881 (a.u.)^3
     number of atoms/cell      =            1
     number of atomic types    =            1
     number of electrons       =         9.00
     number of Kohn-Sham states=            9
     kinetic-energy cutoff     =      40.0000  Ry
     charge density cutoff     =     320.0000  Ry
     convergence threshold     =      1.0E-10
     mixing beta               =       0.7000
     number of iterations used =            8  plain     mixing
     Exchange-correlation      = SLA  PW   PBE  PBE ( 1  4  3  4 0 0)

     celldm(1)=   8.643971  celldm(2)=   0.000000  celldm(3)=   0.000000
     celldm(4)=   0.000000  celldm(5)=   0.000000  celldm(6)=   0.000000

     crystal axes: (cart. coord. in units of alat)
               a(1) = (  -0.500950  -0.000000   0.500950 )  
               a(2) = (   0.000000   0.500950   0.500950 )  
               a(3) = (  -0.500950   0.500950  -0.000000 )  

     reciprocal axes: (cart. coord. in units 2 pi/alat)
               b(1) = ( -0.998103 -0.998103  0.998103 )  
               b(2) = (  0.998103  0.998103  0.998103 )  
               b(3) = ( -0.998103  0.998103 -0.998103 )  


     PseudoPot. # 1 for Na read from file:
     /home/s1333534/quantum_espresso/qe-6.1/pseudo/Na_pbe_v1.uspp.F.UPF
     MD5 check sum: 76a99c7e9422403d3e93cbc85ab7bccb
     Pseudo is Ultrasoft, Zval =  9.0
     Generated by new atomic code, or converted to UPF format
     Using radial grid of  819 points,  5 beta functions with: 
                l(1) =   0
                l(2) =   0
                l(3) =   1
                l(4) =   1
                l(5) =   2
     Q(r) pseudized with  8 coefficients,  rinner =    1.250   1.250   1.250
                                                       1.250   1.250

     atomic species   valence    mass     pseudopotential
        Na             9.00    22.99000     Na( 1.00)

     48 Sym. Ops., with inversion, found



   Cartesian axes

     site n.     atom                  positions (alat units)
         1           Na  tau(   1) = (   0.0000000   0.0000000   0.0000000  )

     number of k points=   770  Marzari-Vanderbilt smearing, width (Ry)=  0.0200

     Number of k-points >= 100: set verbosity='high' to print them.

     Dense  grid:    15593 G-vectors     FFT dimensions: (  36,  36,  36)

     Smooth grid:     5577 G-vectors     FFT dimensions: (  25,  25,  25)

     Estimated max dynamical RAM per process >      20.93MB

     Estimated total allocated dynamical RAM >      83.71MB

     Initial potential from superposition of free atoms

     starting charge    8.99371, renormalised to    9.00000
     Starting wfc are    5 randomized atomic wfcs +    4 random wfc

     Writing output data file na.fcc.save

     total cpu time spent up to now is      150.5 secs

     per-process dynamical memory:    35.7 Mb

     Self-consistent Calculation

     iteration #  1     ecut=    40.00 Ry     beta=0.70
     Davidson diagonalization with overlap
     ethr =  1.00E-06,  avg # of iterations = 10.3

     total cpu time spent up to now is      159.3 secs

     total energy              =     -95.09067809 Ry
     Harris-Foulkes estimate   =     -95.09120750 Ry
     estimated scf accuracy    <       0.00142630 Ry

     iteration #  2     ecut=    40.00 Ry     beta=0.70
     Davidson diagonalization with overlap
     ethr =  1.58E-05,  avg # of iterations =  2.0

     total cpu time spent up to now is      162.4 secs

     total energy              =     -95.09086771 Ry
     Harris-Foulkes estimate   =     -95.09091268 Ry
     estimated scf accuracy    <       0.00016438 Ry

     iteration #  3     ecut=    40.00 Ry     beta=0.70
     Davidson diagonalization with overlap
     ethr =  1.83E-06,  avg # of iterations =  2.0

     total cpu time spent up to now is      165.5 secs

     total energy              =     -95.09088784 Ry
     Harris-Foulkes estimate   =     -95.09088930 Ry
     estimated scf accuracy    <       0.00000962 Ry

     iteration #  4     ecut=    40.00 Ry     beta=0.70
     Davidson diagonalization with overlap
     ethr =  1.07E-07,  avg # of iterations =  1.0

     total cpu time spent up to now is      168.1 secs

     total energy              =     -95.09088868 Ry
     Harris-Foulkes estimate   =     -95.09088862 Ry
     estimated scf accuracy    <       0.00000001 Ry

     iteration #  5     ecut=    40.00 Ry     beta=0.70
     Davidson diagonalization with overlap
     ethr =  1.34E-10,  avg # of iterations =  3.0

     total cpu time spent up to now is      171.8 secs

     total energy              =     -95.09088871 Ry
     Harris-Foulkes estimate   =     -95.09088871 Ry
     estimated scf accuracy    <          1.6E-09 Ry

     iteration #  6     ecut=    40.00 Ry     beta=0.70
     Davidson diagonalization with overlap
     ethr =  1.74E-11,  avg # of iterations =  1.6

     total cpu time spent up to now is      174.6 secs

     End of self-consistent calculation

     Number of k-points >= 100: set verbosity='high' to print the bands.

     the Fermi energy is     3.8964 ev

!    total energy              =     -95.09088871 Ry
     Harris-Foulkes estimate   =     -95.09088871 Ry
     estimated scf accuracy    <          5.2E-11 Ry

     The total energy is the sum of the following terms:

     one-electron contribution =     -78.11596411 Ry
     hartree contribution      =      40.23963581 Ry
     xc contribution           =     -14.33270409 Ry
     ewald contribution        =     -42.88182235 Ry
     smearing contrib. (-TS)   =      -0.00003397 Ry

     convergence has been achieved in   6 iterations

     Forces acting on atoms (cartesian axes, Ry/au):

     atom    1 type  1   force =     0.00000000    0.00000000    0.00000000

     Total force =     0.000000     Total SCF correction =     0.000000


     Computing stress (Cartesian axis) and pressure

          total   stress  (Ry/bohr**3)                   (kbar)     P=   70.29
   0.00047785  -0.00000000  -0.00000000         70.29     -0.00     -0.00
  -0.00000000   0.00047785  -0.00000000         -0.00     70.29     -0.00
  -0.00000000  -0.00000000   0.00047785         -0.00     -0.00     70.29


     Writing output data file na.fcc.save

     init_run     :      2.62s CPU      2.76s WALL (       2 calls)
     electrons    :    149.81s CPU    161.11s WALL (       6 calls)
     update_pot   :      0.61s CPU      0.61s WALL (       4 calls)
     forces       :      1.17s CPU      1.19s WALL (       6 calls)
     stress       :      6.37s CPU      6.39s WALL (       6 calls)

     Called by init_run:
     wfcinit      :      1.97s CPU      2.10s WALL (       2 calls)
     potinit      :      0.07s CPU      0.07s WALL (       2 calls)

     Called by electrons:
     c_bands      :    124.34s CPU    133.92s WALL (      50 calls)
     sum_band     :     24.55s CPU     26.26s WALL (      50 calls)
     v_of_rho     :      0.44s CPU      0.44s WALL (      55 calls)
     newd         :      0.51s CPU      0.51s WALL (      55 calls)
     mix_rho      :      0.03s CPU      0.03s WALL (      50 calls)

     Called by c_bands:
     init_us_2    :      7.01s CPU      6.25s WALL (   87780 calls)
     cegterg      :    117.70s CPU    127.37s WALL (   38500 calls)

     Called by sum_band:
     sum_band:bec :      0.08s CPU      0.12s WALL (   38500 calls)
     addusdens    :      0.61s CPU      0.61s WALL (      50 calls)

     Called by *egterg:
     h_psi        :     94.84s CPU    102.34s WALL (  117414 calls)
     s_psi        :      1.43s CPU      1.23s WALL (  117414 calls)
     g_psi        :      0.50s CPU      0.72s WALL (   77374 calls)
     cdiaghg      :     14.15s CPU     14.77s WALL (  112024 calls)

     Called by h_psi:
     h_psi:pot    :     94.37s CPU    101.82s WALL (  117414 calls)
     h_psi:calbec :      2.24s CPU      2.27s WALL (  117414 calls)
     vloc_psi     :     91.02s CPU     97.90s WALL (  117414 calls)
     add_vuspsi   :      0.94s CPU      1.37s WALL (  117414 calls)

     General routines
     calbec       :      3.59s CPU      3.73s WALL (  179014 calls)
     fft          :      0.24s CPU      0.25s WALL (     912 calls)
     ffts         :      0.01s CPU      0.01s WALL (     105 calls)
     fftw         :     98.16s CPU    103.11s WALL ( 2058444 calls)
     interpolate  :      0.04s CPU      0.04s WALL (     105 calls)
     davcio       :      0.01s CPU      0.01s WALL (    1540 calls)

     Parallel routines
     fft_scatter  :     25.98s CPU     31.11s WALL ( 2059461 calls)

     PWSCF        :  2m44.70s CPU     2m56.47s WALL


   This run was terminated on:  14:11:29  20Dec2017            

=------------------------------------------------------------------------------=
   JOB DONE.
=------------------------------------------------------------------------------=
