
     Program PWSCF v.6.1 (svn rev. 13369) starts on 20Dec2017 at 14: 2: 9 

     This program is part of the open-source Quantum ESPRESSO suite
     for quantum simulation of materials; please cite
         "P. Giannozzi et al., J. Phys.:Condens. Matter 21 395502 (2009);
          URL http://www.quantum-espresso.org", 
     in publications or presentations arising from this work. More details at
     http://www.quantum-espresso.org/quote

     Parallel version (MPI), running on     4 processors
     R & G space division:  proc/nbgrp/npool/nimage =       4
     Waiting for input...
     Reading input from standard input

     Current dimensions of program PWSCF are:
     Max number of different atomic species (ntypx) = 10
     Max number of k-points (npk) =  40000
     Max angular momentum in pseudopotentials (lmaxx) =  3

     Subspace diagonalization in iterative solution of the eigenvalue problem:
     a serial algorithm will be used


     Parallelization info
     --------------------
     sticks:   dense  smooth     PW     G-vecs:    dense   smooth      PW
     Min         214     108     37                 4215     1489     309
     Max         215     109     38                 4218     1491     312
     Sum         859     433    151                16865     5961    1243



     bravais-lattice index     =            2
     lattice parameter (alat)  =       8.8654  a.u.
     unit-cell volume          =     174.1972 (a.u.)^3
     number of atoms/cell      =            1
     number of atomic types    =            1
     number of electrons       =         9.00
     number of Kohn-Sham states=            9
     kinetic-energy cutoff     =      40.0000  Ry
     charge density cutoff     =     320.0000  Ry
     convergence threshold     =      1.0E-08
     mixing beta               =       0.7000
     number of iterations used =            8  plain     mixing
     Exchange-correlation      = SLA  PW   PBE  PBE ( 1  4  3  4 0 0)
     nstep                     =           50


     celldm(1)=   8.865442  celldm(2)=   0.000000  celldm(3)=   0.000000
     celldm(4)=   0.000000  celldm(5)=   0.000000  celldm(6)=   0.000000

     crystal axes: (cart. coord. in units of alat)
               a(1) = (  -0.500000   0.000000   0.500000 )  
               a(2) = (   0.000000   0.500000   0.500000 )  
               a(3) = (  -0.500000   0.500000   0.000000 )  

     reciprocal axes: (cart. coord. in units 2 pi/alat)
               b(1) = ( -1.000000 -1.000000  1.000000 )  
               b(2) = (  1.000000  1.000000  1.000000 )  
               b(3) = ( -1.000000  1.000000 -1.000000 )  


     PseudoPot. # 1 for Na read from file:
     /home/s1333534/quantum_espresso/qe-6.1/pseudo/Na_pbe_v1.uspp.F.UPF
     MD5 check sum: 76a99c7e9422403d3e93cbc85ab7bccb
     Pseudo is Ultrasoft, Zval =  9.0
     Generated by new atomic code, or converted to UPF format
     Using radial grid of  819 points,  5 beta functions with: 
                l(1) =   0
                l(2) =   0
                l(3) =   1
                l(4) =   1
                l(5) =   2
     Q(r) pseudized with  8 coefficients,  rinner =    1.250   1.250   1.250
                                                       1.250   1.250

     atomic species   valence    mass     pseudopotential
        Na             9.00    22.99000     Na( 1.00)

     48 Sym. Ops., with inversion, found



   Cartesian axes

     site n.     atom                  positions (alat units)
         1           Na  tau(   1) = (   0.0000000   0.0000000   0.0000000  )

     number of k points=   770  Marzari-Vanderbilt smearing, width (Ry)=  0.0200

     Number of k-points >= 100: set verbosity='high' to print them.

     Dense  grid:    16865 G-vectors     FFT dimensions: (  36,  36,  36)

     Smooth grid:     5961 G-vectors     FFT dimensions: (  25,  25,  25)

     Estimated max dynamical RAM per process >      22.45MB

     Estimated total allocated dynamical RAM >      89.78MB

     Initial potential from superposition of free atoms

     starting charge    8.99371, renormalised to    9.00000
     Starting wfc are    5 randomized atomic wfcs +    4 random wfc

     total cpu time spent up to now is        1.5 secs

     per-process dynamical memory:    31.9 Mb

     Self-consistent Calculation

     iteration #  1     ecut=    40.00 Ry     beta=0.70
     Davidson diagonalization with overlap
     ethr =  1.00E-02,  avg # of iterations =  5.3

     Threshold (ethr) on eigenvalues was too large:
     Diagonalizing with lowered threshold

     Davidson diagonalization with overlap
     ethr =  1.41E-05,  avg # of iterations =  3.3

     total cpu time spent up to now is       10.4 secs

     total energy              =     -95.09584273 Ry
     Harris-Foulkes estimate   =     -95.09627908 Ry
     estimated scf accuracy    <       0.00126354 Ry

     iteration #  2     ecut=    40.00 Ry     beta=0.70
     Davidson diagonalization with overlap
     ethr =  1.40E-05,  avg # of iterations =  2.0

     total cpu time spent up to now is       13.5 secs

     total energy              =     -95.09600430 Ry
     Harris-Foulkes estimate   =     -95.09604027 Ry
     estimated scf accuracy    <       0.00014149 Ry

     iteration #  3     ecut=    40.00 Ry     beta=0.70
     Davidson diagonalization with overlap
     ethr =  1.57E-06,  avg # of iterations =  2.1

     total cpu time spent up to now is       16.6 secs

     total energy              =     -95.09602200 Ry
     Harris-Foulkes estimate   =     -95.09602318 Ry
     estimated scf accuracy    <       0.00000823 Ry

     iteration #  4     ecut=    40.00 Ry     beta=0.70
     Davidson diagonalization with overlap
     ethr =  9.14E-08,  avg # of iterations =  1.0

     total cpu time spent up to now is       19.3 secs

     total energy              =     -95.09602276 Ry
     Harris-Foulkes estimate   =     -95.09602270 Ry
     estimated scf accuracy    <       0.00000001 Ry

     iteration #  5     ecut=    40.00 Ry     beta=0.70
     Davidson diagonalization with overlap
     ethr =  1.26E-10,  avg # of iterations =  3.0

     total cpu time spent up to now is       23.2 secs

     End of self-consistent calculation

     Number of k-points >= 100: set verbosity='high' to print the bands.

     the Fermi energy is     3.4464 ev

!    total energy              =     -95.09602280 Ry
     Harris-Foulkes estimate   =     -95.09602280 Ry
     estimated scf accuracy    <          1.8E-09 Ry

     The total energy is the sum of the following terms:

     one-electron contribution =     -79.83440566 Ry
     hartree contribution      =      40.94940555 Ry
     xc contribution           =     -14.32093682 Ry
     ewald contribution        =     -41.89005044 Ry
     smearing contrib. (-TS)   =      -0.00003543 Ry

     convergence has been achieved in   5 iterations

     Forces acting on atoms (cartesian axes, Ry/au):

     atom    1 type  1   force =     0.00000000    0.00000000    0.00000000

     Total force =     0.000000     Total SCF correction =     0.000000


     Computing stress (Cartesian axis) and pressure

          total   stress  (Ry/bohr**3)                   (kbar)     P=   50.72
   0.00034482  -0.00000000  -0.00000000         50.72     -0.00     -0.00
  -0.00000000   0.00034482   0.00000000         -0.00     50.72      0.00
  -0.00000000   0.00000000   0.00034482         -0.00      0.00     50.72


     BFGS Geometry Optimization

     number of scf cycles    =   1
     number of bfgs steps    =   0

     enthalpy new            =     -95.0368143569 Ry

     new trust radius        =       0.0003249871 bohr
     new conv_thr            =       0.0000000100 Ry

     new unit-cell volume =    174.26158 a.u.^3 (    25.82290 Ang^3 )
     density =      1.47837 g/cm^3

CELL_PARAMETERS (alat=  8.86544237)
  -0.500061558   0.000000000   0.500061558
  -0.000000000   0.500061558   0.500061558
  -0.500061558   0.500061558   0.000000000

ATOMIC_POSITIONS (crystal)
Na       0.000000000   0.000000000   0.000000000



     Writing output data file na.fcc.save
     NEW-OLD atomic charge density approx. for the potential
     extrapolated charge    9.00332, renormalised to    9.00000

     total cpu time spent up to now is       25.5 secs

     per-process dynamical memory:    40.1 Mb

     Self-consistent Calculation

     iteration #  1     ecut=    40.00 Ry     beta=0.70
     Davidson diagonalization with overlap
     ethr =  1.00E-06,  avg # of iterations =  2.0

     Threshold (ethr) on eigenvalues was too large:
     Diagonalizing with lowered threshold

     Davidson diagonalization with overlap
     ethr =  4.36E-08,  avg # of iterations =  1.0

     total cpu time spent up to now is       31.6 secs

     total energy              =     -95.09603794 Ry
     Harris-Foulkes estimate   =     -95.07268589 Ry
     estimated scf accuracy    <       0.00000392 Ry

     iteration #  2     ecut=    40.00 Ry     beta=0.70
     Davidson diagonalization with overlap
     ethr =  4.36E-08,  avg # of iterations =  2.9

     total cpu time spent up to now is       35.3 secs

     total energy              =     -95.09604510 Ry
     Harris-Foulkes estimate   =     -95.09604800 Ry
     estimated scf accuracy    <       0.00000662 Ry

     iteration #  3     ecut=    40.00 Ry     beta=0.70
     Davidson diagonalization with overlap
     ethr =  4.36E-08,  avg # of iterations =  1.5

     total cpu time spent up to now is       38.1 secs

     total energy              =     -95.09604518 Ry
     Harris-Foulkes estimate   =     -95.09604553 Ry
     estimated scf accuracy    <       0.00000130 Ry

     iteration #  4     ecut=    40.00 Ry     beta=0.70
     Davidson diagonalization with overlap
     ethr =  1.44E-08,  avg # of iterations =  1.0

     total cpu time spent up to now is       40.8 secs

     total energy              =     -95.09604506 Ry
     Harris-Foulkes estimate   =     -95.09604522 Ry
     estimated scf accuracy    <       0.00000055 Ry

     iteration #  5     ecut=    40.00 Ry     beta=0.70
     Davidson diagonalization with overlap
     ethr =  6.13E-09,  avg # of iterations =  1.0

     total cpu time spent up to now is       43.5 secs

     total energy              =     -95.09604499 Ry
     Harris-Foulkes estimate   =     -95.09604507 Ry
     estimated scf accuracy    <       0.00000024 Ry

     iteration #  6     ecut=    40.00 Ry     beta=0.70
     Davidson diagonalization with overlap
     ethr =  2.64E-09,  avg # of iterations =  1.0

     total cpu time spent up to now is       46.2 secs

     total energy              =     -95.09604495 Ry
     Harris-Foulkes estimate   =     -95.09604500 Ry
     estimated scf accuracy    <       0.00000009 Ry

     iteration #  7     ecut=    40.00 Ry     beta=0.70
     Davidson diagonalization with overlap
     ethr =  9.57E-10,  avg # of iterations =  2.0

     total cpu time spent up to now is       49.3 secs

     End of self-consistent calculation

     Number of k-points >= 100: set verbosity='high' to print the bands.

     the Fermi energy is     3.4441 ev

!    total energy              =     -95.09604496 Ry
     Harris-Foulkes estimate   =     -95.09604496 Ry
     estimated scf accuracy    <          2.0E-09 Ry

     The total energy is the sum of the following terms:

     one-electron contribution =     -79.84356695 Ry
     hartree contribution      =      40.95337835 Ry
     xc contribution           =     -14.32092719 Ry
     ewald contribution        =     -41.88489373 Ry
     smearing contrib. (-TS)   =      -0.00003544 Ry

     convergence has been achieved in   7 iterations

     Forces acting on atoms (cartesian axes, Ry/au):

     atom    1 type  1   force =     0.00000000    0.00000000    0.00000000

     Total force =     0.000000     Total SCF correction =     0.000000


     Computing stress (Cartesian axis) and pressure

          total   stress  (Ry/bohr**3)                   (kbar)     P=   51.11
   0.00034743   0.00000000  -0.00000000         51.11      0.00     -0.00
   0.00000000   0.00034743  -0.00000000          0.00     51.11     -0.00
  -0.00000000  -0.00000000   0.00034743         -0.00     -0.00     51.11


     number of scf cycles    =   2
     number of bfgs steps    =   1

     enthalpy old            =     -95.0368143569 Ry
     enthalpy new            =     -95.0368146468 Ry

     CASE: enthalpy_new < enthalpy_old


     WARNING: bfgs curvature condition failed, Theta= 0.523
     small trust_radius: resetting bfgs history

     new trust radius        =       0.0001000000 bohr
     new conv_thr            =            1.0E-10 Ry

     new unit-cell volume =    174.28138 a.u.^3 (    25.82584 Ang^3 )
     density =      1.47820 g/cm^3

CELL_PARAMETERS (alat=  8.86544237)
  -0.500080499   0.000000000   0.500080499
  -0.000000000   0.500080499   0.500080499
  -0.500080499   0.500080499   0.000000000

ATOMIC_POSITIONS (crystal)
Na       0.000000000   0.000000000   0.000000000



     Writing output data file na.fcc.save
     NEW-OLD atomic charge density approx. for the potential
     extrapolated charge    9.00102, renormalised to    9.00000

     total cpu time spent up to now is       51.6 secs

     per-process dynamical memory:    40.1 Mb

     Self-consistent Calculation

     iteration #  1     ecut=    40.00 Ry     beta=0.70
     Davidson diagonalization with overlap
     ethr =  1.00E-06,  avg # of iterations =  2.0

     Threshold (ethr) on eigenvalues was too large:
     Diagonalizing with lowered threshold

     Davidson diagonalization with overlap
     ethr =  4.68E-09,  avg # of iterations =  1.0

     total cpu time spent up to now is       57.5 secs

     total energy              =     -95.09605107 Ry
     Harris-Foulkes estimate   =     -95.08886418 Ry
     estimated scf accuracy    <       0.00000042 Ry

     iteration #  2     ecut=    40.00 Ry     beta=0.70
     Davidson diagonalization with overlap
     ethr =  4.68E-09,  avg # of iterations =  2.8

     total cpu time spent up to now is       61.1 secs

     total energy              =     -95.09605178 Ry
     Harris-Foulkes estimate   =     -95.09605207 Ry
     estimated scf accuracy    <       0.00000064 Ry

     iteration #  3     ecut=    40.00 Ry     beta=0.70
     Davidson diagonalization with overlap
     ethr =  4.68E-09,  avg # of iterations =  1.3

     total cpu time spent up to now is       63.9 secs

     total energy              =     -95.09605180 Ry
     Harris-Foulkes estimate   =     -95.09605183 Ry
     estimated scf accuracy    <       0.00000012 Ry

     iteration #  4     ecut=    40.00 Ry     beta=0.70
     Davidson diagonalization with overlap
     ethr =  1.31E-09,  avg # of iterations =  1.0

     total cpu time spent up to now is       66.6 secs

     total energy              =     -95.09605179 Ry
     Harris-Foulkes estimate   =     -95.09605180 Ry
     estimated scf accuracy    <       0.00000006 Ry

     iteration #  5     ecut=    40.00 Ry     beta=0.70
     Davidson diagonalization with overlap
     ethr =  6.18E-10,  avg # of iterations =  1.0

     total cpu time spent up to now is       69.2 secs

     total energy              =     -95.09605178 Ry
     Harris-Foulkes estimate   =     -95.09605179 Ry
     estimated scf accuracy    <       0.00000003 Ry

     iteration #  6     ecut=    40.00 Ry     beta=0.70
     Davidson diagonalization with overlap
     ethr =  2.97E-10,  avg # of iterations =  1.0

     total cpu time spent up to now is       71.9 secs

     total energy              =     -95.09605177 Ry
     Harris-Foulkes estimate   =     -95.09605178 Ry
     estimated scf accuracy    <          8.8E-09 Ry

     iteration #  7     ecut=    40.00 Ry     beta=0.70
     Davidson diagonalization with overlap
     ethr =  9.76E-11,  avg # of iterations =  1.7

     total cpu time spent up to now is       74.8 secs

     total energy              =     -95.09605177 Ry
     Harris-Foulkes estimate   =     -95.09605177 Ry
     estimated scf accuracy    <          6.6E-10 Ry

     iteration #  8     ecut=    40.00 Ry     beta=0.70
     Davidson diagonalization with overlap
     ethr =  7.35E-12,  avg # of iterations =  2.0

     total cpu time spent up to now is       78.0 secs

     End of self-consistent calculation

     Number of k-points >= 100: set verbosity='high' to print the bands.

     the Fermi energy is     3.4434 ev

!    total energy              =     -95.09605177 Ry
     Harris-Foulkes estimate   =     -95.09605177 Ry
     estimated scf accuracy    <          8.2E-14 Ry

     The total energy is the sum of the following terms:

     one-electron contribution =     -79.84612912 Ry
     hartree contribution      =      40.95428517 Ry
     xc contribution           =     -14.32086505 Ry
     ewald contribution        =     -41.88330734 Ry
     smearing contrib. (-TS)   =      -0.00003544 Ry

     convergence has been achieved in   8 iterations

     Forces acting on atoms (cartesian axes, Ry/au):

     atom    1 type  1   force =     0.00000000    0.00000000    0.00000000

     Total force =     0.000000     Total SCF correction =     0.000000


     Computing stress (Cartesian axis) and pressure

          total   stress  (Ry/bohr**3)                   (kbar)     P=   50.58
   0.00034385  -0.00000000  -0.00000000         50.58     -0.00     -0.00
  -0.00000000   0.00034385   0.00000000         -0.00     50.58      0.00
  -0.00000000   0.00000000   0.00034385         -0.00      0.00     50.58


     number of scf cycles    =   3
     number of bfgs steps    =   2

     enthalpy old            =     -95.0368146468 Ry
     enthalpy new            =     -95.0368147282 Ry

     CASE: enthalpy_new < enthalpy_old

     new trust radius        =       0.0001105542 bohr
     new conv_thr            =            1.0E-10 Ry

     new unit-cell volume =    174.30327 a.u.^3 (    25.82908 Ang^3 )
     density =      1.47802 g/cm^3

CELL_PARAMETERS (alat=  8.86544237)
  -0.500101438   0.000000000   0.500101438
  -0.000000000   0.500101438   0.500101438
  -0.500101438   0.500101438   0.000000000

ATOMIC_POSITIONS (crystal)
Na       0.000000000   0.000000000   0.000000000



     Writing output data file na.fcc.save
     NEW-OLD atomic charge density approx. for the potential
     extrapolated charge    9.00113, renormalised to    9.00000

     total cpu time spent up to now is       80.3 secs

     per-process dynamical memory:    40.1 Mb

     Self-consistent Calculation

     iteration #  1     ecut=    40.00 Ry     beta=0.70
     Davidson diagonalization with overlap
     ethr =  1.00E-06,  avg # of iterations =  2.0

     Threshold (ethr) on eigenvalues was too large:
     Diagonalizing with lowered threshold

     Davidson diagonalization with overlap
     ethr =  5.07E-09,  avg # of iterations =  1.0

     total cpu time spent up to now is       86.2 secs

     total energy              =     -95.09605849 Ry
     Harris-Foulkes estimate   =     -95.08811330 Ry
     estimated scf accuracy    <       0.00000046 Ry

     iteration #  2     ecut=    40.00 Ry     beta=0.70
     Davidson diagonalization with overlap
     ethr =  5.07E-09,  avg # of iterations =  2.9

     total cpu time spent up to now is       89.8 secs

     total energy              =     -95.09605932 Ry
     Harris-Foulkes estimate   =     -95.09605965 Ry
     estimated scf accuracy    <       0.00000077 Ry

     iteration #  3     ecut=    40.00 Ry     beta=0.70
     Davidson diagonalization with overlap
     ethr =  5.07E-09,  avg # of iterations =  1.5

     total cpu time spent up to now is       92.6 secs

     total energy              =     -95.09605933 Ry
     Harris-Foulkes estimate   =     -95.09605937 Ry
     estimated scf accuracy    <       0.00000015 Ry

     iteration #  4     ecut=    40.00 Ry     beta=0.70
     Davidson diagonalization with overlap
     ethr =  1.66E-09,  avg # of iterations =  1.0

     total cpu time spent up to now is       95.3 secs

     total energy              =     -95.09605931 Ry
     Harris-Foulkes estimate   =     -95.09605933 Ry
     estimated scf accuracy    <       0.00000007 Ry

     iteration #  5     ecut=    40.00 Ry     beta=0.70
     Davidson diagonalization with overlap
     ethr =  7.36E-10,  avg # of iterations =  1.0

     total cpu time spent up to now is       98.0 secs

     total energy              =     -95.09605930 Ry
     Harris-Foulkes estimate   =     -95.09605931 Ry
     estimated scf accuracy    <       0.00000003 Ry

     iteration #  6     ecut=    40.00 Ry     beta=0.70
     Davidson diagonalization with overlap
     ethr =  3.34E-10,  avg # of iterations =  1.0

     total cpu time spent up to now is      100.6 secs

     total energy              =     -95.09605930 Ry
     Harris-Foulkes estimate   =     -95.09605931 Ry
     estimated scf accuracy    <       0.00000001 Ry

     iteration #  7     ecut=    40.00 Ry     beta=0.70
     Davidson diagonalization with overlap
     ethr =  1.22E-10,  avg # of iterations =  1.3

     total cpu time spent up to now is      103.4 secs

     total energy              =     -95.09605930 Ry
     Harris-Foulkes estimate   =     -95.09605930 Ry
     estimated scf accuracy    <          1.0E-09 Ry

     iteration #  8     ecut=    40.00 Ry     beta=0.70
     Davidson diagonalization with overlap
     ethr =  1.15E-11,  avg # of iterations =  2.0

     total cpu time spent up to now is      106.6 secs

     End of self-consistent calculation

     Number of k-points >= 100: set verbosity='high' to print the bands.

     the Fermi energy is     3.4426 ev

!    total energy              =     -95.09605930 Ry
     Harris-Foulkes estimate   =     -95.09605930 Ry
     estimated scf accuracy    <          2.8E-13 Ry

     The total energy is the sum of the following terms:

     one-electron contribution =     -79.84917271 Ry
     hartree contribution      =      40.95554733 Ry
     xc contribution           =     -14.32084479 Ry
     ewald contribution        =     -41.88155369 Ry
     smearing contrib. (-TS)   =      -0.00003544 Ry

     convergence has been achieved in   8 iterations

     Forces acting on atoms (cartesian axes, Ry/au):

     atom    1 type  1   force =     0.00000000    0.00000000    0.00000000

     Total force =     0.000000     Total SCF correction =     0.000000


     Computing stress (Cartesian axis) and pressure

          total   stress  (Ry/bohr**3)                   (kbar)     P=   50.55
   0.00034365   0.00000000   0.00000000         50.55      0.00      0.00
   0.00000000   0.00034365   0.00000000          0.00     50.55      0.00
   0.00000000   0.00000000   0.00034365          0.00      0.00     50.55


     number of scf cycles    =   4
     number of bfgs steps    =   3

     enthalpy old            =     -95.0368147282 Ry
     enthalpy new            =     -95.0368148124 Ry

     CASE: enthalpy_new < enthalpy_old


     WARNING: bfgs curvature condition failed, Theta= 0.843
     new trust radius        =       0.0001216121 bohr
     new conv_thr            =            1.0E-10 Ry

     new unit-cell volume =    174.32736 a.u.^3 (    25.83265 Ang^3 )
     density =      1.47781 g/cm^3

CELL_PARAMETERS (alat=  8.86544237)
  -0.500124471   0.000000000   0.500124471
  -0.000000000   0.500124471   0.500124471
  -0.500124471   0.500124471   0.000000000

ATOMIC_POSITIONS (crystal)
Na       0.000000000   0.000000000   0.000000000



     Writing output data file na.fcc.save
     NEW-OLD atomic charge density approx. for the potential
     extrapolated charge    9.00124, renormalised to    9.00000

     total cpu time spent up to now is      108.9 secs

     per-process dynamical memory:    40.1 Mb

     Self-consistent Calculation

     iteration #  1     ecut=    40.00 Ry     beta=0.70
     Davidson diagonalization with overlap
     ethr =  1.00E-06,  avg # of iterations =  2.0

     Threshold (ethr) on eigenvalues was too large:
     Diagonalizing with lowered threshold

     Davidson diagonalization with overlap
     ethr =  6.14E-09,  avg # of iterations =  1.0

     total cpu time spent up to now is      114.7 secs

     total energy              =     -95.09606659 Ry
     Harris-Foulkes estimate   =     -95.08732701 Ry
     estimated scf accuracy    <       0.00000055 Ry

     iteration #  2     ecut=    40.00 Ry     beta=0.70
     Davidson diagonalization with overlap
     ethr =  6.15E-09,  avg # of iterations =  2.9

     total cpu time spent up to now is      118.4 secs

     total energy              =     -95.09606759 Ry
     Harris-Foulkes estimate   =     -95.09606800 Ry
     estimated scf accuracy    <       0.00000093 Ry

     iteration #  3     ecut=    40.00 Ry     beta=0.70
     Davidson diagonalization with overlap
     ethr =  6.15E-09,  avg # of iterations =  1.5

     total cpu time spent up to now is      121.2 secs

     total energy              =     -95.09606760 Ry
     Harris-Foulkes estimate   =     -95.09606765 Ry
     estimated scf accuracy    <       0.00000018 Ry

     iteration #  4     ecut=    40.00 Ry     beta=0.70
     Davidson diagonalization with overlap
     ethr =  2.01E-09,  avg # of iterations =  1.0

     total cpu time spent up to now is      123.8 secs

     total energy              =     -95.09606759 Ry
     Harris-Foulkes estimate   =     -95.09606761 Ry
     estimated scf accuracy    <       0.00000008 Ry

     iteration #  5     ecut=    40.00 Ry     beta=0.70
     Davidson diagonalization with overlap
     ethr =  8.91E-10,  avg # of iterations =  1.0

     total cpu time spent up to now is      126.5 secs

     total energy              =     -95.09606758 Ry
     Harris-Foulkes estimate   =     -95.09606759 Ry
     estimated scf accuracy    <       0.00000004 Ry

     iteration #  6     ecut=    40.00 Ry     beta=0.70
     Davidson diagonalization with overlap
     ethr =  4.05E-10,  avg # of iterations =  1.0

     total cpu time spent up to now is      129.1 secs

     total energy              =     -95.09606757 Ry
     Harris-Foulkes estimate   =     -95.09606758 Ry
     estimated scf accuracy    <       0.00000001 Ry

     iteration #  7     ecut=    40.00 Ry     beta=0.70
     Davidson diagonalization with overlap
     ethr =  1.48E-10,  avg # of iterations =  1.3

     total cpu time spent up to now is      131.9 secs

     total energy              =     -95.09606757 Ry
     Harris-Foulkes estimate   =     -95.09606757 Ry
     estimated scf accuracy    <          1.3E-09 Ry

     iteration #  8     ecut=    40.00 Ry     beta=0.70
     Davidson diagonalization with overlap
     ethr =  1.41E-11,  avg # of iterations =  2.0

     total cpu time spent up to now is      135.1 secs

     End of self-consistent calculation

     Number of k-points >= 100: set verbosity='high' to print the bands.

     the Fermi energy is     3.4417 ev

!    total energy              =     -95.09606757 Ry
     Harris-Foulkes estimate   =     -95.09606757 Ry
     estimated scf accuracy    <          6.3E-13 Ry

     The total energy is the sum of the following terms:

     one-electron contribution =     -79.85251965 Ry
     hartree contribution      =      40.95693470 Ry
     xc contribution           =     -14.32082234 Ry
     ewald contribution        =     -41.87962485 Ry
     smearing contrib. (-TS)   =      -0.00003544 Ry

     convergence has been achieved in   8 iterations

     Forces acting on atoms (cartesian axes, Ry/au):

     atom    1 type  1   force =     0.00000000    0.00000000    0.00000000

     Total force =     0.000000     Total SCF correction =     0.000000


     Computing stress (Cartesian axis) and pressure

          total   stress  (Ry/bohr**3)                   (kbar)     P=   50.52
   0.00034341   0.00000000   0.00000000         50.52      0.00      0.00
  -0.00000000   0.00034341  -0.00000000         -0.00     50.52     -0.00
   0.00000000  -0.00000000   0.00034341          0.00     -0.00     50.52


     number of scf cycles    =   5
     number of bfgs steps    =   4

     enthalpy old            =     -95.0368148124 Ry
     enthalpy new            =     -95.0368148991 Ry

     CASE: enthalpy_new < enthalpy_old

     new trust radius        =       0.0001824224 bohr
     new conv_thr            =            1.0E-10 Ry

     new unit-cell volume =    174.36349 a.u.^3 (    25.83800 Ang^3 )
     density =      1.47751 g/cm^3

CELL_PARAMETERS (alat=  8.86544237)
  -0.500159021   0.000000000   0.500159021
  -0.000000000   0.500159021   0.500159021
  -0.500159021   0.500159021   0.000000000

ATOMIC_POSITIONS (crystal)
Na       0.000000000   0.000000000   0.000000000



     Writing output data file na.fcc.save
     NEW-OLD atomic charge density approx. for the potential
     extrapolated charge    9.00186, renormalised to    9.00000

     total cpu time spent up to now is      137.4 secs

     per-process dynamical memory:    40.1 Mb

     Self-consistent Calculation

     iteration #  1     ecut=    40.00 Ry     beta=0.70
     Davidson diagonalization with overlap
     ethr =  1.00E-06,  avg # of iterations =  2.0

     Threshold (ethr) on eigenvalues was too large:
     Diagonalizing with lowered threshold

     Davidson diagonalization with overlap
     ethr =  1.38E-08,  avg # of iterations =  1.0

     total cpu time spent up to now is      143.3 secs

     total energy              =     -95.09607775 Ry
     Harris-Foulkes estimate   =     -95.08296933 Ry
     estimated scf accuracy    <       0.00000124 Ry

     iteration #  2     ecut=    40.00 Ry     beta=0.70
     Davidson diagonalization with overlap
     ethr =  1.38E-08,  avg # of iterations =  2.9

     total cpu time spent up to now is      146.9 secs

     total energy              =     -95.09608001 Ry
     Harris-Foulkes estimate   =     -95.09608093 Ry
     estimated scf accuracy    <       0.00000209 Ry

     iteration #  3     ecut=    40.00 Ry     beta=0.70
     Davidson diagonalization with overlap
     ethr =  1.38E-08,  avg # of iterations =  1.5

     total cpu time spent up to now is      149.8 secs

     total energy              =     -95.09608004 Ry
     Harris-Foulkes estimate   =     -95.09608015 Ry
     estimated scf accuracy    <       0.00000041 Ry

     iteration #  4     ecut=    40.00 Ry     beta=0.70
     Davidson diagonalization with overlap
     ethr =  4.52E-09,  avg # of iterations =  1.0

     total cpu time spent up to now is      152.4 secs

     total energy              =     -95.09608001 Ry
     Harris-Foulkes estimate   =     -95.09608006 Ry
     estimated scf accuracy    <       0.00000018 Ry

     iteration #  5     ecut=    40.00 Ry     beta=0.70
     Davidson diagonalization with overlap
     ethr =  2.00E-09,  avg # of iterations =  1.0

     total cpu time spent up to now is      155.1 secs

     total energy              =     -95.09607998 Ry
     Harris-Foulkes estimate   =     -95.09608001 Ry
     estimated scf accuracy    <       0.00000008 Ry

     iteration #  6     ecut=    40.00 Ry     beta=0.70
     Davidson diagonalization with overlap
     ethr =  9.12E-10,  avg # of iterations =  1.0

     total cpu time spent up to now is      157.8 secs

     total energy              =     -95.09607997 Ry
     Harris-Foulkes estimate   =     -95.09607999 Ry
     estimated scf accuracy    <       0.00000003 Ry

     iteration #  7     ecut=    40.00 Ry     beta=0.70
     Davidson diagonalization with overlap
     ethr =  3.33E-10,  avg # of iterations =  1.2

     total cpu time spent up to now is      160.5 secs

     total energy              =     -95.09607997 Ry
     Harris-Foulkes estimate   =     -95.09607997 Ry
     estimated scf accuracy    <          2.9E-09 Ry

     iteration #  8     ecut=    40.00 Ry     beta=0.70
     Davidson diagonalization with overlap
     ethr =  3.26E-11,  avg # of iterations =  2.0

     total cpu time spent up to now is      163.8 secs

     End of self-consistent calculation

     Number of k-points >= 100: set verbosity='high' to print the bands.

     the Fermi energy is     3.4405 ev

!    total energy              =     -95.09607997 Ry
     Harris-Foulkes estimate   =     -95.09607997 Ry
     estimated scf accuracy    <          1.7E-12 Ry

     The total energy is the sum of the following terms:

     one-electron contribution =     -79.85753957 Ry
     hartree contribution      =      40.95901563 Ry
     xc contribution           =     -14.32078867 Ry
     ewald contribution        =     -41.87673192 Ry
     smearing contrib. (-TS)   =      -0.00003545 Ry

     convergence has been achieved in   8 iterations

     Forces acting on atoms (cartesian axes, Ry/au):

     atom    1 type  1   force =     0.00000000    0.00000000    0.00000000

     Total force =     0.000000     Total SCF correction =     0.000000


     Computing stress (Cartesian axis) and pressure

          total   stress  (Ry/bohr**3)                   (kbar)     P=   50.47
   0.00034306   0.00000000   0.00000000         50.47      0.00      0.00
   0.00000000   0.00034306  -0.00000000          0.00     50.47     -0.00
   0.00000000  -0.00000000   0.00034306          0.00     -0.00     50.47


     bfgs converged in   6 scf cycles and   5 bfgs steps
     (criteria: energy <  1.0E-04 Ry, force <  1.0E-03Ry/Bohr, cell <  5.0E-01kbar)

     End of BFGS Geometry Optimization

     Final enthalpy =     -95.0368150177 Ry
Begin final coordinates
     new unit-cell volume =    174.36349 a.u.^3 (    25.83800 Ang^3 )
     density =      1.47751 g/cm^3

CELL_PARAMETERS (alat=  8.86544237)
  -0.500159021   0.000000000   0.500159021
  -0.000000000   0.500159021   0.500159021
  -0.500159021   0.500159021   0.000000000

ATOMIC_POSITIONS (crystal)
Na       0.000000000   0.000000000   0.000000000
End final coordinates



     A final scf calculation at the relaxed structure.
     The G-vectors are recalculated for the final unit cell
     Results may differ from those at the preceding step.

     Parallelization info
     --------------------
     sticks:   dense  smooth     PW     G-vecs:    dense   smooth      PW
     Min         214     108     37                 4215     1489     309
     Max         215     109     38                 4218     1491     312
     Sum         859     433    151                16865     5961    1243



     bravais-lattice index     =            2
     lattice parameter (alat)  =       8.8654  a.u.
     unit-cell volume          =     174.3635 (a.u.)^3
     number of atoms/cell      =            1
     number of atomic types    =            1
     number of electrons       =         9.00
     number of Kohn-Sham states=            9
     kinetic-energy cutoff     =      40.0000  Ry
     charge density cutoff     =     320.0000  Ry
     convergence threshold     =      1.0E-10
     mixing beta               =       0.7000
     number of iterations used =            8  plain     mixing
     Exchange-correlation      = SLA  PW   PBE  PBE ( 1  4  3  4 0 0)

     celldm(1)=   8.865442  celldm(2)=   0.000000  celldm(3)=   0.000000
     celldm(4)=   0.000000  celldm(5)=   0.000000  celldm(6)=   0.000000

     crystal axes: (cart. coord. in units of alat)
               a(1) = (  -0.500159   0.000000   0.500159 )  
               a(2) = (  -0.000000   0.500159   0.500159 )  
               a(3) = (  -0.500159   0.500159   0.000000 )  

     reciprocal axes: (cart. coord. in units 2 pi/alat)
               b(1) = ( -0.999682 -0.999682  0.999682 )  
               b(2) = (  0.999682  0.999682  0.999682 )  
               b(3) = ( -0.999682  0.999682 -0.999682 )  


     PseudoPot. # 1 for Na read from file:
     /home/s1333534/quantum_espresso/qe-6.1/pseudo/Na_pbe_v1.uspp.F.UPF
     MD5 check sum: 76a99c7e9422403d3e93cbc85ab7bccb
     Pseudo is Ultrasoft, Zval =  9.0
     Generated by new atomic code, or converted to UPF format
     Using radial grid of  819 points,  5 beta functions with: 
                l(1) =   0
                l(2) =   0
                l(3) =   1
                l(4) =   1
                l(5) =   2
     Q(r) pseudized with  8 coefficients,  rinner =    1.250   1.250   1.250
                                                       1.250   1.250

     atomic species   valence    mass     pseudopotential
        Na             9.00    22.99000     Na( 1.00)

     48 Sym. Ops., with inversion, found



   Cartesian axes

     site n.     atom                  positions (alat units)
         1           Na  tau(   1) = (  -0.0000000   0.0000000   0.0000000  )

     number of k points=   770  Marzari-Vanderbilt smearing, width (Ry)=  0.0200

     Number of k-points >= 100: set verbosity='high' to print them.

     Dense  grid:    16865 G-vectors     FFT dimensions: (  36,  36,  36)

     Smooth grid:     5961 G-vectors     FFT dimensions: (  25,  25,  25)

     Estimated max dynamical RAM per process >      22.45MB

     Estimated total allocated dynamical RAM >      89.78MB

     Initial potential from superposition of free atoms

     starting charge    8.99371, renormalised to    9.00000
     Starting wfc are    5 randomized atomic wfcs +    4 random wfc

     Writing output data file na.fcc.save

     total cpu time spent up to now is      167.3 secs

     per-process dynamical memory:    39.0 Mb

     Self-consistent Calculation

     iteration #  1     ecut=    40.00 Ry     beta=0.70
     Davidson diagonalization with overlap
     c_bands:  1 eigenvalues not converged
     ethr =  1.00E-06,  avg # of iterations = 10.5

     total cpu time spent up to now is      177.8 secs

     total energy              =     -95.09589869 Ry
     Harris-Foulkes estimate   =     -95.09634124 Ry
     estimated scf accuracy    <       0.00126773 Ry

     iteration #  2     ecut=    40.00 Ry     beta=0.70
     Davidson diagonalization with overlap
     ethr =  1.41E-05,  avg # of iterations =  2.0

     total cpu time spent up to now is      181.0 secs

     total energy              =     -95.09606617 Ry
     Harris-Foulkes estimate   =     -95.09610450 Ry
     estimated scf accuracy    <       0.00014568 Ry

     iteration #  3     ecut=    40.00 Ry     beta=0.70
     Davidson diagonalization with overlap
     ethr =  1.62E-06,  avg # of iterations =  2.0

     total cpu time spent up to now is      184.1 secs

     total energy              =     -95.09608355 Ry
     Harris-Foulkes estimate   =     -95.09608489 Ry
     estimated scf accuracy    <       0.00000862 Ry

     iteration #  4     ecut=    40.00 Ry     beta=0.70
     Davidson diagonalization with overlap
     ethr =  9.57E-08,  avg # of iterations =  1.0

     total cpu time spent up to now is      186.8 secs

     total energy              =     -95.09608432 Ry
     Harris-Foulkes estimate   =     -95.09608425 Ry
     estimated scf accuracy    <       0.00000001 Ry

     iteration #  5     ecut=    40.00 Ry     beta=0.70
     Davidson diagonalization with overlap
     ethr =  1.15E-10,  avg # of iterations =  3.0

     total cpu time spent up to now is      190.5 secs

     total energy              =     -95.09608435 Ry
     Harris-Foulkes estimate   =     -95.09608434 Ry
     estimated scf accuracy    <          1.4E-09 Ry

     iteration #  6     ecut=    40.00 Ry     beta=0.70
     Davidson diagonalization with overlap
     ethr =  1.56E-11,  avg # of iterations =  1.6

     total cpu time spent up to now is      193.4 secs

     End of self-consistent calculation

     Number of k-points >= 100: set verbosity='high' to print the bands.

     the Fermi energy is     3.4405 ev

!    total energy              =     -95.09608435 Ry
     Harris-Foulkes estimate   =     -95.09608435 Ry
     estimated scf accuracy    <          4.6E-11 Ry

     The total energy is the sum of the following terms:

     one-electron contribution =     -79.85756547 Ry
     hartree contribution      =      40.95904301 Ry
     xc contribution           =     -14.32079453 Ry
     ewald contribution        =     -41.87673192 Ry
     smearing contrib. (-TS)   =      -0.00003545 Ry

     convergence has been achieved in   6 iterations

     Forces acting on atoms (cartesian axes, Ry/au):

     atom    1 type  1   force =     0.00000000    0.00000000    0.00000000

     Total force =     0.000000     Total SCF correction =     0.000000


     Computing stress (Cartesian axis) and pressure

          total   stress  (Ry/bohr**3)                   (kbar)     P=   50.54
   0.00034353   0.00000000  -0.00000000         50.54      0.00     -0.00
   0.00000000   0.00034353  -0.00000000          0.00     50.54     -0.00
  -0.00000000  -0.00000000   0.00034353         -0.00     -0.00     50.54


     Writing output data file na.fcc.save

     init_run     :      2.62s CPU      2.82s WALL (       2 calls)
     electrons    :    161.90s CPU    176.95s WALL (       7 calls)
     update_pot   :      0.79s CPU      0.81s WALL (       5 calls)
     forces       :      1.44s CPU      1.48s WALL (       7 calls)
     stress       :      7.97s CPU      8.11s WALL (       7 calls)

     Called by init_run:
     wfcinit      :      1.95s CPU      2.15s WALL (       2 calls)
     potinit      :      0.07s CPU      0.07s WALL (       2 calls)

     Called by electrons:
     c_bands      :    133.49s CPU    146.17s WALL (      56 calls)
     sum_band     :     27.46s CPU     29.80s WALL (      56 calls)
     v_of_rho     :      0.45s CPU      0.46s WALL (      57 calls)
     newd         :      0.55s CPU      0.56s WALL (      57 calls)
     mix_rho      :      0.03s CPU      0.03s WALL (      56 calls)

     Called by c_bands:
     init_us_2    :      8.90s CPU      8.02s WALL (   98560 calls)
     cegterg      :    125.46s CPU    138.09s WALL (   43120 calls)

     Called by sum_band:
     sum_band:bec :      0.10s CPU      0.14s WALL (   43120 calls)
     addusdens    :      0.72s CPU      0.75s WALL (      56 calls)

     Called by *egterg:
     h_psi        :    100.78s CPU    110.46s WALL (  124707 calls)
     s_psi        :      1.56s CPU      1.49s WALL (  124707 calls)
     g_psi        :      0.64s CPU      0.86s WALL (   80047 calls)
     cdiaghg      :     14.81s CPU     15.45s WALL (  114697 calls)

     Called by h_psi:
     h_psi:pot    :    100.32s CPU    109.82s WALL (  124707 calls)
     h_psi:calbec :      2.38s CPU      2.61s WALL (  124707 calls)
     vloc_psi     :     96.39s CPU    105.23s WALL (  124707 calls)
     add_vuspsi   :      1.36s CPU      1.67s WALL (  124707 calls)

     General routines
     calbec       :      3.66s CPU      4.02s WALL (  194777 calls)
     fft          :      0.23s CPU      0.24s WALL (     969 calls)
     ffts         :      0.01s CPU      0.01s WALL (     113 calls)
     fftw         :    104.25s CPU    110.95s WALL ( 2220382 calls)
     interpolate  :      0.03s CPU      0.04s WALL (     113 calls)
     davcio       :      0.01s CPU      0.01s WALL (    1540 calls)

     Parallel routines
     fft_scatter  :     28.06s CPU     32.56s WALL ( 2221464 calls)

     PWSCF        :  2m59.54s CPU     3m15.32s WALL


   This run was terminated on:  14: 5:24  20Dec2017            

=------------------------------------------------------------------------------=
   JOB DONE.
=------------------------------------------------------------------------------=
