
     Program PWSCF v.6.1 (svn rev. 13369) starts on 20Dec2017 at 13:42: 5 

     This program is part of the open-source Quantum ESPRESSO suite
     for quantum simulation of materials; please cite
         "P. Giannozzi et al., J. Phys.:Condens. Matter 21 395502 (2009);
          URL http://www.quantum-espresso.org", 
     in publications or presentations arising from this work. More details at
     http://www.quantum-espresso.org/quote

     Parallel version (MPI), running on     4 processors
     R & G space division:  proc/nbgrp/npool/nimage =       4
     Waiting for input...
     Reading input from standard input

     Current dimensions of program PWSCF are:
     Max number of different atomic species (ntypx) = 10
     Max number of k-points (npk) =  40000
     Max angular momentum in pseudopotentials (lmaxx) =  3

     Subspace diagonalization in iterative solution of the eigenvalue problem:
     a serial algorithm will be used


     Parallelization info
     --------------------
     sticks:   dense  smooth     PW     G-vecs:    dense   smooth      PW
     Min         256     127     40                 5397     1907     362
     Max         257     128     41                 5400     1909     366
     Sum        1027     511    163                21595     7631    1459



     bravais-lattice index     =            2
     lattice parameter (alat)  =       9.6111  a.u.
     unit-cell volume          =     221.9540 (a.u.)^3
     number of atoms/cell      =            1
     number of atomic types    =            1
     number of electrons       =         9.00
     number of Kohn-Sham states=            9
     kinetic-energy cutoff     =      40.0000  Ry
     charge density cutoff     =     320.0000  Ry
     convergence threshold     =      1.0E-08
     mixing beta               =       0.7000
     number of iterations used =            8  plain     mixing
     Exchange-correlation      = SLA  PW   PBE  PBE ( 1  4  3  4 0 0)
     nstep                     =           50


     celldm(1)=   9.611127  celldm(2)=   0.000000  celldm(3)=   0.000000
     celldm(4)=   0.000000  celldm(5)=   0.000000  celldm(6)=   0.000000

     crystal axes: (cart. coord. in units of alat)
               a(1) = (  -0.500000   0.000000   0.500000 )  
               a(2) = (   0.000000   0.500000   0.500000 )  
               a(3) = (  -0.500000   0.500000   0.000000 )  

     reciprocal axes: (cart. coord. in units 2 pi/alat)
               b(1) = ( -1.000000 -1.000000  1.000000 )  
               b(2) = (  1.000000  1.000000  1.000000 )  
               b(3) = ( -1.000000  1.000000 -1.000000 )  


     PseudoPot. # 1 for Na read from file:
     /home/s1333534/quantum_espresso/qe-6.1/pseudo/Na_pbe_v1.uspp.F.UPF
     MD5 check sum: 76a99c7e9422403d3e93cbc85ab7bccb
     Pseudo is Ultrasoft, Zval =  9.0
     Generated by new atomic code, or converted to UPF format
     Using radial grid of  819 points,  5 beta functions with: 
                l(1) =   0
                l(2) =   0
                l(3) =   1
                l(4) =   1
                l(5) =   2
     Q(r) pseudized with  8 coefficients,  rinner =    1.250   1.250   1.250
                                                       1.250   1.250

     atomic species   valence    mass     pseudopotential
        Na             9.00    22.99000     Na( 1.00)

     48 Sym. Ops., with inversion, found



   Cartesian axes

     site n.     atom                  positions (alat units)
         1           Na  tau(   1) = (   0.0000000   0.0000000   0.0000000  )

     number of k points=   770  Marzari-Vanderbilt smearing, width (Ry)=  0.0200

     Number of k-points >= 100: set verbosity='high' to print them.

     Dense  grid:    21595 G-vectors     FFT dimensions: (  40,  40,  40)

     Smooth grid:     7631 G-vectors     FFT dimensions: (  27,  27,  27)

     Estimated max dynamical RAM per process >      28.68MB

     Estimated total allocated dynamical RAM >     114.71MB

     Initial potential from superposition of free atoms

     starting charge    8.99371, renormalised to    9.00000
     Starting wfc are    5 randomized atomic wfcs +    4 random wfc

     total cpu time spent up to now is        2.1 secs

     per-process dynamical memory:    37.5 Mb

     Self-consistent Calculation

     iteration #  1     ecut=    40.00 Ry     beta=0.70
     Davidson diagonalization with overlap
     ethr =  1.00E-02,  avg # of iterations =  5.3

     Threshold (ethr) on eigenvalues was too large:
     Diagonalizing with lowered threshold

     Davidson diagonalization with overlap
     ethr =  1.05E-05,  avg # of iterations =  3.7

     total cpu time spent up to now is       14.9 secs

     total energy              =     -95.10545603 Ry
     Harris-Foulkes estimate   =     -95.10572092 Ry
     estimated scf accuracy    <       0.00094115 Ry

     iteration #  2     ecut=    40.00 Ry     beta=0.70
     Davidson diagonalization with overlap
     ethr =  1.05E-05,  avg # of iterations =  2.0

     total cpu time spent up to now is       19.3 secs

     total energy              =     -95.10556603 Ry
     Harris-Foulkes estimate   =     -95.10559089 Ry
     estimated scf accuracy    <       0.00010368 Ry

     iteration #  3     ecut=    40.00 Ry     beta=0.70
     Davidson diagonalization with overlap
     ethr =  1.15E-06,  avg # of iterations =  2.2

     total cpu time spent up to now is       23.9 secs

     total energy              =     -95.10557830 Ry
     Harris-Foulkes estimate   =     -95.10557946 Ry
     estimated scf accuracy    <       0.00000621 Ry

     iteration #  4     ecut=    40.00 Ry     beta=0.70
     Davidson diagonalization with overlap
     ethr =  6.90E-08,  avg # of iterations =  1.0

     total cpu time spent up to now is       27.8 secs

     End of self-consistent calculation

     Number of k-points >= 100: set verbosity='high' to print the bands.

     the Fermi energy is     2.1348 ev

!    total energy              =     -95.10557888 Ry
     Harris-Foulkes estimate   =     -95.10557883 Ry
     estimated scf accuracy    <          9.4E-09 Ry

     The total energy is the sum of the following terms:

     one-electron contribution =     -85.49674232 Ry
     hartree contribution      =      43.31562047 Ry
     xc contribution           =     -14.28442626 Ry
     ewald contribution        =     -38.63998827 Ry
     smearing contrib. (-TS)   =      -0.00004251 Ry

     convergence has been achieved in   4 iterations

     Forces acting on atoms (cartesian axes, Ry/au):

     atom    1 type  1   force =     0.00000000    0.00000000    0.00000000

     Total force =     0.000000     Total SCF correction =     0.000000


     Computing stress (Cartesian axis) and pressure

          total   stress  (Ry/bohr**3)                   (kbar)     P=    8.25
   0.00005605   0.00000000  -0.00000000          8.25      0.00     -0.00
   0.00000000   0.00005605   0.00000000          0.00      8.25      0.00
  -0.00000000   0.00000000   0.00005605         -0.00      0.00      8.25


     BFGS Geometry Optimization

     number of scf cycles    =   1
     number of bfgs steps    =   0

     enthalpy new            =     -95.0904907575 Ry

     new trust radius        =       0.0008883361 bohr
     new conv_thr            =       0.0000000100 Ry

     new unit-cell volume =    221.75552 a.u.^3 (    32.86078 Ang^3 )
     density =      1.16174 g/cm^3

CELL_PARAMETERS (alat=  9.61112683)
  -0.499850932  -0.000000000   0.499850932
  -0.000000000   0.499850932   0.499850932
  -0.499850932   0.499850932   0.000000000

ATOMIC_POSITIONS (crystal)
Na       0.000000000   0.000000000   0.000000000



     Writing output data file na.fcc.save
     NEW-OLD atomic charge density approx. for the potential
     extrapolated charge    8.99195, renormalised to    9.00000

     total cpu time spent up to now is       30.4 secs

     per-process dynamical memory:    48.0 Mb

     Self-consistent Calculation

     iteration #  1     ecut=    40.00 Ry     beta=0.70
     Davidson diagonalization with overlap
     ethr =  1.00E-06,  avg # of iterations =  2.1

     total cpu time spent up to now is       35.7 secs

     total energy              =     -95.10552508 Ry
     Harris-Foulkes estimate   =     -95.16642352 Ry
     estimated scf accuracy    <       0.00002388 Ry

     iteration #  2     ecut=    40.00 Ry     beta=0.70
     Davidson diagonalization with overlap
     ethr =  2.65E-07,  avg # of iterations =  3.0

     total cpu time spent up to now is       41.0 secs

     total energy              =     -95.10556826 Ry
     Harris-Foulkes estimate   =     -95.10558571 Ry
     estimated scf accuracy    <       0.00003968 Ry

     iteration #  3     ecut=    40.00 Ry     beta=0.70
     Davidson diagonalization with overlap
     ethr =  2.65E-07,  avg # of iterations =  1.6

     total cpu time spent up to now is       45.1 secs

     total energy              =     -95.10556835 Ry
     Harris-Foulkes estimate   =     -95.10557087 Ry
     estimated scf accuracy    <       0.00000772 Ry

     iteration #  4     ecut=    40.00 Ry     beta=0.70
     Davidson diagonalization with overlap
     ethr =  8.57E-08,  avg # of iterations =  1.0

     total cpu time spent up to now is       49.0 secs

     total energy              =     -95.10556800 Ry
     Harris-Foulkes estimate   =     -95.10556872 Ry
     estimated scf accuracy    <       0.00000260 Ry

     iteration #  5     ecut=    40.00 Ry     beta=0.70
     Davidson diagonalization with overlap
     ethr =  2.89E-08,  avg # of iterations =  1.0

     total cpu time spent up to now is       52.8 secs

     total energy              =     -95.10556786 Ry
     Harris-Foulkes estimate   =     -95.10556807 Ry
     estimated scf accuracy    <       0.00000118 Ry

     iteration #  6     ecut=    40.00 Ry     beta=0.70
     Davidson diagonalization with overlap
     ethr =  1.31E-08,  avg # of iterations =  1.0

     total cpu time spent up to now is       56.7 secs

     total energy              =     -95.10556747 Ry
     Harris-Foulkes estimate   =     -95.10556787 Ry
     estimated scf accuracy    <       0.00000076 Ry

     iteration #  7     ecut=    40.00 Ry     beta=0.70
     Davidson diagonalization with overlap
     ethr =  8.46E-09,  avg # of iterations =  1.2

     total cpu time spent up to now is       60.7 secs

     total energy              =     -95.10556752 Ry
     Harris-Foulkes estimate   =     -95.10556755 Ry
     estimated scf accuracy    <       0.00000007 Ry

     iteration #  8     ecut=    40.00 Ry     beta=0.70
     Davidson diagonalization with overlap
     ethr =  7.40E-10,  avg # of iterations =  2.0

     total cpu time spent up to now is       65.1 secs

     End of self-consistent calculation

     Number of k-points >= 100: set verbosity='high' to print the bands.

     the Fermi energy is     2.1389 ev

!    total energy              =     -95.10556752 Ry
     Harris-Foulkes estimate   =     -95.10556752 Ry
     estimated scf accuracy    <          7.3E-09 Ry

     The total energy is the sum of the following terms:

     one-electron contribution =     -85.47643171 Ry
     hartree contribution      =      43.30693251 Ry
     xc contribution           =     -14.28451412 Ry
     ewald contribution        =     -38.65151171 Ry
     smearing contrib. (-TS)   =      -0.00004248 Ry

     convergence has been achieved in   8 iterations

     Forces acting on atoms (cartesian axes, Ry/au):

     atom    1 type  1   force =     0.00000000    0.00000000    0.00000000

     Total force =     0.000000     Total SCF correction =     0.000000


     Computing stress (Cartesian axis) and pressure

          total   stress  (Ry/bohr**3)                   (kbar)     P=    7.72
   0.00005249   0.00000000   0.00000000          7.72      0.00      0.00
   0.00000000   0.00005249  -0.00000000          0.00      7.72     -0.00
   0.00000000  -0.00000000   0.00005249          0.00     -0.00      7.72


     number of scf cycles    =   2
     number of bfgs steps    =   1

     enthalpy old            =     -95.0904907575 Ry
     enthalpy new            =     -95.0904928818 Ry

     CASE: enthalpy_new < enthalpy_old


     WARNING: bfgs curvature condition failed, Theta= 0.617
     uphill step: resetting bfgs history

     new trust radius        =       0.0011529089 bohr
     new conv_thr            =            1.0E-10 Ry

     new unit-cell volume =    221.49809 a.u.^3 (    32.82263 Ang^3 )
     density =      1.16309 g/cm^3

CELL_PARAMETERS (alat=  9.61112683)
  -0.499657437  -0.000000000   0.499657437
   0.000000000   0.499657437   0.499657437
  -0.499657437   0.499657437  -0.000000000

ATOMIC_POSITIONS (crystal)
Na       0.000000000   0.000000000   0.000000000



     Writing output data file na.fcc.save
     NEW-OLD atomic charge density approx. for the potential
     extrapolated charge    8.98955, renormalised to    9.00000

     total cpu time spent up to now is       67.7 secs

     per-process dynamical memory:    48.0 Mb

     Self-consistent Calculation

     iteration #  1     ecut=    40.00 Ry     beta=0.70
     Davidson diagonalization with overlap
     ethr =  1.00E-06,  avg # of iterations =  2.0

     total cpu time spent up to now is       73.0 secs

     total energy              =     -95.10548061 Ry
     Harris-Foulkes estimate   =     -95.18455351 Ry
     estimated scf accuracy    <       0.00004075 Ry

     iteration #  2     ecut=    40.00 Ry     beta=0.70
     Davidson diagonalization with overlap
     ethr =  4.53E-07,  avg # of iterations =  2.9

     total cpu time spent up to now is       78.3 secs

     total energy              =     -95.10555369 Ry
     Harris-Foulkes estimate   =     -95.10558324 Ry
     estimated scf accuracy    <       0.00006706 Ry

     iteration #  3     ecut=    40.00 Ry     beta=0.70
     Davidson diagonalization with overlap
     ethr =  4.53E-07,  avg # of iterations =  1.5

     total cpu time spent up to now is       82.4 secs

     total energy              =     -95.10555451 Ry
     Harris-Foulkes estimate   =     -95.10555811 Ry
     estimated scf accuracy    <       0.00001295 Ry

     iteration #  4     ecut=    40.00 Ry     beta=0.70
     Davidson diagonalization with overlap
     ethr =  1.44E-07,  avg # of iterations =  1.0

     total cpu time spent up to now is       86.2 secs

     total energy              =     -95.10555331 Ry
     Harris-Foulkes estimate   =     -95.10555500 Ry
     estimated scf accuracy    <       0.00000537 Ry

     iteration #  5     ecut=    40.00 Ry     beta=0.70
     Davidson diagonalization with overlap
     ethr =  5.97E-08,  avg # of iterations =  1.0

     total cpu time spent up to now is       90.1 secs

     total energy              =     -95.10555281 Ry
     Harris-Foulkes estimate   =     -95.10555347 Ry
     estimated scf accuracy    <       0.00000212 Ry

     iteration #  6     ecut=    40.00 Ry     beta=0.70
     Davidson diagonalization with overlap
     ethr =  2.35E-08,  avg # of iterations =  1.0

     total cpu time spent up to now is       94.0 secs

     total energy              =     -95.10555236 Ry
     Harris-Foulkes estimate   =     -95.10555288 Ry
     estimated scf accuracy    <       0.00000081 Ry

     iteration #  7     ecut=    40.00 Ry     beta=0.70
     Davidson diagonalization with overlap
     ethr =  9.00E-09,  avg # of iterations =  2.0

     total cpu time spent up to now is       98.6 secs

     total energy              =     -95.10555250 Ry
     Harris-Foulkes estimate   =     -95.10555250 Ry
     estimated scf accuracy    <          4.4E-09 Ry

     iteration #  8     ecut=    40.00 Ry     beta=0.70
     Davidson diagonalization with overlap
     ethr =  4.91E-11,  avg # of iterations =  2.0

     total cpu time spent up to now is      103.3 secs

     total energy              =     -95.10555250 Ry
     Harris-Foulkes estimate   =     -95.10555250 Ry
     estimated scf accuracy    <          2.7E-09 Ry

     iteration #  9     ecut=    40.00 Ry     beta=0.70
     Davidson diagonalization with overlap
     ethr =  3.06E-11,  avg # of iterations =  1.0

     total cpu time spent up to now is      107.2 secs

     total energy              =     -95.10555250 Ry
     Harris-Foulkes estimate   =     -95.10555250 Ry
     estimated scf accuracy    <          1.2E-09 Ry

     iteration # 10     ecut=    40.00 Ry     beta=0.70
     Davidson diagonalization with overlap
     ethr =  1.34E-11,  avg # of iterations =  2.0

     total cpu time spent up to now is      111.9 secs

     total energy              =     -95.10555250 Ry
     Harris-Foulkes estimate   =     -95.10555250 Ry
     estimated scf accuracy    <          1.1E-10 Ry

     iteration # 11     ecut=    40.00 Ry     beta=0.70
     Davidson diagonalization with overlap
     ethr =  1.21E-12,  avg # of iterations =  2.0

     total cpu time spent up to now is      116.5 secs

     End of self-consistent calculation

     Number of k-points >= 100: set verbosity='high' to print the bands.

     the Fermi energy is     2.1443 ev

!    total energy              =     -95.10555250 Ry
     Harris-Foulkes estimate   =     -95.10555250 Ry
     estimated scf accuracy    <          2.7E-13 Ry

     The total energy is the sum of the following terms:

     one-electron contribution =     -85.45063244 Ry
     hartree contribution      =      43.29636452 Ry
     xc contribution           =     -14.28476248 Ry
     ewald contribution        =     -38.66647966 Ry
     smearing contrib. (-TS)   =      -0.00004244 Ry

     convergence has been achieved in  11 iterations

     Forces acting on atoms (cartesian axes, Ry/au):

     atom    1 type  1   force =     0.00000000    0.00000000    0.00000000

     Total force =     0.000000     Total SCF correction =     0.000000


     Computing stress (Cartesian axis) and pressure

          total   stress  (Ry/bohr**3)                   (kbar)     P=    8.66
   0.00005890  -0.00000000   0.00000000          8.66     -0.00      0.00
  -0.00000000   0.00005890  -0.00000000         -0.00      8.66     -0.00
   0.00000000  -0.00000000   0.00005890          0.00     -0.00      8.66


     number of scf cycles    =   3
     number of bfgs steps    =   2

     enthalpy old            =     -95.0904928818 Ry
     enthalpy new            =     -95.0904953662 Ry

     CASE: enthalpy_new < enthalpy_old

     new trust radius        =       0.0016313095 bohr
     new conv_thr            =            1.0E-10 Ry

     new unit-cell volume =    221.13411 a.u.^3 (    32.76869 Ang^3 )
     density =      1.16501 g/cm^3

CELL_PARAMETERS (alat=  9.61112683)
  -0.499383599  -0.000000000   0.499383599
  -0.000000000   0.499383599   0.499383599
  -0.499383599   0.499383599  -0.000000000

ATOMIC_POSITIONS (crystal)
Na       0.000000000   0.000000000   0.000000000



     Writing output data file na.fcc.save
     NEW-OLD atomic charge density approx. for the potential
     extrapolated charge    8.98520, renormalised to    9.00000

     total cpu time spent up to now is      119.2 secs

     per-process dynamical memory:    48.0 Mb

     Self-consistent Calculation

     iteration #  1     ecut=    40.00 Ry     beta=0.70
     Davidson diagonalization with overlap
     ethr =  1.00E-06,  avg # of iterations =  2.0

     total cpu time spent up to now is      124.6 secs

     total energy              =     -95.10538829 Ry
     Harris-Foulkes estimate   =     -95.21735389 Ry
     estimated scf accuracy    <       0.00007973 Ry

     iteration #  2     ecut=    40.00 Ry     beta=0.70
     Davidson diagonalization with overlap
     ethr =  8.86E-07,  avg # of iterations =  2.9

     total cpu time spent up to now is      129.9 secs

     total energy              =     -95.10553338 Ry
     Harris-Foulkes estimate   =     -95.10559200 Ry
     estimated scf accuracy    <       0.00013356 Ry

     iteration #  3     ecut=    40.00 Ry     beta=0.70
     Davidson diagonalization with overlap
     ethr =  8.86E-07,  avg # of iterations =  1.6

     total cpu time spent up to now is      134.0 secs

     total energy              =     -95.10553461 Ry
     Harris-Foulkes estimate   =     -95.10554214 Ry
     estimated scf accuracy    <       0.00002602 Ry

     iteration #  4     ecut=    40.00 Ry     beta=0.70
     Davidson diagonalization with overlap
     ethr =  2.89E-07,  avg # of iterations =  1.0

     total cpu time spent up to now is      137.9 secs

     total energy              =     -95.10553231 Ry
     Harris-Foulkes estimate   =     -95.10553561 Ry
     estimated scf accuracy    <       0.00001037 Ry

     iteration #  5     ecut=    40.00 Ry     beta=0.70
     Davidson diagonalization with overlap
     ethr =  1.15E-07,  avg # of iterations =  1.0

     total cpu time spent up to now is      141.8 secs

     total energy              =     -95.10553145 Ry
     Harris-Foulkes estimate   =     -95.10553264 Ry
     estimated scf accuracy    <       0.00000399 Ry

     iteration #  6     ecut=    40.00 Ry     beta=0.70
     Davidson diagonalization with overlap
     ethr =  4.44E-08,  avg # of iterations =  1.0

     total cpu time spent up to now is      145.7 secs

     total energy              =     -95.10553046 Ry
     Harris-Foulkes estimate   =     -95.10553156 Ry
     estimated scf accuracy    <       0.00000164 Ry

     iteration #  7     ecut=    40.00 Ry     beta=0.70
     Davidson diagonalization with overlap
     ethr =  1.83E-08,  avg # of iterations =  2.0

     total cpu time spent up to now is      150.4 secs

     total energy              =     -95.10553080 Ry
     Harris-Foulkes estimate   =     -95.10553080 Ry
     estimated scf accuracy    <          1.8E-10 Ry

     iteration #  8     ecut=    40.00 Ry     beta=0.70
     Davidson diagonalization with overlap
     ethr =  2.04E-12,  avg # of iterations =  3.0

     total cpu time spent up to now is      156.1 secs

     total energy              =     -95.10553080 Ry
     Harris-Foulkes estimate   =     -95.10553081 Ry
     estimated scf accuracy    <       0.00000001 Ry

     iteration #  9     ecut=    40.00 Ry     beta=0.70
     Davidson diagonalization with overlap
     ethr =  2.04E-12,  avg # of iterations =  3.0

     total cpu time spent up to now is      161.6 secs

     total energy              =     -95.10553080 Ry
     Harris-Foulkes estimate   =     -95.10553080 Ry
     estimated scf accuracy    <          8.9E-10 Ry

     iteration # 10     ecut=    40.00 Ry     beta=0.70
     Davidson diagonalization with overlap
     ethr =  2.04E-12,  avg # of iterations =  2.0

     total cpu time spent up to now is      166.2 secs

     End of self-consistent calculation

     Number of k-points >= 100: set verbosity='high' to print the bands.

     the Fermi energy is     2.1521 ev

!    total energy              =     -95.10553080 Ry
     Harris-Foulkes estimate   =     -95.10553080 Ry
     estimated scf accuracy    <          8.2E-11 Ry

     The total energy is the sum of the following terms:

     one-electron contribution =     -85.41358857 Ry
     hartree contribution      =      43.28078481 Ry
     xc contribution           =     -14.28500215 Ry
     ewald contribution        =     -38.68768251 Ry
     smearing contrib. (-TS)   =      -0.00004238 Ry

     convergence has been achieved in  10 iterations

     Forces acting on atoms (cartesian axes, Ry/au):

     atom    1 type  1   force =     0.00000000    0.00000000    0.00000000

     Total force =     0.000000     Total SCF correction =     0.000000


     Computing stress (Cartesian axis) and pressure

          total   stress  (Ry/bohr**3)                   (kbar)     P=    8.97
   0.00006095   0.00000000  -0.00000000          8.97      0.00     -0.00
   0.00000000   0.00006095   0.00000000          0.00      8.97      0.00
   0.00000000   0.00000000   0.00006095          0.00      0.00      8.97


     number of scf cycles    =   4
     number of bfgs steps    =   3

     enthalpy old            =     -95.0904953662 Ry
     enthalpy new            =     -95.0904984083 Ry

     CASE: enthalpy_new < enthalpy_old

     new trust radius        =       0.0024462937 bohr
     new conv_thr            =            1.0E-10 Ry

     new unit-cell volume =    220.58890 a.u.^3 (    32.68790 Ang^3 )
     density =      1.16789 g/cm^3

CELL_PARAMETERS (alat=  9.61112683)
  -0.498972842  -0.000000000   0.498972842
  -0.000000000   0.498972842   0.498972842
  -0.498972842   0.498972842  -0.000000000

ATOMIC_POSITIONS (crystal)
Na       0.000000000   0.000000000   0.000000000



     Writing output data file na.fcc.save
     NEW-OLD atomic charge density approx. for the potential
     extrapolated charge    8.97777, renormalised to    9.00000

     total cpu time spent up to now is      168.9 secs

     per-process dynamical memory:    48.0 Mb

     Self-consistent Calculation

     iteration #  1     ecut=    40.00 Ry     beta=0.70
     Davidson diagonalization with overlap
     ethr =  1.00E-06,  avg # of iterations =  2.0

     total cpu time spent up to now is      174.3 secs

     total energy              =     -95.10517702 Ry
     Harris-Foulkes estimate   =     -95.27327707 Ry
     estimated scf accuracy    <       0.00017909 Ry

     iteration #  2     ecut=    40.00 Ry     beta=0.70
     Davidson diagonalization with overlap
     ethr =  1.99E-06,  avg # of iterations =  3.0

     total cpu time spent up to now is      180.3 secs

     total energy              =     -95.10550299 Ry
     Harris-Foulkes estimate   =     -95.10563476 Ry
     estimated scf accuracy    <       0.00030023 Ry

     iteration #  3     ecut=    40.00 Ry     beta=0.70
     Davidson diagonalization with overlap
     ethr =  1.99E-06,  avg # of iterations =  1.7

     total cpu time spent up to now is      184.5 secs

     total energy              =     -95.10550414 Ry
     Harris-Foulkes estimate   =     -95.10552288 Ry
     estimated scf accuracy    <       0.00005793 Ry

     iteration #  4     ecut=    40.00 Ry     beta=0.70
     Davidson diagonalization with overlap
     ethr =  6.44E-07,  avg # of iterations =  1.0

     total cpu time spent up to now is      188.3 secs

     total energy              =     -95.10549964 Ry
     Harris-Foulkes estimate   =     -95.10550655 Ry
     estimated scf accuracy    <       0.00002029 Ry

     iteration #  5     ecut=    40.00 Ry     beta=0.70
     Davidson diagonalization with overlap
     ethr =  2.25E-07,  avg # of iterations =  1.0

     total cpu time spent up to now is      192.2 secs

     total energy              =     -95.10549875 Ry
     Harris-Foulkes estimate   =     -95.10550045 Ry
     estimated scf accuracy    <       0.00000688 Ry

     iteration #  6     ecut=    40.00 Ry     beta=0.70
     Davidson diagonalization with overlap
     ethr =  7.65E-08,  avg # of iterations =  1.0

     total cpu time spent up to now is      196.1 secs

     total energy              =     -95.10549776 Ry
     Harris-Foulkes estimate   =     -95.10549889 Ry
     estimated scf accuracy    <       0.00000348 Ry

     iteration #  7     ecut=    40.00 Ry     beta=0.70
     Davidson diagonalization with overlap
     ethr =  3.86E-08,  avg # of iterations =  1.0

     total cpu time spent up to now is      200.0 secs

     total energy              =     -95.10549697 Ry
     Harris-Foulkes estimate   =     -95.10549786 Ry
     estimated scf accuracy    <       0.00000131 Ry

     iteration #  8     ecut=    40.00 Ry     beta=0.70
     Davidson diagonalization with overlap
     ethr =  1.46E-08,  avg # of iterations =  2.0

     total cpu time spent up to now is      204.6 secs

     total energy              =     -95.10549727 Ry
     Harris-Foulkes estimate   =     -95.10549727 Ry
     estimated scf accuracy    <          1.1E-09 Ry

     iteration #  9     ecut=    40.00 Ry     beta=0.70
     Davidson diagonalization with overlap
     ethr =  1.20E-11,  avg # of iterations =  2.1

     total cpu time spent up to now is      209.3 secs

     total energy              =     -95.10549727 Ry
     Harris-Foulkes estimate   =     -95.10549727 Ry
     estimated scf accuracy    <          6.8E-10 Ry

     iteration # 10     ecut=    40.00 Ry     beta=0.70
     Davidson diagonalization with overlap
     ethr =  7.60E-12,  avg # of iterations =  1.0

     total cpu time spent up to now is      213.1 secs

     total energy              =     -95.10549727 Ry
     Harris-Foulkes estimate   =     -95.10549727 Ry
     estimated scf accuracy    <          4.4E-10 Ry

     iteration # 11     ecut=    40.00 Ry     beta=0.70
     Davidson diagonalization with overlap
     ethr =  4.85E-12,  avg # of iterations =  2.0

     total cpu time spent up to now is      217.8 secs

     total energy              =     -95.10549727 Ry
     Harris-Foulkes estimate   =     -95.10549727 Ry
     estimated scf accuracy    <          1.1E-10 Ry

     iteration # 12     ecut=    40.00 Ry     beta=0.70
     Davidson diagonalization with overlap
     ethr =  1.27E-12,  avg # of iterations =  1.0

     total cpu time spent up to now is      221.6 secs

     End of self-consistent calculation

     Number of k-points >= 100: set verbosity='high' to print the bands.

     the Fermi energy is     2.1639 ev

!    total energy              =     -95.10549727 Ry
     Harris-Foulkes estimate   =     -95.10549727 Ry
     estimated scf accuracy    <          1.2E-11 Ry

     The total energy is the sum of the following terms:

     one-electron contribution =     -85.35786742 Ry
     hartree contribution      =      43.25728675 Ry
     xc contribution           =     -14.28534389 Ry
     ewald contribution        =     -38.71953041 Ry
     smearing contrib. (-TS)   =      -0.00004230 Ry

     convergence has been achieved in  12 iterations

     Forces acting on atoms (cartesian axes, Ry/au):

     atom    1 type  1   force =     0.00000000    0.00000000    0.00000000

     Total force =     0.000000     Total SCF correction =     0.000000


     Computing stress (Cartesian axis) and pressure

          total   stress  (Ry/bohr**3)                   (kbar)     P=    9.24
   0.00006284  -0.00000000   0.00000000          9.24     -0.00      0.00
  -0.00000000   0.00006284  -0.00000000         -0.00      9.24     -0.00
   0.00000000  -0.00000000   0.00006284          0.00     -0.00      9.24


     number of scf cycles    =   5
     number of bfgs steps    =   4

     enthalpy old            =     -95.0904984083 Ry
     enthalpy new            =     -95.0905019355 Ry

     CASE: enthalpy_new < enthalpy_old

     new trust radius        =       0.0036679311 bohr
     new conv_thr            =            1.0E-10 Ry

     new unit-cell volume =    219.77275 a.u.^3 (    32.56696 Ang^3 )
     density =      1.17222 g/cm^3

CELL_PARAMETERS (alat=  9.61112683)
  -0.498356707   0.000000000   0.498356707
  -0.000000000   0.498356707   0.498356707
  -0.498356707   0.498356707  -0.000000000

ATOMIC_POSITIONS (crystal)
Na       0.000000000   0.000000000   0.000000000



     Writing output data file na.fcc.save
     NEW-OLD atomic charge density approx. for the potential
     extrapolated charge    8.96660, renormalised to    9.00000

     total cpu time spent up to now is      224.3 secs

     per-process dynamical memory:    48.0 Mb

     Self-consistent Calculation

     iteration #  1     ecut=    40.00 Ry     beta=0.70
     Davidson diagonalization with overlap
     ethr =  1.00E-06,  avg # of iterations =  2.1

     total cpu time spent up to now is      230.2 secs

     total energy              =     -95.10472469 Ry
     Harris-Foulkes estimate   =     -95.35721544 Ry
     estimated scf accuracy    <       0.00040300 Ry

     iteration #  2     ecut=    40.00 Ry     beta=0.70
     Davidson diagonalization with overlap
     ethr =  4.48E-06,  avg # of iterations =  3.0

     total cpu time spent up to now is      237.3 secs

     total energy              =     -95.10545725 Ry
     Harris-Foulkes estimate   =     -95.10575356 Ry
     estimated scf accuracy    <       0.00067499 Ry

     iteration #  3     ecut=    40.00 Ry     beta=0.70
     Davidson diagonalization with overlap
     ethr =  4.48E-06,  avg # of iterations =  1.7

     total cpu time spent up to now is      244.6 secs

     total energy              =     -95.10545998 Ry
     Harris-Foulkes estimate   =     -95.10550211 Ry
     estimated scf accuracy    <       0.00012979 Ry

     iteration #  4     ecut=    40.00 Ry     beta=0.70
     Davidson diagonalization with overlap
     ethr =  1.44E-06,  avg # of iterations =  1.0

     total cpu time spent up to now is      248.6 secs

     total energy              =     -95.10544995 Ry
     Harris-Foulkes estimate   =     -95.10546540 Ry
     estimated scf accuracy    <       0.00004523 Ry

     iteration #  5     ecut=    40.00 Ry     beta=0.70
     Davidson diagonalization with overlap
     ethr =  5.03E-07,  avg # of iterations =  1.0

     total cpu time spent up to now is      252.7 secs

     total energy              =     -95.10544812 Ry
     Harris-Foulkes estimate   =     -95.10545178 Ry
     estimated scf accuracy    <       0.00001524 Ry

     iteration #  6     ecut=    40.00 Ry     beta=0.70
     Davidson diagonalization with overlap
     ethr =  1.69E-07,  avg # of iterations =  1.0

     total cpu time spent up to now is      256.7 secs

     total energy              =     -95.10544613 Ry
     Harris-Foulkes estimate   =     -95.10544842 Ry
     estimated scf accuracy    <       0.00000791 Ry

     iteration #  7     ecut=    40.00 Ry     beta=0.70
     Davidson diagonalization with overlap
     ethr =  8.79E-08,  avg # of iterations =  1.0

     total cpu time spent up to now is      260.7 secs

     total energy              =     -95.10544397 Ry
     Harris-Foulkes estimate   =     -95.10544631 Ry
     estimated scf accuracy    <       0.00000346 Ry

     iteration #  8     ecut=    40.00 Ry     beta=0.70
     Davidson diagonalization with overlap
     ethr =  3.85E-08,  avg # of iterations =  2.0

     total cpu time spent up to now is      265.6 secs

     total energy              =     -95.10544473 Ry
     Harris-Foulkes estimate   =     -95.10544473 Ry
     estimated scf accuracy    <          2.4E-09 Ry

     iteration #  9     ecut=    40.00 Ry     beta=0.70
     Davidson diagonalization with overlap
     ethr =  2.67E-11,  avg # of iterations =  2.1

     total cpu time spent up to now is      270.4 secs

     total energy              =     -95.10544473 Ry
     Harris-Foulkes estimate   =     -95.10544473 Ry
     estimated scf accuracy    <          1.7E-09 Ry

     iteration # 10     ecut=    40.00 Ry     beta=0.70
     Davidson diagonalization with overlap
     ethr =  1.88E-11,  avg # of iterations =  1.0

     total cpu time spent up to now is      274.4 secs

     total energy              =     -95.10544473 Ry
     Harris-Foulkes estimate   =     -95.10544473 Ry
     estimated scf accuracy    <          1.1E-09 Ry

     iteration # 11     ecut=    40.00 Ry     beta=0.70
     Davidson diagonalization with overlap
     ethr =  1.27E-11,  avg # of iterations =  2.0

     total cpu time spent up to now is      281.2 secs

     total energy              =     -95.10544473 Ry
     Harris-Foulkes estimate   =     -95.10544473 Ry
     estimated scf accuracy    <          1.2E-09 Ry

     iteration # 12     ecut=    40.00 Ry     beta=0.70
     Davidson diagonalization with overlap
     ethr =  1.27E-11,  avg # of iterations =  1.0

     total cpu time spent up to now is      285.2 secs

     End of self-consistent calculation

     Number of k-points >= 100: set verbosity='high' to print the bands.

     the Fermi energy is     2.1816 ev

!    total energy              =     -95.10544473 Ry
     Harris-Foulkes estimate   =     -95.10544473 Ry
     estimated scf accuracy    <          3.5E-11 Ry

     The total energy is the sum of the following terms:

     one-electron contribution =     -85.27416993 Ry
     hartree contribution      =      43.22203684 Ry
     xc contribution           =     -14.28586878 Ry
     ewald contribution        =     -38.76740070 Ry
     smearing contrib. (-TS)   =      -0.00004217 Ry

     convergence has been achieved in  12 iterations

     Forces acting on atoms (cartesian axes, Ry/au):

     atom    1 type  1   force =     0.00000000    0.00000000    0.00000000

     Total force =     0.000000     Total SCF correction =     0.000000


     Computing stress (Cartesian axis) and pressure

          total   stress  (Ry/bohr**3)                   (kbar)     P=    9.77
   0.00006642  -0.00000000  -0.00000000          9.77     -0.00     -0.00
  -0.00000000   0.00006642  -0.00000000         -0.00      9.77     -0.00
  -0.00000000  -0.00000000   0.00006642         -0.00     -0.00      9.77


     bfgs converged in   6 scf cycles and   5 bfgs steps
     (criteria: energy <  1.0E-04 Ry, force <  1.0E-03Ry/Bohr, cell <  5.0E-01kbar)

     End of BFGS Geometry Optimization

     Final enthalpy =     -95.0905048806 Ry
Begin final coordinates
     new unit-cell volume =    219.77275 a.u.^3 (    32.56696 Ang^3 )
     density =      1.17222 g/cm^3

CELL_PARAMETERS (alat=  9.61112683)
  -0.498356707   0.000000000   0.498356707
  -0.000000000   0.498356707   0.498356707
  -0.498356707   0.498356707  -0.000000000

ATOMIC_POSITIONS (crystal)
Na       0.000000000   0.000000000   0.000000000
End final coordinates



     A final scf calculation at the relaxed structure.
     The G-vectors are recalculated for the final unit cell
     Results may differ from those at the preceding step.

     Parallelization info
     --------------------
     sticks:   dense  smooth     PW     G-vecs:    dense   smooth      PW
     Min         253     127     40                 5296     1895     362
     Max         254     130     41                 5298     1896     366
     Sum        1015     511    163                21187     7583    1459



     bravais-lattice index     =            2
     lattice parameter (alat)  =       9.6111  a.u.
     unit-cell volume          =     219.7727 (a.u.)^3
     number of atoms/cell      =            1
     number of atomic types    =            1
     number of electrons       =         9.00
     number of Kohn-Sham states=            9
     kinetic-energy cutoff     =      40.0000  Ry
     charge density cutoff     =     320.0000  Ry
     convergence threshold     =      1.0E-10
     mixing beta               =       0.7000
     number of iterations used =            8  plain     mixing
     Exchange-correlation      = SLA  PW   PBE  PBE ( 1  4  3  4 0 0)

     celldm(1)=   9.611127  celldm(2)=   0.000000  celldm(3)=   0.000000
     celldm(4)=   0.000000  celldm(5)=   0.000000  celldm(6)=   0.000000

     crystal axes: (cart. coord. in units of alat)
               a(1) = (  -0.498357   0.000000   0.498357 )  
               a(2) = (  -0.000000   0.498357   0.498357 )  
               a(3) = (  -0.498357   0.498357  -0.000000 )  

     reciprocal axes: (cart. coord. in units 2 pi/alat)
               b(1) = ( -1.003297 -1.003297  1.003297 )  
               b(2) = (  1.003297  1.003297  1.003297 )  
               b(3) = ( -1.003297  1.003297 -1.003297 )  


     PseudoPot. # 1 for Na read from file:
     /home/s1333534/quantum_espresso/qe-6.1/pseudo/Na_pbe_v1.uspp.F.UPF
     MD5 check sum: 76a99c7e9422403d3e93cbc85ab7bccb
     Pseudo is Ultrasoft, Zval =  9.0
     Generated by new atomic code, or converted to UPF format
     Using radial grid of  819 points,  5 beta functions with: 
                l(1) =   0
                l(2) =   0
                l(3) =   1
                l(4) =   1
                l(5) =   2
     Q(r) pseudized with  8 coefficients,  rinner =    1.250   1.250   1.250
                                                       1.250   1.250

     atomic species   valence    mass     pseudopotential
        Na             9.00    22.99000     Na( 1.00)

     48 Sym. Ops., with inversion, found



   Cartesian axes

     site n.     atom                  positions (alat units)
         1           Na  tau(   1) = (  -0.0000000   0.0000000   0.0000000  )

     number of k points=   770  Marzari-Vanderbilt smearing, width (Ry)=  0.0200

     Number of k-points >= 100: set verbosity='high' to print them.

     Dense  grid:    21187 G-vectors     FFT dimensions: (  40,  40,  40)

     Smooth grid:     7583 G-vectors     FFT dimensions: (  27,  27,  27)

     Estimated max dynamical RAM per process >      28.31MB

     Estimated total allocated dynamical RAM >     113.26MB

     Initial potential from superposition of free atoms

     starting charge    8.99371, renormalised to    9.00000
     Starting wfc are    5 randomized atomic wfcs +    4 random wfc

     Writing output data file na.fcc.save

     total cpu time spent up to now is      289.7 secs

     per-process dynamical memory:    45.2 Mb

     Self-consistent Calculation

     iteration #  1     ecut=    40.00 Ry     beta=0.70
     Davidson diagonalization with overlap
     c_bands:  1 eigenvalues not converged
     c_bands:  1 eigenvalues not converged
     c_bands:  1 eigenvalues not converged
     c_bands:  1 eigenvalues not converged
     c_bands:  1 eigenvalues not converged
     ethr =  1.00E-06,  avg # of iterations = 11.0

     total cpu time spent up to now is      303.3 secs

     total energy              =     -95.10527166 Ry
     Harris-Foulkes estimate   =     -95.10556489 Ry
     estimated scf accuracy    <       0.00095305 Ry

     iteration #  2     ecut=    40.00 Ry     beta=0.70
     Davidson diagonalization with overlap
     ethr =  1.06E-05,  avg # of iterations =  2.0

     total cpu time spent up to now is      307.9 secs

     total energy              =     -95.10538647 Ry
     Harris-Foulkes estimate   =     -95.10541441 Ry
     estimated scf accuracy    <       0.00010770 Ry

     iteration #  3     ecut=    40.00 Ry     beta=0.70
     Davidson diagonalization with overlap
     ethr =  1.20E-06,  avg # of iterations =  2.0

     total cpu time spent up to now is      312.7 secs

     total energy              =     -95.10539837 Ry
     Harris-Foulkes estimate   =     -95.10539981 Ry
     estimated scf accuracy    <       0.00000663 Ry

     iteration #  4     ecut=    40.00 Ry     beta=0.70
     Davidson diagonalization with overlap
     ethr =  7.37E-08,  avg # of iterations =  1.0

     total cpu time spent up to now is      316.8 secs

     total energy              =     -95.10539897 Ry
     Harris-Foulkes estimate   =     -95.10539892 Ry
     estimated scf accuracy    <          7.7E-09 Ry

     iteration #  5     ecut=    40.00 Ry     beta=0.70
     Davidson diagonalization with overlap
     ethr =  8.59E-11,  avg # of iterations =  3.0

     total cpu time spent up to now is      322.5 secs

     total energy              =     -95.10539900 Ry
     Harris-Foulkes estimate   =     -95.10539900 Ry
     estimated scf accuracy    <          1.5E-09 Ry

     iteration #  6     ecut=    40.00 Ry     beta=0.70
     Davidson diagonalization with overlap
     ethr =  1.70E-11,  avg # of iterations =  1.6

     total cpu time spent up to now is      326.8 secs

     End of self-consistent calculation

     Number of k-points >= 100: set verbosity='high' to print the bands.

     the Fermi energy is     2.1815 ev

!    total energy              =     -95.10539900 Ry
     Harris-Foulkes estimate   =     -95.10539900 Ry
     estimated scf accuracy    <          2.0E-11 Ry

     The total energy is the sum of the following terms:

     one-electron contribution =     -85.27409805 Ry
     hartree contribution      =      43.22199340 Ry
     xc contribution           =     -14.28585148 Ry
     ewald contribution        =     -38.76740070 Ry
     smearing contrib. (-TS)   =      -0.00004217 Ry

     convergence has been achieved in   6 iterations

     Forces acting on atoms (cartesian axes, Ry/au):

     atom    1 type  1   force =     0.00000000    0.00000000    0.00000000

     Total force =     0.000000     Total SCF correction =     0.000000


     Computing stress (Cartesian axis) and pressure

          total   stress  (Ry/bohr**3)                   (kbar)     P=    9.56
   0.00006501  -0.00000000   0.00000000          9.56     -0.00      0.00
  -0.00000000   0.00006501  -0.00000000         -0.00      9.56     -0.00
   0.00000000  -0.00000000   0.00006501          0.00     -0.00      9.56


     Writing output data file na.fcc.save

     init_run     :      3.80s CPU      3.99s WALL (       2 calls)
     electrons    :    289.19s CPU    306.92s WALL (       7 calls)
     update_pot   :      1.03s CPU      1.03s WALL (       5 calls)
     forces       :      1.76s CPU      1.79s WALL (       7 calls)
     stress       :     10.14s CPU     10.19s WALL (       7 calls)

     Called by init_run:
     wfcinit      :      3.03s CPU      3.22s WALL (       2 calls)
     potinit      :      0.09s CPU      0.09s WALL (       2 calls)

     Called by electrons:
     c_bands      :    237.84s CPU    252.61s WALL (      64 calls)
     sum_band     :     49.68s CPU     52.59s WALL (      64 calls)
     v_of_rho     :      0.81s CPU      0.82s WALL (      70 calls)
     newd         :      0.90s CPU      0.91s WALL (      70 calls)
     mix_rho      :      0.06s CPU      0.07s WALL (      64 calls)

     Called by c_bands:
     init_us_2    :     11.46s CPU     11.11s WALL (  110880 calls)
     cegterg      :    226.41s CPU    241.12s WALL (   49280 calls)

     Called by sum_band:
     sum_band:bec :      0.12s CPU      0.16s WALL (   49280 calls)
     addusdens    :      1.07s CPU      1.08s WALL (      64 calls)

     Called by *egterg:
     h_psi        :    192.24s CPU    204.74s WALL (  145737 calls)
     s_psi        :      2.64s CPU      2.09s WALL (  145737 calls)
     g_psi        :      1.43s CPU      1.26s WALL (   94917 calls)
     cdiaghg      :     18.08s CPU     18.94s WALL (  139577 calls)

     Called by h_psi:
     h_psi:pot    :    191.64s CPU    203.82s WALL (  145737 calls)
     h_psi:calbec :      4.45s CPU      3.73s WALL (  145737 calls)
     vloc_psi     :    185.48s CPU    197.43s WALL (  145737 calls)
     add_vuspsi   :      1.50s CPU      2.30s WALL (  145737 calls)

     General routines
     calbec       :      6.20s CPU      5.89s WALL (  221967 calls)
     fft          :      0.41s CPU      0.42s WALL (    1157 calls)
     ffts         :      0.02s CPU      0.02s WALL (     134 calls)
     fftw         :    212.30s CPU    213.89s WALL ( 2612882 calls)
     interpolate  :      0.07s CPU      0.07s WALL (     134 calls)
     davcio       :      0.01s CPU      0.02s WALL (    1540 calls)

     Parallel routines
     fft_scatter  :     37.60s CPU     43.89s WALL ( 2614173 calls)

     PWSCF        :  5m10.78s CPU     5m29.06s WALL


   This run was terminated on:  13:47:34  20Dec2017            

=------------------------------------------------------------------------------=
   JOB DONE.
=------------------------------------------------------------------------------=
