
     Program PWSCF v.6.1 (svn rev. 13369) starts on 20Dec2017 at 14:11:34 

     This program is part of the open-source Quantum ESPRESSO suite
     for quantum simulation of materials; please cite
         "P. Giannozzi et al., J. Phys.:Condens. Matter 21 395502 (2009);
          URL http://www.quantum-espresso.org", 
     in publications or presentations arising from this work. More details at
     http://www.quantum-espresso.org/quote

     Parallel version (MPI), running on     4 processors
     R & G space division:  proc/nbgrp/npool/nimage =       4
     Waiting for input...
     Reading input from standard input

     Current dimensions of program PWSCF are:
     Max number of different atomic species (ntypx) = 10
     Max number of k-points (npk) =  40000
     Max angular momentum in pseudopotentials (lmaxx) =  3

     Subspace diagonalization in iterative solution of the eigenvalue problem:
     a serial algorithm will be used


     Parallelization info
     --------------------
     sticks:   dense  smooth     PW     G-vecs:    dense   smooth      PW
     Min         201     102     34                 3771     1332     266
     Max         202     103     35                 3774     1333     267
     Sum         805     409    139                15089     5329    1067



     bravais-lattice index     =            2
     lattice parameter (alat)  =       8.5534  a.u.
     unit-cell volume          =     156.4434 (a.u.)^3
     number of atoms/cell      =            1
     number of atomic types    =            1
     number of electrons       =         9.00
     number of Kohn-Sham states=            9
     kinetic-energy cutoff     =      40.0000  Ry
     charge density cutoff     =     320.0000  Ry
     convergence threshold     =      1.0E-08
     mixing beta               =       0.7000
     number of iterations used =            8  plain     mixing
     Exchange-correlation      = SLA  PW   PBE  PBE ( 1  4  3  4 0 0)
     nstep                     =           50


     celldm(1)=   8.553406  celldm(2)=   0.000000  celldm(3)=   0.000000
     celldm(4)=   0.000000  celldm(5)=   0.000000  celldm(6)=   0.000000

     crystal axes: (cart. coord. in units of alat)
               a(1) = (  -0.500000   0.000000   0.500000 )  
               a(2) = (   0.000000   0.500000   0.500000 )  
               a(3) = (  -0.500000   0.500000   0.000000 )  

     reciprocal axes: (cart. coord. in units 2 pi/alat)
               b(1) = ( -1.000000 -1.000000  1.000000 )  
               b(2) = (  1.000000  1.000000  1.000000 )  
               b(3) = ( -1.000000  1.000000 -1.000000 )  


     PseudoPot. # 1 for Na read from file:
     /home/s1333534/quantum_espresso/qe-6.1/pseudo/Na_pbe_v1.uspp.F.UPF
     MD5 check sum: 76a99c7e9422403d3e93cbc85ab7bccb
     Pseudo is Ultrasoft, Zval =  9.0
     Generated by new atomic code, or converted to UPF format
     Using radial grid of  819 points,  5 beta functions with: 
                l(1) =   0
                l(2) =   0
                l(3) =   1
                l(4) =   1
                l(5) =   2
     Q(r) pseudized with  8 coefficients,  rinner =    1.250   1.250   1.250
                                                       1.250   1.250

     atomic species   valence    mass     pseudopotential
        Na             9.00    22.99000     Na( 1.00)

     48 Sym. Ops., with inversion, found



   Cartesian axes

     site n.     atom                  positions (alat units)
         1           Na  tau(   1) = (   0.0000000   0.0000000   0.0000000  )

     number of k points=   770  Marzari-Vanderbilt smearing, width (Ry)=  0.0200

     Number of k-points >= 100: set verbosity='high' to print them.

     Dense  grid:    15089 G-vectors     FFT dimensions: (  36,  36,  36)

     Smooth grid:     5329 G-vectors     FFT dimensions: (  25,  25,  25)

     Estimated max dynamical RAM per process >      20.23MB

     Estimated total allocated dynamical RAM >      80.93MB

     Initial potential from superposition of free atoms

     starting charge    8.99371, renormalised to    9.00000
     Starting wfc are    5 randomized atomic wfcs +    4 random wfc

     total cpu time spent up to now is        1.4 secs

     per-process dynamical memory:    28.5 Mb

     Self-consistent Calculation

     iteration #  1     ecut=    40.00 Ry     beta=0.70
     Davidson diagonalization with overlap
     ethr =  1.00E-02,  avg # of iterations =  5.3

     Threshold (ethr) on eigenvalues was too large:
     Diagonalizing with lowered threshold

     Davidson diagonalization with overlap
     ethr =  1.69E-05,  avg # of iterations =  2.9

     total cpu time spent up to now is        9.4 secs

     total energy              =     -95.08742554 Ry
     Harris-Foulkes estimate   =     -95.08797964 Ry
     estimated scf accuracy    <       0.00151597 Ry

     iteration #  2     ecut=    40.00 Ry     beta=0.70
     Davidson diagonalization with overlap
     ethr =  1.68E-05,  avg # of iterations =  2.0

     total cpu time spent up to now is       12.2 secs

     total energy              =     -95.08762314 Ry
     Harris-Foulkes estimate   =     -95.08766779 Ry
     estimated scf accuracy    <       0.00017054 Ry

     iteration #  3     ecut=    40.00 Ry     beta=0.70
     Davidson diagonalization with overlap
     ethr =  1.89E-06,  avg # of iterations =  2.1

     total cpu time spent up to now is       15.2 secs

     total energy              =     -95.08764491 Ry
     Harris-Foulkes estimate   =     -95.08764620 Ry
     estimated scf accuracy    <       0.00000986 Ry

     iteration #  4     ecut=    40.00 Ry     beta=0.70
     Davidson diagonalization with overlap
     ethr =  1.10E-07,  avg # of iterations =  1.0

     total cpu time spent up to now is       17.6 secs

     total energy              =     -95.08764582 Ry
     Harris-Foulkes estimate   =     -95.08764575 Ry
     estimated scf accuracy    <       0.00000001 Ry

     iteration #  5     ecut=    40.00 Ry     beta=0.70
     Davidson diagonalization with overlap
     ethr =  1.52E-10,  avg # of iterations =  3.0

     total cpu time spent up to now is       21.2 secs

     End of self-consistent calculation

     Number of k-points >= 100: set verbosity='high' to print the bands.

     the Fermi energy is     4.1501 ev

!    total energy              =     -95.08764586 Ry
     Harris-Foulkes estimate   =     -95.08764585 Ry
     estimated scf accuracy    <          2.1E-09 Ry

     The total energy is the sum of the following terms:

     one-electron contribution =     -77.18826599 Ry
     hartree contribution      =      39.85806537 Ry
     xc contribution           =     -14.33917252 Ry
     ewald contribution        =     -43.41823940 Ry
     smearing contrib. (-TS)   =      -0.00003332 Ry

     convergence has been achieved in   5 iterations

     Forces acting on atoms (cartesian axes, Ry/au):

     atom    1 type  1   force =     0.00000000    0.00000000    0.00000000

     Total force =     0.000000     Total SCF correction =     0.000000


     Computing stress (Cartesian axis) and pressure

          total   stress  (Ry/bohr**3)                   (kbar)     P=   82.33
   0.00055968   0.00000000   0.00000000         82.33      0.00      0.00
   0.00000000   0.00055968  -0.00000000          0.00     82.33     -0.00
   0.00000000  -0.00000000   0.00055968          0.00     -0.00     82.33


     BFGS Geometry Optimization

     number of scf cycles    =   1
     number of bfgs steps    =   0

     enthalpy new            =     -95.0025673920 Ry

     new trust radius        =       0.0009911803 bohr
     new conv_thr            =       0.0000000100 Ry

     new unit-cell volume =    156.62944 a.u.^3 (    23.21009 Ang^3 )
     density =      1.64479 g/cm^3

CELL_PARAMETERS (alat=  8.55340597)
  -0.500198113  -0.000000000   0.500198113
   0.000000000   0.500198113   0.500198113
  -0.500198113   0.500198113  -0.000000000

ATOMIC_POSITIONS (crystal)
Na       0.000000000   0.000000000   0.000000000



     Writing output data file na.fcc.save
     NEW-OLD atomic charge density approx. for the potential
     extrapolated charge    9.01068, renormalised to    9.00000

     total cpu time spent up to now is       23.3 secs

     per-process dynamical memory:    35.6 Mb

     Self-consistent Calculation

     iteration #  1     ecut=    40.00 Ry     beta=0.70
     Davidson diagonalization with overlap
     ethr =  1.00E-06,  avg # of iterations =  2.0

     total cpu time spent up to now is       26.8 secs

     total energy              =     -95.08767773 Ry
     Harris-Foulkes estimate   =     -95.01520522 Ry
     estimated scf accuracy    <       0.00004036 Ry

     iteration #  2     ecut=    40.00 Ry     beta=0.70
     Davidson diagonalization with overlap
     ethr =  4.48E-07,  avg # of iterations =  2.9

     total cpu time spent up to now is       30.2 secs

     total energy              =     -95.08775115 Ry
     Harris-Foulkes estimate   =     -95.08778093 Ry
     estimated scf accuracy    <       0.00006791 Ry

     iteration #  3     ecut=    40.00 Ry     beta=0.70
     Davidson diagonalization with overlap
     ethr =  4.48E-07,  avg # of iterations =  1.4

     total cpu time spent up to now is       32.8 secs

     total energy              =     -95.08775208 Ry
     Harris-Foulkes estimate   =     -95.08775559 Ry
     estimated scf accuracy    <       0.00001328 Ry

     iteration #  4     ecut=    40.00 Ry     beta=0.70
     Davidson diagonalization with overlap
     ethr =  1.48E-07,  avg # of iterations =  1.0

     total cpu time spent up to now is       35.3 secs

     total energy              =     -95.08775097 Ry
     Harris-Foulkes estimate   =     -95.08775251 Ry
     estimated scf accuracy    <       0.00000588 Ry

     iteration #  5     ecut=    40.00 Ry     beta=0.70
     Davidson diagonalization with overlap
     ethr =  6.54E-08,  avg # of iterations =  1.0

     total cpu time spent up to now is       37.7 secs

     total energy              =     -95.08775016 Ry
     Harris-Foulkes estimate   =     -95.08775108 Ry
     estimated scf accuracy    <       0.00000284 Ry

     iteration #  6     ecut=    40.00 Ry     beta=0.70
     Davidson diagonalization with overlap
     ethr =  3.16E-08,  avg # of iterations =  1.0

     total cpu time spent up to now is       40.2 secs

     total energy              =     -95.08774969 Ry
     Harris-Foulkes estimate   =     -95.08775025 Ry
     estimated scf accuracy    <       0.00000105 Ry

     iteration #  7     ecut=    40.00 Ry     beta=0.70
     Davidson diagonalization with overlap
     ethr =  1.17E-08,  avg # of iterations =  1.5

     total cpu time spent up to now is       42.8 secs

     total energy              =     -95.08774975 Ry
     Harris-Foulkes estimate   =     -95.08774980 Ry
     estimated scf accuracy    <       0.00000008 Ry

     iteration #  8     ecut=    40.00 Ry     beta=0.70
     Davidson diagonalization with overlap
     ethr =  9.36E-10,  avg # of iterations =  2.0

     total cpu time spent up to now is       45.8 secs

     End of self-consistent calculation

     Number of k-points >= 100: set verbosity='high' to print the bands.

     the Fermi energy is     4.1418 ev

!    total energy              =     -95.08774977 Ry
     Harris-Foulkes estimate   =     -95.08774977 Ry
     estimated scf accuracy    <          3.1E-10 Ry

     The total energy is the sum of the following terms:

     one-electron contribution =     -77.21809933 Ry
     hartree contribution      =      39.87041709 Ry
     xc contribution           =     -14.33899146 Ry
     ewald contribution        =     -43.40104274 Ry
     smearing contrib. (-TS)   =      -0.00003334 Ry

     convergence has been achieved in   8 iterations

     Forces acting on atoms (cartesian axes, Ry/au):

     atom    1 type  1   force =     0.00000000    0.00000000    0.00000000

     Total force =     0.000000     Total SCF correction =     0.000000


     Computing stress (Cartesian axis) and pressure

          total   stress  (Ry/bohr**3)                   (kbar)     P=   82.16
   0.00055848   0.00000000   0.00000000         82.16      0.00      0.00
   0.00000000   0.00055848  -0.00000000          0.00     82.16     -0.00
   0.00000000  -0.00000000   0.00055848          0.00     -0.00     82.16


     number of scf cycles    =   2
     number of bfgs steps    =   1

     enthalpy old            =     -95.0025673920 Ry
     enthalpy new            =     -95.0025701304 Ry

     CASE: enthalpy_new < enthalpy_old


     WARNING: bfgs curvature condition failed, Theta= 0.865
     new trust radius        =       0.0010905143 bohr
     new conv_thr            =            1.0E-10 Ry

     new unit-cell volume =    156.83425 a.u.^3 (    23.24044 Ang^3 )
     density =      1.64265 g/cm^3

CELL_PARAMETERS (alat=  8.55340597)
  -0.500416038  -0.000000000   0.500416038
   0.000000000   0.500416038   0.500416038
  -0.500416038   0.500416038  -0.000000000

ATOMIC_POSITIONS (crystal)
Na       0.000000000   0.000000000   0.000000000



     Writing output data file na.fcc.save
     NEW-OLD atomic charge density approx. for the potential
     extrapolated charge    9.01174, renormalised to    9.00000

     total cpu time spent up to now is       48.0 secs

     per-process dynamical memory:    35.6 Mb

     Self-consistent Calculation

     iteration #  1     ecut=    40.00 Ry     beta=0.70
     Davidson diagonalization with overlap
     ethr =  1.00E-06,  avg # of iterations =  2.0

     total cpu time spent up to now is       51.4 secs

     total energy              =     -95.08777609 Ry
     Harris-Foulkes estimate   =     -95.00806574 Ry
     estimated scf accuracy    <       0.00004921 Ry

     iteration #  2     ecut=    40.00 Ry     beta=0.70
     Davidson diagonalization with overlap
     ethr =  5.47E-07,  avg # of iterations =  2.9

     total cpu time spent up to now is       54.9 secs

     total energy              =     -95.08786515 Ry
     Harris-Foulkes estimate   =     -95.08790128 Ry
     estimated scf accuracy    <       0.00008229 Ry

     iteration #  3     ecut=    40.00 Ry     beta=0.70
     Davidson diagonalization with overlap
     ethr =  5.47E-07,  avg # of iterations =  1.4

     total cpu time spent up to now is       57.4 secs

     total energy              =     -95.08786636 Ry
     Harris-Foulkes estimate   =     -95.08787054 Ry
     estimated scf accuracy    <       0.00001603 Ry

     iteration #  4     ecut=    40.00 Ry     beta=0.70
     Davidson diagonalization with overlap
     ethr =  1.78E-07,  avg # of iterations =  1.0

     total cpu time spent up to now is       59.9 secs

     total energy              =     -95.08786503 Ry
     Harris-Foulkes estimate   =     -95.08786687 Ry
     estimated scf accuracy    <       0.00000719 Ry

     iteration #  5     ecut=    40.00 Ry     beta=0.70
     Davidson diagonalization with overlap
     ethr =  7.99E-08,  avg # of iterations =  1.0

     total cpu time spent up to now is       62.4 secs

     total energy              =     -95.08786400 Ry
     Harris-Foulkes estimate   =     -95.08786516 Ry
     estimated scf accuracy    <       0.00000354 Ry

     iteration #  6     ecut=    40.00 Ry     beta=0.70
     Davidson diagonalization with overlap
     ethr =  3.94E-08,  avg # of iterations =  1.0

     total cpu time spent up to now is       64.9 secs

     total energy              =     -95.08786346 Ry
     Harris-Foulkes estimate   =     -95.08786412 Ry
     estimated scf accuracy    <       0.00000130 Ry

     iteration #  7     ecut=    40.00 Ry     beta=0.70
     Davidson diagonalization with overlap
     ethr =  1.44E-08,  avg # of iterations =  1.1

     total cpu time spent up to now is       67.4 secs

     total energy              =     -95.08786349 Ry
     Harris-Foulkes estimate   =     -95.08786358 Ry
     estimated scf accuracy    <       0.00000014 Ry

     iteration #  8     ecut=    40.00 Ry     beta=0.70
     Davidson diagonalization with overlap
     ethr =  1.60E-09,  avg # of iterations =  2.0

     total cpu time spent up to now is       70.4 secs

     total energy              =     -95.08786352 Ry
     Harris-Foulkes estimate   =     -95.08786352 Ry
     estimated scf accuracy    <          3.5E-10 Ry

     iteration #  9     ecut=    40.00 Ry     beta=0.70
     Davidson diagonalization with overlap
     ethr =  3.91E-12,  avg # of iterations =  2.2

     total cpu time spent up to now is       73.5 secs

     total energy              =     -95.08786352 Ry
     Harris-Foulkes estimate   =     -95.08786352 Ry
     estimated scf accuracy    <          7.1E-10 Ry

     iteration # 10     ecut=    40.00 Ry     beta=0.70
     Davidson diagonalization with overlap
     ethr =  3.91E-12,  avg # of iterations =  2.0

     total cpu time spent up to now is       76.5 secs

     End of self-consistent calculation

     Number of k-points >= 100: set verbosity='high' to print the bands.

     the Fermi energy is     4.1327 ev

!    total energy              =     -95.08786352 Ry
     Harris-Foulkes estimate   =     -95.08786352 Ry
     estimated scf accuracy    <          1.3E-11 Ry

     The total energy is the sum of the following terms:

     one-electron contribution =     -77.25066637 Ry
     hartree contribution      =      39.88371789 Ry
     xc contribution           =     -14.33873955 Ry
     ewald contribution        =     -43.38214213 Ry
     smearing contrib. (-TS)   =      -0.00003336 Ry

     convergence has been achieved in  10 iterations

     Forces acting on atoms (cartesian axes, Ry/au):

     atom    1 type  1   force =     0.00000000    0.00000000    0.00000000

     Total force =     0.000000     Total SCF correction =     0.000000


     Computing stress (Cartesian axis) and pressure

          total   stress  (Ry/bohr**3)                   (kbar)     P=   81.42
   0.00055351   0.00000000   0.00000000         81.42      0.00      0.00
   0.00000000   0.00055351  -0.00000000          0.00     81.42     -0.00
   0.00000000  -0.00000000   0.00055351          0.00     -0.00     81.42


     number of scf cycles    =   3
     number of bfgs steps    =   2

     enthalpy old            =     -95.0025701304 Ry
     enthalpy new            =     -95.0025725050 Ry

     CASE: enthalpy_new < enthalpy_old

     new trust radius        =       0.0016361277 bohr
     new conv_thr            =            1.0E-10 Ry

     new unit-cell volume =    157.14180 a.u.^3 (    23.28601 Ang^3 )
     density =      1.63943 g/cm^3

CELL_PARAMETERS (alat=  8.55340597)
  -0.500742926  -0.000000000   0.500742926
   0.000000000   0.500742926   0.500742926
  -0.500742926   0.500742926  -0.000000000

ATOMIC_POSITIONS (crystal)
Na       0.000000000   0.000000000   0.000000000



     Writing output data file na.fcc.save
     NEW-OLD atomic charge density approx. for the potential
     extrapolated charge    9.01760, renormalised to    9.00000

     total cpu time spent up to now is       78.6 secs

     per-process dynamical memory:    35.6 Mb

     Self-consistent Calculation

     iteration #  1     ecut=    40.00 Ry     beta=0.70
     Davidson diagonalization with overlap
     ethr =  1.00E-06,  avg # of iterations =  2.0

     total cpu time spent up to now is       82.1 secs

     total energy              =     -95.08783664 Ry
     Harris-Foulkes estimate   =     -94.96835061 Ry
     estimated scf accuracy    <       0.00011025 Ry

     iteration #  2     ecut=    40.00 Ry     beta=0.70
     Davidson diagonalization with overlap
     ethr =  1.22E-06,  avg # of iterations =  2.9

     total cpu time spent up to now is       85.7 secs

     total energy              =     -95.08803685 Ry
     Harris-Foulkes estimate   =     -95.08811805 Ry
     estimated scf accuracy    <       0.00018506 Ry

     iteration #  3     ecut=    40.00 Ry     beta=0.70
     Davidson diagonalization with overlap
     ethr =  1.22E-06,  avg # of iterations =  1.4

     total cpu time spent up to now is       88.3 secs

     total energy              =     -95.08803916 Ry
     Harris-Foulkes estimate   =     -95.08804897 Ry
     estimated scf accuracy    <       0.00003612 Ry

     iteration #  4     ecut=    40.00 Ry     beta=0.70
     Davidson diagonalization with overlap
     ethr =  4.01E-07,  avg # of iterations =  1.0

     total cpu time spent up to now is       90.7 secs

     total energy              =     -95.08803638 Ry
     Harris-Foulkes estimate   =     -95.08804034 Ry
     estimated scf accuracy    <       0.00001559 Ry

     iteration #  5     ecut=    40.00 Ry     beta=0.70
     Davidson diagonalization with overlap
     ethr =  1.73E-07,  avg # of iterations =  1.0

     total cpu time spent up to now is       93.2 secs

     total energy              =     -95.08803426 Ry
     Harris-Foulkes estimate   =     -95.08803668 Ry
     estimated scf accuracy    <       0.00000774 Ry

     iteration #  6     ecut=    40.00 Ry     beta=0.70
     Davidson diagonalization with overlap
     ethr =  8.60E-08,  avg # of iterations =  1.0

     total cpu time spent up to now is       95.7 secs

     total energy              =     -95.08803290 Ry
     Harris-Foulkes estimate   =     -95.08803448 Ry
     estimated scf accuracy    <       0.00000305 Ry

     iteration #  7     ecut=    40.00 Ry     beta=0.70
     Davidson diagonalization with overlap
     ethr =  3.39E-08,  avg # of iterations =  1.3

     total cpu time spent up to now is       98.2 secs

     total energy              =     -95.08803303 Ry
     Harris-Foulkes estimate   =     -95.08803321 Ry
     estimated scf accuracy    <       0.00000029 Ry

     iteration #  8     ecut=    40.00 Ry     beta=0.70
     Davidson diagonalization with overlap
     ethr =  3.23E-09,  avg # of iterations =  2.0

     total cpu time spent up to now is      101.2 secs

     total energy              =     -95.08803309 Ry
     Harris-Foulkes estimate   =     -95.08803309 Ry
     estimated scf accuracy    <          3.1E-09 Ry

     iteration #  9     ecut=    40.00 Ry     beta=0.70
     Davidson diagonalization with overlap
     ethr =  3.47E-11,  avg # of iterations =  2.0

     total cpu time spent up to now is      104.2 secs

     total energy              =     -95.08803309 Ry
     Harris-Foulkes estimate   =     -95.08803309 Ry
     estimated scf accuracy    <          1.2E-10 Ry

     iteration # 10     ecut=    40.00 Ry     beta=0.70
     Davidson diagonalization with overlap
     ethr =  1.29E-12,  avg # of iterations =  2.0

     total cpu time spent up to now is      107.2 secs

     total energy              =     -95.08803309 Ry
     Harris-Foulkes estimate   =     -95.08803309 Ry
     estimated scf accuracy    <          1.1E-10 Ry

     iteration # 11     ecut=    40.00 Ry     beta=0.70
     Davidson diagonalization with overlap
     ethr =  1.27E-12,  avg # of iterations =  2.0

     total cpu time spent up to now is      110.1 secs

     End of self-consistent calculation

     Number of k-points >= 100: set verbosity='high' to print the bands.

     the Fermi energy is     4.1192 ev

!    total energy              =     -95.08803309 Ry
     Harris-Foulkes estimate   =     -95.08803309 Ry
     estimated scf accuracy    <          9.6E-12 Ry

     The total energy is the sum of the following terms:

     one-electron contribution =     -77.29960466 Ry
     hartree contribution      =      39.90382088 Ry
     xc contribution           =     -14.33839385 Ry
     ewald contribution        =     -43.35382207 Ry
     smearing contrib. (-TS)   =      -0.00003339 Ry

     convergence has been achieved in  11 iterations

     Forces acting on atoms (cartesian axes, Ry/au):

     atom    1 type  1   force =     0.00000000    0.00000000    0.00000000

     Total force =     0.000000     Total SCF correction =     0.000000


     Computing stress (Cartesian axis) and pressure

          total   stress  (Ry/bohr**3)                   (kbar)     P=   80.73
   0.00054880  -0.00000000  -0.00000000         80.73     -0.00     -0.00
   0.00000000   0.00054880  -0.00000000          0.00     80.73     -0.00
  -0.00000000  -0.00000000   0.00054880         -0.00     -0.00     80.73


     number of scf cycles    =   4
     number of bfgs steps    =   3

     enthalpy old            =     -95.0025725050 Ry
     enthalpy new            =     -95.0025748177 Ry

     CASE: enthalpy_new < enthalpy_old

     new trust radius        =       0.0017342910 bohr
     new conv_thr            =            1.0E-10 Ry

     new unit-cell volume =    157.46813 a.u.^3 (    23.33437 Ang^3 )
     density =      1.63603 g/cm^3

CELL_PARAMETERS (alat=  8.55340597)
  -0.501089312  -0.000000000   0.501089312
   0.000000000   0.501089312   0.501089312
  -0.501089312   0.501089312  -0.000000000

ATOMIC_POSITIONS (crystal)
Na       0.000000000   0.000000000   0.000000000



     Writing output data file na.fcc.save
     NEW-OLD atomic charge density approx. for the potential
     extrapolated charge    9.01864, renormalised to    9.00000

     total cpu time spent up to now is      112.2 secs

     per-process dynamical memory:    35.6 Mb

     Self-consistent Calculation

     iteration #  1     ecut=    40.00 Ry     beta=0.70
     Davidson diagonalization with overlap
     ethr =  1.00E-06,  avg # of iterations =  2.0

     total cpu time spent up to now is      115.7 secs

     total energy              =     -95.08799095 Ry
     Harris-Foulkes estimate   =     -94.96139112 Ry
     estimated scf accuracy    <       0.00012371 Ry

     iteration #  2     ecut=    40.00 Ry     beta=0.70
     Davidson diagonalization with overlap
     ethr =  1.37E-06,  avg # of iterations =  2.9

     total cpu time spent up to now is      119.4 secs

     total energy              =     -95.08821561 Ry
     Harris-Foulkes estimate   =     -95.08830671 Ry
     estimated scf accuracy    <       0.00020764 Ry

     iteration #  3     ecut=    40.00 Ry     beta=0.70
     Davidson diagonalization with overlap
     ethr =  1.37E-06,  avg # of iterations =  1.4

     total cpu time spent up to now is      122.0 secs

     total energy              =     -95.08821789 Ry
     Harris-Foulkes estimate   =     -95.08822923 Ry
     estimated scf accuracy    <       0.00004047 Ry

     iteration #  4     ecut=    40.00 Ry     beta=0.70
     Davidson diagonalization with overlap
     ethr =  4.50E-07,  avg # of iterations =  1.0

     total cpu time spent up to now is      124.5 secs

     total energy              =     -95.08821495 Ry
     Harris-Foulkes estimate   =     -95.08821925 Ry
     estimated scf accuracy    <       0.00001695 Ry

     iteration #  5     ecut=    40.00 Ry     beta=0.70
     Davidson diagonalization with overlap
     ethr =  1.88E-07,  avg # of iterations =  1.0

     total cpu time spent up to now is      127.0 secs

     total energy              =     -95.08821282 Ry
     Harris-Foulkes estimate   =     -95.08821529 Ry
     estimated scf accuracy    <       0.00000840 Ry

     iteration #  6     ecut=    40.00 Ry     beta=0.70
     Davidson diagonalization with overlap
     ethr =  9.34E-08,  avg # of iterations =  1.0

     total cpu time spent up to now is      129.4 secs

     total energy              =     -95.08821116 Ry
     Harris-Foulkes estimate   =     -95.08821303 Ry
     estimated scf accuracy    <       0.00000360 Ry

     iteration #  7     ecut=    40.00 Ry     beta=0.70
     Davidson diagonalization with overlap
     ethr =  3.99E-08,  avg # of iterations =  1.2

     total cpu time spent up to now is      131.9 secs

     total energy              =     -95.08821131 Ry
     Harris-Foulkes estimate   =     -95.08821152 Ry
     estimated scf accuracy    <       0.00000034 Ry

     iteration #  8     ecut=    40.00 Ry     beta=0.70
     Davidson diagonalization with overlap
     ethr =  3.81E-09,  avg # of iterations =  2.0

     total cpu time spent up to now is      134.9 secs

     total energy              =     -95.08821138 Ry
     Harris-Foulkes estimate   =     -95.08821138 Ry
     estimated scf accuracy    <          5.8E-09 Ry

     iteration #  9     ecut=    40.00 Ry     beta=0.70
     Davidson diagonalization with overlap
     ethr =  6.50E-11,  avg # of iterations =  1.8

     total cpu time spent up to now is      137.6 secs

     total energy              =     -95.08821138 Ry
     Harris-Foulkes estimate   =     -95.08821138 Ry
     estimated scf accuracy    <          4.6E-10 Ry

     iteration # 10     ecut=    40.00 Ry     beta=0.70
     Davidson diagonalization with overlap
     ethr =  5.06E-12,  avg # of iterations =  1.1

     total cpu time spent up to now is      140.0 secs

     total energy              =     -95.08821138 Ry
     Harris-Foulkes estimate   =     -95.08821138 Ry
     estimated scf accuracy    <          9.5E-10 Ry

     iteration # 11     ecut=    40.00 Ry     beta=0.70
     Davidson diagonalization with overlap
     ethr =  5.06E-12,  avg # of iterations =  2.0

     total cpu time spent up to now is      143.1 secs

     End of self-consistent calculation

     Number of k-points >= 100: set verbosity='high' to print the bands.

     the Fermi energy is     4.1048 ev

!    total energy              =     -95.08821138 Ry
     Harris-Foulkes estimate   =     -95.08821138 Ry
     estimated scf accuracy    <          7.9E-11 Ry

     The total energy is the sum of the following terms:

     one-electron contribution =     -77.35135992 Ry
     hartree contribution      =      39.92505505 Ry
     xc contribution           =     -14.33802008 Ry
     ewald contribution        =     -43.32385301 Ry
     smearing contrib. (-TS)   =      -0.00003342 Ry

     convergence has been achieved in  11 iterations

     Forces acting on atoms (cartesian axes, Ry/au):

     atom    1 type  1   force =     0.00000000    0.00000000    0.00000000

     Total force =     0.000000     Total SCF correction =     0.000000


     Computing stress (Cartesian axis) and pressure

          total   stress  (Ry/bohr**3)                   (kbar)     P=   79.88
   0.00054303  -0.00000000   0.00000000         79.88     -0.00      0.00
  -0.00000000   0.00054303  -0.00000000         -0.00     79.88     -0.00
   0.00000000  -0.00000000   0.00054303          0.00     -0.00     79.88


     bfgs converged in   5 scf cycles and   4 bfgs steps
     (criteria: energy <  1.0E-04 Ry, force <  1.0E-03Ry/Bohr, cell <  5.0E-01kbar)

     End of BFGS Geometry Optimization

     Final enthalpy =     -95.0025756383 Ry
Begin final coordinates
     new unit-cell volume =    157.46813 a.u.^3 (    23.33437 Ang^3 )
     density =      1.63603 g/cm^3

CELL_PARAMETERS (alat=  8.55340597)
  -0.501089312  -0.000000000   0.501089312
   0.000000000   0.501089312   0.501089312
  -0.501089312   0.501089312  -0.000000000

ATOMIC_POSITIONS (crystal)
Na       0.000000000   0.000000000   0.000000000
End final coordinates



     A final scf calculation at the relaxed structure.
     The G-vectors are recalculated for the final unit cell
     Results may differ from those at the preceding step.

     Parallelization info
     --------------------
     sticks:   dense  smooth     PW     G-vecs:    dense   smooth      PW
     Min         204     102     37                 3796     1332     284
     Max         205     103     38                 3797     1333     285
     Sum         817     409    151                15185     5329    1139



     bravais-lattice index     =            2
     lattice parameter (alat)  =       8.5534  a.u.
     unit-cell volume          =     157.4681 (a.u.)^3
     number of atoms/cell      =            1
     number of atomic types    =            1
     number of electrons       =         9.00
     number of Kohn-Sham states=            9
     kinetic-energy cutoff     =      40.0000  Ry
     charge density cutoff     =     320.0000  Ry
     convergence threshold     =      1.0E-10
     mixing beta               =       0.7000
     number of iterations used =            8  plain     mixing
     Exchange-correlation      = SLA  PW   PBE  PBE ( 1  4  3  4 0 0)

     celldm(1)=   8.553406  celldm(2)=   0.000000  celldm(3)=   0.000000
     celldm(4)=   0.000000  celldm(5)=   0.000000  celldm(6)=   0.000000

     crystal axes: (cart. coord. in units of alat)
               a(1) = (  -0.501089  -0.000000   0.501089 )  
               a(2) = (   0.000000   0.501089   0.501089 )  
               a(3) = (  -0.501089   0.501089  -0.000000 )  

     reciprocal axes: (cart. coord. in units 2 pi/alat)
               b(1) = ( -0.997826 -0.997826  0.997826 )  
               b(2) = (  0.997826  0.997826  0.997826 )  
               b(3) = ( -0.997826  0.997826 -0.997826 )  


     PseudoPot. # 1 for Na read from file:
     /home/s1333534/quantum_espresso/qe-6.1/pseudo/Na_pbe_v1.uspp.F.UPF
     MD5 check sum: 76a99c7e9422403d3e93cbc85ab7bccb
     Pseudo is Ultrasoft, Zval =  9.0
     Generated by new atomic code, or converted to UPF format
     Using radial grid of  819 points,  5 beta functions with: 
                l(1) =   0
                l(2) =   0
                l(3) =   1
                l(4) =   1
                l(5) =   2
     Q(r) pseudized with  8 coefficients,  rinner =    1.250   1.250   1.250
                                                       1.250   1.250

     atomic species   valence    mass     pseudopotential
        Na             9.00    22.99000     Na( 1.00)

     48 Sym. Ops., with inversion, found



   Cartesian axes

     site n.     atom                  positions (alat units)
         1           Na  tau(   1) = (   0.0000000   0.0000000   0.0000000  )

     number of k points=   770  Marzari-Vanderbilt smearing, width (Ry)=  0.0200

     Number of k-points >= 100: set verbosity='high' to print them.

     Dense  grid:    15185 G-vectors     FFT dimensions: (  36,  36,  36)

     Smooth grid:     5329 G-vectors     FFT dimensions: (  25,  25,  25)

     Estimated max dynamical RAM per process >      20.35MB

     Estimated total allocated dynamical RAM >      81.40MB

     Initial potential from superposition of free atoms

     starting charge    8.99371, renormalised to    9.00000
     Starting wfc are    5 randomized atomic wfcs +    4 random wfc

     Writing output data file na.fcc.save

     total cpu time spent up to now is      146.4 secs

     per-process dynamical memory:    34.9 Mb

     Self-consistent Calculation

     iteration #  1     ecut=    40.00 Ry     beta=0.70
     Davidson diagonalization with overlap
     c_bands:  1 eigenvalues not converged
     ethr =  1.00E-06,  avg # of iterations = 10.3

     total cpu time spent up to now is      155.2 secs

     total energy              =     -95.08801633 Ry
     Harris-Foulkes estimate   =     -95.08857333 Ry
     estimated scf accuracy    <       0.00150561 Ry

     iteration #  2     ecut=    40.00 Ry     beta=0.70
     Davidson diagonalization with overlap
     ethr =  1.67E-05,  avg # of iterations =  2.0

     total cpu time spent up to now is      158.2 secs

     total energy              =     -95.08821816 Ry
     Harris-Foulkes estimate   =     -95.08826526 Ry
     estimated scf accuracy    <       0.00017370 Ry

     iteration #  3     ecut=    40.00 Ry     beta=0.70
     Davidson diagonalization with overlap
     ethr =  1.93E-06,  avg # of iterations =  2.0

     total cpu time spent up to now is      161.3 secs

     total energy              =     -95.08823969 Ry
     Harris-Foulkes estimate   =     -95.08824110 Ry
     estimated scf accuracy    <       0.00001013 Ry

     iteration #  4     ecut=    40.00 Ry     beta=0.70
     Davidson diagonalization with overlap
     ethr =  1.13E-07,  avg # of iterations =  1.0

     total cpu time spent up to now is      163.9 secs

     total energy              =     -95.08824057 Ry
     Harris-Foulkes estimate   =     -95.08824051 Ry
     estimated scf accuracy    <       0.00000001 Ry

     iteration #  5     ecut=    40.00 Ry     beta=0.70
     Davidson diagonalization with overlap
     ethr =  1.42E-10,  avg # of iterations =  3.0

     total cpu time spent up to now is      167.5 secs

     total energy              =     -95.08824061 Ry
     Harris-Foulkes estimate   =     -95.08824061 Ry
     estimated scf accuracy    <          1.7E-09 Ry

     iteration #  6     ecut=    40.00 Ry     beta=0.70
     Davidson diagonalization with overlap
     ethr =  1.84E-11,  avg # of iterations =  1.6

     total cpu time spent up to now is      170.3 secs

     End of self-consistent calculation

     Number of k-points >= 100: set verbosity='high' to print the bands.

     the Fermi energy is     4.1049 ev

!    total energy              =     -95.08824061 Ry
     Harris-Foulkes estimate   =     -95.08824061 Ry
     estimated scf accuracy    <          5.7E-11 Ry

     The total energy is the sum of the following terms:

     one-electron contribution =     -77.35146951 Ry
     hartree contribution      =      39.92515851 Ry
     xc contribution           =     -14.33804317 Ry
     ewald contribution        =     -43.32385301 Ry
     smearing contrib. (-TS)   =      -0.00003342 Ry

     convergence has been achieved in   6 iterations

     Forces acting on atoms (cartesian axes, Ry/au):

     atom    1 type  1   force =     0.00000000    0.00000000    0.00000000

     Total force =     0.000000     Total SCF correction =     0.000000


     Computing stress (Cartesian axis) and pressure

          total   stress  (Ry/bohr**3)                   (kbar)     P=   80.23
   0.00054542   0.00000000   0.00000000         80.23      0.00      0.00
   0.00000000   0.00054542  -0.00000000          0.00     80.23     -0.00
   0.00000000  -0.00000000   0.00054542          0.00     -0.00     80.23


     Writing output data file na.fcc.save

     init_run     :      2.55s CPU      2.68s WALL (       2 calls)
     electrons    :    150.70s CPU    157.09s WALL (       6 calls)
     update_pot   :      0.58s CPU      0.58s WALL (       4 calls)
     forces       :      1.14s CPU      1.15s WALL (       6 calls)
     stress       :      6.17s CPU      6.20s WALL (       6 calls)

     Called by init_run:
     wfcinit      :      1.91s CPU      2.03s WALL (       2 calls)
     potinit      :      0.06s CPU      0.06s WALL (       2 calls)

     Called by electrons:
     c_bands      :    124.76s CPU    130.25s WALL (      52 calls)
     sum_band     :     24.94s CPU     25.84s WALL (      52 calls)
     v_of_rho     :      0.47s CPU      0.47s WALL (      57 calls)
     newd         :      0.55s CPU      0.55s WALL (      57 calls)
     mix_rho      :      0.03s CPU      0.04s WALL (      52 calls)

     Called by c_bands:
     init_us_2    :      6.64s CPU      6.44s WALL (   90860 calls)
     cegterg      :    118.12s CPU    123.63s WALL (   40040 calls)

     Called by sum_band:
     sum_band:bec :      0.12s CPU      0.12s WALL (   40040 calls)
     addusdens    :      0.62s CPU      0.62s WALL (      52 calls)

     Called by *egterg:
     h_psi        :     94.01s CPU     98.37s WALL (  119921 calls)
     s_psi        :      1.62s CPU      1.26s WALL (  119921 calls)
     g_psi        :      0.81s CPU      0.74s WALL (   78341 calls)
     cdiaghg      :     14.43s CPU     14.93s WALL (  114531 calls)

     Called by h_psi:
     h_psi:pot    :     93.66s CPU     97.85s WALL (  119921 calls)
     h_psi:calbec :      2.79s CPU      2.22s WALL (  119921 calls)
     vloc_psi     :     89.85s CPU     93.94s WALL (  119921 calls)
     add_vuspsi   :      0.86s CPU      1.41s WALL (  119921 calls)

     General routines
     calbec       :      4.01s CPU      3.47s WALL (  183061 calls)
     fft          :      0.24s CPU      0.25s WALL (     944 calls)
     ffts         :      0.01s CPU      0.01s WALL (     109 calls)
     fftw         :     99.57s CPU     98.10s WALL ( 2124978 calls)
     interpolate  :      0.04s CPU      0.04s WALL (     109 calls)
     davcio       :      0.01s CPU      0.01s WALL (    1540 calls)

     Parallel routines
     fft_scatter  :     21.89s CPU     24.85s WALL ( 2126031 calls)

     PWSCF        :  2m45.24s CPU     2m52.19s WALL


   This run was terminated on:  14:14:26  20Dec2017            

=------------------------------------------------------------------------------=
   JOB DONE.
=------------------------------------------------------------------------------=
