
     Program PWSCF v.6.1 (svn rev. 13369) starts on 20Dec2017 at 13:59:46 

     This program is part of the open-source Quantum ESPRESSO suite
     for quantum simulation of materials; please cite
         "P. Giannozzi et al., J. Phys.:Condens. Matter 21 395502 (2009);
          URL http://www.quantum-espresso.org", 
     in publications or presentations arising from this work. More details at
     http://www.quantum-espresso.org/quote

     Parallel version (MPI), running on     4 processors
     R & G space division:  proc/nbgrp/npool/nimage =       4
     Waiting for input...
     Reading input from standard input

     Current dimensions of program PWSCF are:
     Max number of different atomic species (ntypx) = 10
     Max number of k-points (npk) =  40000
     Max angular momentum in pseudopotentials (lmaxx) =  3

     Subspace diagonalization in iterative solution of the eigenvalue problem:
     a serial algorithm will be used


     Parallelization info
     --------------------
     sticks:   dense  smooth     PW     G-vecs:    dense   smooth      PW
     Min         222     109     37                 4393     1557     309
     Max         223     110     38                 4394     1558     312
     Sum         889     439    151                17573     6231    1243



     bravais-lattice index     =            2
     lattice parameter (alat)  =       9.0155  a.u.
     unit-cell volume          =     183.1954 (a.u.)^3
     number of atoms/cell      =            1
     number of atomic types    =            1
     number of electrons       =         9.00
     number of Kohn-Sham states=            9
     kinetic-energy cutoff     =      40.0000  Ry
     charge density cutoff     =     320.0000  Ry
     convergence threshold     =      1.0E-08
     mixing beta               =       0.7000
     number of iterations used =            8  plain     mixing
     Exchange-correlation      = SLA  PW   PBE  PBE ( 1  4  3  4 0 0)
     nstep                     =           50


     celldm(1)=   9.015535  celldm(2)=   0.000000  celldm(3)=   0.000000
     celldm(4)=   0.000000  celldm(5)=   0.000000  celldm(6)=   0.000000

     crystal axes: (cart. coord. in units of alat)
               a(1) = (  -0.500000   0.000000   0.500000 )  
               a(2) = (   0.000000   0.500000   0.500000 )  
               a(3) = (  -0.500000   0.500000   0.000000 )  

     reciprocal axes: (cart. coord. in units 2 pi/alat)
               b(1) = ( -1.000000 -1.000000  1.000000 )  
               b(2) = (  1.000000  1.000000  1.000000 )  
               b(3) = ( -1.000000  1.000000 -1.000000 )  


     PseudoPot. # 1 for Na read from file:
     /home/s1333534/quantum_espresso/qe-6.1/pseudo/Na_pbe_v1.uspp.F.UPF
     MD5 check sum: 76a99c7e9422403d3e93cbc85ab7bccb
     Pseudo is Ultrasoft, Zval =  9.0
     Generated by new atomic code, or converted to UPF format
     Using radial grid of  819 points,  5 beta functions with: 
                l(1) =   0
                l(2) =   0
                l(3) =   1
                l(4) =   1
                l(5) =   2
     Q(r) pseudized with  8 coefficients,  rinner =    1.250   1.250   1.250
                                                       1.250   1.250

     atomic species   valence    mass     pseudopotential
        Na             9.00    22.99000     Na( 1.00)

     48 Sym. Ops., with inversion, found



   Cartesian axes

     site n.     atom                  positions (alat units)
         1           Na  tau(   1) = (   0.0000000   0.0000000   0.0000000  )

     number of k points=   770  Marzari-Vanderbilt smearing, width (Ry)=  0.0200

     Number of k-points >= 100: set verbosity='high' to print them.

     Dense  grid:    17573 G-vectors     FFT dimensions: (  40,  40,  40)

     Smooth grid:     6231 G-vectors     FFT dimensions: (  25,  25,  25)

     Estimated max dynamical RAM per process >      23.78MB

     Estimated total allocated dynamical RAM >      95.11MB

     Initial potential from superposition of free atoms

     starting charge    8.99371, renormalised to    9.00000
     Starting wfc are    5 randomized atomic wfcs +    4 random wfc

     total cpu time spent up to now is        1.5 secs

     per-process dynamical memory:    32.8 Mb

     Self-consistent Calculation

     iteration #  1     ecut=    40.00 Ry     beta=0.70
     Davidson diagonalization with overlap
     ethr =  1.00E-02,  avg # of iterations =  5.3

     Threshold (ethr) on eigenvalues was too large:
     Diagonalizing with lowered threshold

     Davidson diagonalization with overlap
     ethr =  1.30E-05,  avg # of iterations =  3.3

     total cpu time spent up to now is       10.7 secs

     total energy              =     -95.09881994 Ry
     Harris-Foulkes estimate   =     -95.09923448 Ry
     estimated scf accuracy    <       0.00117102 Ry

     iteration #  2     ecut=    40.00 Ry     beta=0.70
     Davidson diagonalization with overlap
     ethr =  1.30E-05,  avg # of iterations =  2.0

     total cpu time spent up to now is       14.0 secs

     total energy              =     -95.09896637 Ry
     Harris-Foulkes estimate   =     -95.09900069 Ry
     estimated scf accuracy    <       0.00013080 Ry

     iteration #  3     ecut=    40.00 Ry     beta=0.70
     Davidson diagonalization with overlap
     ethr =  1.45E-06,  avg # of iterations =  2.1

     total cpu time spent up to now is       17.3 secs

     total energy              =     -95.09898240 Ry
     Harris-Foulkes estimate   =     -95.09898369 Ry
     estimated scf accuracy    <       0.00000765 Ry

     iteration #  4     ecut=    40.00 Ry     beta=0.70
     Davidson diagonalization with overlap
     ethr =  8.50E-08,  avg # of iterations =  1.0

     total cpu time spent up to now is       20.0 secs

     total energy              =     -95.09898310 Ry
     Harris-Foulkes estimate   =     -95.09898305 Ry
     estimated scf accuracy    <       0.00000001 Ry

     iteration #  5     ecut=    40.00 Ry     beta=0.70
     Davidson diagonalization with overlap
     ethr =  1.17E-10,  avg # of iterations =  3.0

     total cpu time spent up to now is       23.9 secs

     End of self-consistent calculation

     Number of k-points >= 100: set verbosity='high' to print the bands.

     the Fermi energy is     3.1443 ev

!    total energy              =     -95.09898314 Ry
     Harris-Foulkes estimate   =     -95.09898313 Ry
     estimated scf accuracy    <          1.7E-09 Ry

     The total energy is the sum of the following terms:

     one-electron contribution =     -81.04547687 Ry
     hartree contribution      =      41.45204441 Ry
     xc contribution           =     -14.31285674 Ry
     ewald contribution        =     -41.19265728 Ry
     smearing contrib. (-TS)   =      -0.00003665 Ry

     convergence has been achieved in   5 iterations

     Forces acting on atoms (cartesian axes, Ry/au):

     atom    1 type  1   force =     0.00000000    0.00000000    0.00000000

     Total force =     0.000000     Total SCF correction =     0.000000


     Computing stress (Cartesian axis) and pressure

          total   stress  (Ry/bohr**3)                   (kbar)     P=   39.10
   0.00026577  -0.00000000   0.00000000         39.10     -0.00      0.00
  -0.00000000   0.00026577   0.00000000         -0.00     39.10      0.00
   0.00000000  -0.00000000   0.00026577          0.00     -0.00     39.10


     BFGS Geometry Optimization

     number of scf cycles    =   1
     number of bfgs steps    =   0

     enthalpy new            =     -95.0491696609 Ry

     new trust radius        =       0.0004156228 bohr
     new conv_thr            =       0.0000000100 Ry

     new unit-cell volume =    183.11099 a.u.^3 (    27.13425 Ang^3 )
     density =      1.40692 g/cm^3

CELL_PARAMETERS (alat=  9.01553462)
  -0.499923232   0.000000000   0.499923232
   0.000000000   0.499923232   0.499923232
  -0.499923232   0.499923232  -0.000000000

ATOMIC_POSITIONS (crystal)
Na       0.000000000   0.000000000   0.000000000



     Writing output data file na.fcc.save
     NEW-OLD atomic charge density approx. for the potential
     extrapolated charge    8.99586, renormalised to    9.00000

     total cpu time spent up to now is       26.3 secs

     per-process dynamical memory:    41.2 Mb

     Self-consistent Calculation

     iteration #  1     ecut=    40.00 Ry     beta=0.70
     Davidson diagonalization with overlap
     ethr =  1.00E-06,  avg # of iterations =  2.0

     Threshold (ethr) on eigenvalues was too large:
     Diagonalizing with lowered threshold

     Davidson diagonalization with overlap
     ethr =  6.87E-08,  avg # of iterations =  1.0

     total cpu time spent up to now is       32.6 secs

     total energy              =     -95.09894970 Ry
     Harris-Foulkes estimate   =     -95.12856419 Ry
     estimated scf accuracy    <       0.00000619 Ry

     iteration #  2     ecut=    40.00 Ry     beta=0.70
     Davidson diagonalization with overlap
     ethr =  6.87E-08,  avg # of iterations =  2.9

     total cpu time spent up to now is       36.4 secs

     total energy              =     -95.09896091 Ry
     Harris-Foulkes estimate   =     -95.09896545 Ry
     estimated scf accuracy    <       0.00001034 Ry

     iteration #  3     ecut=    40.00 Ry     beta=0.70
     Davidson diagonalization with overlap
     ethr =  6.87E-08,  avg # of iterations =  1.5

     total cpu time spent up to now is       39.3 secs

     total energy              =     -95.09896107 Ry
     Harris-Foulkes estimate   =     -95.09896159 Ry
     estimated scf accuracy    <       0.00000201 Ry

     iteration #  4     ecut=    40.00 Ry     beta=0.70
     Davidson diagonalization with overlap
     ethr =  2.24E-08,  avg # of iterations =  1.0

     total cpu time spent up to now is       42.1 secs

     total energy              =     -95.09896088 Ry
     Harris-Foulkes estimate   =     -95.09896113 Ry
     estimated scf accuracy    <       0.00000091 Ry

     iteration #  5     ecut=    40.00 Ry     beta=0.70
     Davidson diagonalization with overlap
     ethr =  1.01E-08,  avg # of iterations =  1.0

     total cpu time spent up to now is       44.9 secs

     total energy              =     -95.09896077 Ry
     Harris-Foulkes estimate   =     -95.09896090 Ry
     estimated scf accuracy    <       0.00000042 Ry

     iteration #  6     ecut=    40.00 Ry     beta=0.70
     Davidson diagonalization with overlap
     ethr =  4.64E-09,  avg # of iterations =  1.0

     total cpu time spent up to now is       47.6 secs

     total energy              =     -95.09896071 Ry
     Harris-Foulkes estimate   =     -95.09896078 Ry
     estimated scf accuracy    <       0.00000015 Ry

     iteration #  7     ecut=    40.00 Ry     beta=0.70
     Davidson diagonalization with overlap
     ethr =  1.68E-09,  avg # of iterations =  1.0

     total cpu time spent up to now is       50.4 secs

     total energy              =     -95.09896071 Ry
     Harris-Foulkes estimate   =     -95.09896072 Ry
     estimated scf accuracy    <       0.00000002 Ry

     iteration #  8     ecut=    40.00 Ry     beta=0.70
     Davidson diagonalization with overlap
     ethr =  2.19E-10,  avg # of iterations =  2.0

     total cpu time spent up to now is       53.7 secs

     End of self-consistent calculation

     Number of k-points >= 100: set verbosity='high' to print the bands.

     the Fermi energy is     3.1470 ev

!    total energy              =     -95.09896071 Ry
     Harris-Foulkes estimate   =     -95.09896071 Ry
     estimated scf accuracy    <          8.2E-11 Ry

     The total energy is the sum of the following terms:

     one-electron contribution =     -81.03446081 Ry
     hartree contribution      =      41.44744549 Ry
     xc contribution           =     -14.31292591 Ry
     ewald contribution        =     -41.19898284 Ry
     smearing contrib. (-TS)   =      -0.00003664 Ry

     convergence has been achieved in   8 iterations

     Forces acting on atoms (cartesian axes, Ry/au):

     atom    1 type  1   force =     0.00000000    0.00000000    0.00000000

     Total force =     0.000000     Total SCF correction =     0.000000


     Computing stress (Cartesian axis) and pressure

          total   stress  (Ry/bohr**3)                   (kbar)     P=   39.07
   0.00026559  -0.00000000  -0.00000000         39.07     -0.00     -0.00
   0.00000000   0.00026559  -0.00000000          0.00     39.07     -0.00
  -0.00000000  -0.00000000   0.00026559         -0.00     -0.00     39.07


     number of scf cycles    =   2
     number of bfgs steps    =   1

     enthalpy old            =     -95.0491696609 Ry
     enthalpy new            =     -95.0491701734 Ry

     CASE: enthalpy_new < enthalpy_old


     WARNING: bfgs curvature condition failed, Theta= 0.777
     new trust radius        =       0.0006233864 bohr
     new conv_thr            =            1.0E-10 Ry

     new unit-cell volume =    182.98449 a.u.^3 (    27.11550 Ang^3 )
     density =      1.40790 g/cm^3

CELL_PARAMETERS (alat=  9.01553462)
  -0.499808079   0.000000000   0.499808079
   0.000000000   0.499808079   0.499808079
  -0.499808079   0.499808079  -0.000000000

ATOMIC_POSITIONS (crystal)
Na       0.000000000   0.000000000   0.000000000



     Writing output data file na.fcc.save
     NEW-OLD atomic charge density approx. for the potential
     extrapolated charge    8.99378, renormalised to    9.00000

     total cpu time spent up to now is       56.0 secs

     per-process dynamical memory:    41.5 Mb

     Self-consistent Calculation

     iteration #  1     ecut=    40.00 Ry     beta=0.70
     Davidson diagonalization with overlap
     ethr =  1.00E-06,  avg # of iterations =  2.0

     total cpu time spent up to now is       59.8 secs

     total energy              =     -95.09890219 Ry
     Harris-Foulkes estimate   =     -95.14333475 Ry
     estimated scf accuracy    <       0.00001392 Ry

     iteration #  2     ecut=    40.00 Ry     beta=0.70
     Davidson diagonalization with overlap
     ethr =  1.55E-07,  avg # of iterations =  2.9

     total cpu time spent up to now is       63.6 secs

     total energy              =     -95.09892741 Ry
     Harris-Foulkes estimate   =     -95.09893763 Ry
     estimated scf accuracy    <       0.00002327 Ry

     iteration #  3     ecut=    40.00 Ry     beta=0.70
     Davidson diagonalization with overlap
     ethr =  1.55E-07,  avg # of iterations =  1.5

     total cpu time spent up to now is       66.5 secs

     total energy              =     -95.09892774 Ry
     Harris-Foulkes estimate   =     -95.09892894 Ry
     estimated scf accuracy    <       0.00000453 Ry

     iteration #  4     ecut=    40.00 Ry     beta=0.70
     Davidson diagonalization with overlap
     ethr =  5.03E-08,  avg # of iterations =  1.0

     total cpu time spent up to now is       69.2 secs

     total energy              =     -95.09892732 Ry
     Harris-Foulkes estimate   =     -95.09892789 Ry
     estimated scf accuracy    <       0.00000199 Ry

     iteration #  5     ecut=    40.00 Ry     beta=0.70
     Davidson diagonalization with overlap
     ethr =  2.22E-08,  avg # of iterations =  1.0

     total cpu time spent up to now is       72.0 secs

     total energy              =     -95.09892708 Ry
     Harris-Foulkes estimate   =     -95.09892737 Ry
     estimated scf accuracy    <       0.00000088 Ry

     iteration #  6     ecut=    40.00 Ry     beta=0.70
     Davidson diagonalization with overlap
     ethr =  9.76E-09,  avg # of iterations =  1.0

     total cpu time spent up to now is       74.7 secs

     total energy              =     -95.09892693 Ry
     Harris-Foulkes estimate   =     -95.09892711 Ry
     estimated scf accuracy    <       0.00000032 Ry

     iteration #  7     ecut=    40.00 Ry     beta=0.70
     Davidson diagonalization with overlap
     ethr =  3.51E-09,  avg # of iterations =  2.0

     total cpu time spent up to now is       77.9 secs

     total energy              =     -95.09892696 Ry
     Harris-Foulkes estimate   =     -95.09892697 Ry
     estimated scf accuracy    <       0.00000002 Ry

     iteration #  8     ecut=    40.00 Ry     beta=0.70
     Davidson diagonalization with overlap
     ethr =  1.99E-10,  avg # of iterations =  2.0

     total cpu time spent up to now is       81.2 secs

     End of self-consistent calculation

     Number of k-points >= 100: set verbosity='high' to print the bands.

     the Fermi energy is     3.1510 ev

!    total energy              =     -95.09892696 Ry
     Harris-Foulkes estimate   =     -95.09892696 Ry
     estimated scf accuracy    <          3.3E-11 Ry

     The total energy is the sum of the following terms:

     one-electron contribution =     -81.01802851 Ry
     hartree contribution      =      41.44066287 Ry
     xc contribution           =     -14.31304989 Ry
     ewald contribution        =     -41.20847482 Ry
     smearing contrib. (-TS)   =      -0.00003662 Ry

     convergence has been achieved in   8 iterations

     Forces acting on atoms (cartesian axes, Ry/au):

     atom    1 type  1   force =     0.00000000    0.00000000    0.00000000

     Total force =     0.000000     Total SCF correction =     0.000000


     Computing stress (Cartesian axis) and pressure

          total   stress  (Ry/bohr**3)                   (kbar)     P=   39.38
   0.00026772   0.00000000   0.00000000         39.38      0.00      0.00
   0.00000000   0.00026772  -0.00000000          0.00     39.38     -0.00
   0.00000000  -0.00000000   0.00026772          0.00     -0.00     39.38


     number of scf cycles    =   3
     number of bfgs steps    =   2

     enthalpy old            =     -95.0491701734 Ry
     enthalpy new            =     -95.0491708247 Ry

     CASE: enthalpy_new < enthalpy_old

     new trust radius        =       0.0009349719 bohr
     new conv_thr            =            1.0E-10 Ry

     new unit-cell volume =    182.79484 a.u.^3 (    27.08740 Ang^3 )
     density =      1.40936 g/cm^3

CELL_PARAMETERS (alat=  9.01553462)
  -0.499635350   0.000000000   0.499635350
   0.000000000   0.499635350   0.499635350
  -0.499635350   0.499635350  -0.000000000

ATOMIC_POSITIONS (crystal)
Na       0.000000000   0.000000000   0.000000000



     Writing output data file na.fcc.save
     NEW-OLD atomic charge density approx. for the potential
     extrapolated charge    8.99067, renormalised to    9.00000

     total cpu time spent up to now is       83.6 secs

     per-process dynamical memory:    41.5 Mb

     Self-consistent Calculation

     iteration #  1     ecut=    40.00 Ry     beta=0.70
     Davidson diagonalization with overlap
     ethr =  1.00E-06,  avg # of iterations =  2.0

     total cpu time spent up to now is       87.4 secs

     total energy              =     -95.09882051 Ry
     Harris-Foulkes estimate   =     -95.16549356 Ry
     estimated scf accuracy    <       0.00003114 Ry

     iteration #  2     ecut=    40.00 Ry     beta=0.70
     Davidson diagonalization with overlap
     ethr =  3.46E-07,  avg # of iterations =  2.9

     total cpu time spent up to now is       91.2 secs

     total energy              =     -95.09887713 Ry
     Harris-Foulkes estimate   =     -95.09890006 Ry
     estimated scf accuracy    <       0.00005228 Ry

     iteration #  3     ecut=    40.00 Ry     beta=0.70
     Davidson diagonalization with overlap
     ethr =  3.46E-07,  avg # of iterations =  1.5

     total cpu time spent up to now is       94.2 secs

     total energy              =     -95.09887785 Ry
     Harris-Foulkes estimate   =     -95.09888055 Ry
     estimated scf accuracy    <       0.00001019 Ry

     iteration #  4     ecut=    40.00 Ry     beta=0.70
     Davidson diagonalization with overlap
     ethr =  1.13E-07,  avg # of iterations =  1.0

     total cpu time spent up to now is       97.0 secs

     total energy              =     -95.09887690 Ry
     Harris-Foulkes estimate   =     -95.09887819 Ry
     estimated scf accuracy    <       0.00000448 Ry

     iteration #  5     ecut=    40.00 Ry     beta=0.70
     Davidson diagonalization with overlap
     ethr =  4.98E-08,  avg # of iterations =  1.0

     total cpu time spent up to now is       99.7 secs

     total energy              =     -95.09887637 Ry
     Harris-Foulkes estimate   =     -95.09887701 Ry
     estimated scf accuracy    <       0.00000196 Ry

     iteration #  6     ecut=    40.00 Ry     beta=0.70
     Davidson diagonalization with overlap
     ethr =  2.18E-08,  avg # of iterations =  1.0

     total cpu time spent up to now is      102.5 secs

     total energy              =     -95.09887604 Ry
     Harris-Foulkes estimate   =     -95.09887643 Ry
     estimated scf accuracy    <       0.00000071 Ry

     iteration #  7     ecut=    40.00 Ry     beta=0.70
     Davidson diagonalization with overlap
     ethr =  7.93E-09,  avg # of iterations =  1.9

     total cpu time spent up to now is      105.6 secs

     total energy              =     -95.09887610 Ry
     Harris-Foulkes estimate   =     -95.09887613 Ry
     estimated scf accuracy    <       0.00000005 Ry

     iteration #  8     ecut=    40.00 Ry     beta=0.70
     Davidson diagonalization with overlap
     ethr =  5.05E-10,  avg # of iterations =  2.0

     total cpu time spent up to now is      108.9 secs

     End of self-consistent calculation

     Number of k-points >= 100: set verbosity='high' to print the bands.

     the Fermi energy is     3.1571 ev

!    total energy              =     -95.09887611 Ry
     Harris-Foulkes estimate   =     -95.09887611 Ry
     estimated scf accuracy    <          1.3E-11 Ry

     The total energy is the sum of the following terms:

     one-electron contribution =     -80.99326364 Ry
     hartree contribution      =      41.43035755 Ry
     xc contribution           =     -14.31321244 Ry
     ewald contribution        =     -41.22272098 Ry
     smearing contrib. (-TS)   =      -0.00003659 Ry

     convergence has been achieved in   8 iterations

     Forces acting on atoms (cartesian axes, Ry/au):

     atom    1 type  1   force =     0.00000000    0.00000000    0.00000000

     Total force =     0.000000     Total SCF correction =     0.000000


     Computing stress (Cartesian axis) and pressure

          total   stress  (Ry/bohr**3)                   (kbar)     P=   39.60
   0.00026921   0.00000000  -0.00000000         39.60      0.00     -0.00
   0.00000000   0.00026921  -0.00000000          0.00     39.60     -0.00
   0.00000000  -0.00000000   0.00026921          0.00     -0.00     39.60


     bfgs converged in   4 scf cycles and   3 bfgs steps
     (criteria: energy <  1.0E-04 Ry, force <  1.0E-03Ry/Bohr, cell <  5.0E-01kbar)

     End of BFGS Geometry Optimization

     Final enthalpy =     -95.0491715371 Ry
Begin final coordinates
     new unit-cell volume =    182.79484 a.u.^3 (    27.08740 Ang^3 )
     density =      1.40936 g/cm^3

CELL_PARAMETERS (alat=  9.01553462)
  -0.499635350   0.000000000   0.499635350
   0.000000000   0.499635350   0.499635350
  -0.499635350   0.499635350  -0.000000000

ATOMIC_POSITIONS (crystal)
Na       0.000000000   0.000000000   0.000000000
End final coordinates



     A final scf calculation at the relaxed structure.
     The G-vectors are recalculated for the final unit cell
     Results may differ from those at the preceding step.

     Parallelization info
     --------------------
     sticks:   dense  smooth     PW     G-vecs:    dense   smooth      PW
     Min         222     109     37                 4393     1557     309
     Max         223     110     38                 4394     1558     312
     Sum         889     439    151                17573     6231    1243



     bravais-lattice index     =            2
     lattice parameter (alat)  =       9.0155  a.u.
     unit-cell volume          =     182.7948 (a.u.)^3
     number of atoms/cell      =            1
     number of atomic types    =            1
     number of electrons       =         9.00
     number of Kohn-Sham states=            9
     kinetic-energy cutoff     =      40.0000  Ry
     charge density cutoff     =     320.0000  Ry
     convergence threshold     =      1.0E-10
     mixing beta               =       0.7000
     number of iterations used =            8  plain     mixing
     Exchange-correlation      = SLA  PW   PBE  PBE ( 1  4  3  4 0 0)

     celldm(1)=   9.015535  celldm(2)=   0.000000  celldm(3)=   0.000000
     celldm(4)=   0.000000  celldm(5)=   0.000000  celldm(6)=   0.000000

     crystal axes: (cart. coord. in units of alat)
               a(1) = (  -0.499635   0.000000   0.499635 )  
               a(2) = (   0.000000   0.499635   0.499635 )  
               a(3) = (  -0.499635   0.499635  -0.000000 )  

     reciprocal axes: (cart. coord. in units 2 pi/alat)
               b(1) = ( -1.000730 -1.000730  1.000730 )  
               b(2) = (  1.000730  1.000730  1.000730 )  
               b(3) = ( -1.000730  1.000730 -1.000730 )  


     PseudoPot. # 1 for Na read from file:
     /home/s1333534/quantum_espresso/qe-6.1/pseudo/Na_pbe_v1.uspp.F.UPF
     MD5 check sum: 76a99c7e9422403d3e93cbc85ab7bccb
     Pseudo is Ultrasoft, Zval =  9.0
     Generated by new atomic code, or converted to UPF format
     Using radial grid of  819 points,  5 beta functions with: 
                l(1) =   0
                l(2) =   0
                l(3) =   1
                l(4) =   1
                l(5) =   2
     Q(r) pseudized with  8 coefficients,  rinner =    1.250   1.250   1.250
                                                       1.250   1.250

     atomic species   valence    mass     pseudopotential
        Na             9.00    22.99000     Na( 1.00)

     48 Sym. Ops., with inversion, found



   Cartesian axes

     site n.     atom                  positions (alat units)
         1           Na  tau(   1) = (   0.0000000   0.0000000   0.0000000  )

     number of k points=   770  Marzari-Vanderbilt smearing, width (Ry)=  0.0200

     Number of k-points >= 100: set verbosity='high' to print them.

     Dense  grid:    17573 G-vectors     FFT dimensions: (  40,  40,  40)

     Smooth grid:     6231 G-vectors     FFT dimensions: (  25,  25,  25)

     Estimated max dynamical RAM per process >      23.78MB

     Estimated total allocated dynamical RAM >      95.11MB

     Initial potential from superposition of free atoms

     starting charge    8.99371, renormalised to    9.00000
     Starting wfc are    5 randomized atomic wfcs +    4 random wfc

     Writing output data file na.fcc.save

     total cpu time spent up to now is      112.5 secs

     per-process dynamical memory:    40.1 Mb

     Self-consistent Calculation

     iteration #  1     ecut=    40.00 Ry     beta=0.70
     Davidson diagonalization with overlap
     c_bands:  1 eigenvalues not converged
     c_bands:  1 eigenvalues not converged
     c_bands:  1 eigenvalues not converged
     ethr =  1.00E-06,  avg # of iterations = 10.6

     total cpu time spent up to now is      121.8 secs

     total energy              =     -95.09869792 Ry
     Harris-Foulkes estimate   =     -95.09911823 Ry
     estimated scf accuracy    <       0.00118011 Ry

     iteration #  2     ecut=    40.00 Ry     beta=0.70
     Davidson diagonalization with overlap
     ethr =  1.31E-05,  avg # of iterations =  2.0

     total cpu time spent up to now is      125.0 secs

     total energy              =     -95.09885066 Ry
     Harris-Foulkes estimate   =     -95.09888720 Ry
     estimated scf accuracy    <       0.00013522 Ry

     iteration #  3     ecut=    40.00 Ry     beta=0.70
     Davidson diagonalization with overlap
     ethr =  1.50E-06,  avg # of iterations =  2.0

     total cpu time spent up to now is      128.2 secs

     total energy              =     -95.09886639 Ry
     Harris-Foulkes estimate   =     -95.09886784 Ry
     estimated scf accuracy    <       0.00000806 Ry

     iteration #  4     ecut=    40.00 Ry     beta=0.70
     Davidson diagonalization with overlap
     ethr =  8.95E-08,  avg # of iterations =  1.0

     total cpu time spent up to now is      131.0 secs

     total energy              =     -95.09886710 Ry
     Harris-Foulkes estimate   =     -95.09886705 Ry
     estimated scf accuracy    <          9.5E-09 Ry

     iteration #  5     ecut=    40.00 Ry     beta=0.70
     Davidson diagonalization with overlap
     ethr =  1.05E-10,  avg # of iterations =  3.0

     total cpu time spent up to now is      134.9 secs

     total energy              =     -95.09886714 Ry
     Harris-Foulkes estimate   =     -95.09886713 Ry
     estimated scf accuracy    <          1.4E-09 Ry

     iteration #  6     ecut=    40.00 Ry     beta=0.70
     Davidson diagonalization with overlap
     ethr =  1.52E-11,  avg # of iterations =  1.6

     total cpu time spent up to now is      137.8 secs

     End of self-consistent calculation

     Number of k-points >= 100: set verbosity='high' to print the bands.

     the Fermi energy is     3.1571 ev

!    total energy              =     -95.09886714 Ry
     Harris-Foulkes estimate   =     -95.09886714 Ry
     estimated scf accuracy    <          4.2E-11 Ry

     The total energy is the sum of the following terms:

     one-electron contribution =     -80.99326235 Ry
     hartree contribution      =      41.43036497 Ry
     xc contribution           =     -14.31321217 Ry
     ewald contribution        =     -41.22272098 Ry
     smearing contrib. (-TS)   =      -0.00003659 Ry

     convergence has been achieved in   6 iterations

     Forces acting on atoms (cartesian axes, Ry/au):

     atom    1 type  1   force =     0.00000000    0.00000000    0.00000000

     Total force =     0.000000     Total SCF correction =     0.000000


     Computing stress (Cartesian axis) and pressure

          total   stress  (Ry/bohr**3)                   (kbar)     P=   39.58
   0.00026906  -0.00000000   0.00000000         39.58     -0.00      0.00
  -0.00000000   0.00026906   0.00000000         -0.00     39.58      0.00
   0.00000000  -0.00000000   0.00026906          0.00     -0.00     39.58


     Writing output data file na.fcc.save

     init_run     :      2.75s CPU      2.89s WALL (       2 calls)
     electrons    :    117.25s CPU    125.64s WALL (       5 calls)
     update_pot   :      0.51s CPU      0.51s WALL (       3 calls)
     forces       :      1.06s CPU      1.08s WALL (       5 calls)
     stress       :      5.98s CPU      6.01s WALL (       5 calls)

     Called by init_run:
     wfcinit      :      2.05s CPU      2.18s WALL (       2 calls)
     potinit      :      0.08s CPU      0.08s WALL (       2 calls)

     Called by electrons:
     c_bands      :     97.04s CPU    104.18s WALL (      37 calls)
     sum_band     :     19.38s CPU     20.62s WALL (      37 calls)
     v_of_rho     :      0.45s CPU      0.45s WALL (      40 calls)
     newd         :      0.42s CPU      0.43s WALL (      40 calls)
     mix_rho      :      0.03s CPU      0.03s WALL (      37 calls)

     Called by c_bands:
     init_us_2    :      5.99s CPU      5.50s WALL (   66220 calls)
     cegterg      :     91.45s CPU     98.65s WALL (   28490 calls)

     Called by sum_band:
     sum_band:bec :      0.05s CPU      0.10s WALL (   28490 calls)
     addusdens    :      0.51s CPU      0.51s WALL (      37 calls)

     Called by *egterg:
     h_psi        :     73.32s CPU     78.81s WALL (   89316 calls)
     s_psi        :      1.12s CPU      1.07s WALL (   89316 calls)
     g_psi        :      0.53s CPU      0.63s WALL (   59286 calls)
     cdiaghg      :     11.00s CPU     11.56s WALL (   83926 calls)

     Called by h_psi:
     h_psi:pot    :     72.97s CPU     78.37s WALL (   89316 calls)
     h_psi:calbec :      1.71s CPU      1.87s WALL (   89316 calls)
     vloc_psi     :     70.10s CPU     75.10s WALL (   89316 calls)
     add_vuspsi   :      1.01s CPU      1.18s WALL (   89316 calls)

     General routines
     calbec       :      2.57s CPU      2.90s WALL (  137056 calls)
     fft          :      0.24s CPU      0.25s WALL (     671 calls)
     ffts         :      0.01s CPU      0.01s WALL (      77 calls)
     fftw         :     73.61s CPU     76.58s WALL ( 1534392 calls)
     interpolate  :      0.03s CPU      0.03s WALL (      77 calls)
     davcio       :      0.01s CPU      0.01s WALL (    1540 calls)

     Parallel routines
     fft_scatter  :     18.95s CPU     23.20s WALL ( 1535140 calls)

     PWSCF        :  2m11.00s CPU     2m19.80s WALL


   This run was terminated on:  14: 2: 5  20Dec2017            

=------------------------------------------------------------------------------=
   JOB DONE.
=------------------------------------------------------------------------------=
