
     Program PWSCF v.6.1 (svn rev. 13369) starts on 20Dec2017 at 13:54:29 

     This program is part of the open-source Quantum ESPRESSO suite
     for quantum simulation of materials; please cite
         "P. Giannozzi et al., J. Phys.:Condens. Matter 21 395502 (2009);
          URL http://www.quantum-espresso.org", 
     in publications or presentations arising from this work. More details at
     http://www.quantum-espresso.org/quote

     Parallel version (MPI), running on     4 processors
     R & G space division:  proc/nbgrp/npool/nimage =       4
     Waiting for input...
     Reading input from standard input

     Current dimensions of program PWSCF are:
     Max number of different atomic species (ntypx) = 10
     Max number of k-points (npk) =  40000
     Max angular momentum in pseudopotentials (lmaxx) =  3

     Subspace diagonalization in iterative solution of the eigenvalue problem:
     a serial algorithm will be used


     Parallelization info
     --------------------
     sticks:   dense  smooth     PW     G-vecs:    dense   smooth      PW
     Min         232     115     40                 4720     1653     340
     Max         233     116     41                 4721     1655     342
     Sum         931     463    163                18883     6615    1363



     bravais-lattice index     =            2
     lattice parameter (alat)  =       9.1913  a.u.
     unit-cell volume          =     194.1190 (a.u.)^3
     number of atoms/cell      =            1
     number of atomic types    =            1
     number of electrons       =         9.00
     number of Kohn-Sham states=            9
     kinetic-energy cutoff     =      40.0000  Ry
     charge density cutoff     =     320.0000  Ry
     convergence threshold     =      1.0E-08
     mixing beta               =       0.7000
     number of iterations used =            8  plain     mixing
     Exchange-correlation      = SLA  PW   PBE  PBE ( 1  4  3  4 0 0)
     nstep                     =           50


     celldm(1)=   9.191280  celldm(2)=   0.000000  celldm(3)=   0.000000
     celldm(4)=   0.000000  celldm(5)=   0.000000  celldm(6)=   0.000000

     crystal axes: (cart. coord. in units of alat)
               a(1) = (  -0.500000   0.000000   0.500000 )  
               a(2) = (   0.000000   0.500000   0.500000 )  
               a(3) = (  -0.500000   0.500000   0.000000 )  

     reciprocal axes: (cart. coord. in units 2 pi/alat)
               b(1) = ( -1.000000 -1.000000  1.000000 )  
               b(2) = (  1.000000  1.000000  1.000000 )  
               b(3) = ( -1.000000  1.000000 -1.000000 )  


     PseudoPot. # 1 for Na read from file:
     /home/s1333534/quantum_espresso/qe-6.1/pseudo/Na_pbe_v1.uspp.F.UPF
     MD5 check sum: 76a99c7e9422403d3e93cbc85ab7bccb
     Pseudo is Ultrasoft, Zval =  9.0
     Generated by new atomic code, or converted to UPF format
     Using radial grid of  819 points,  5 beta functions with: 
                l(1) =   0
                l(2) =   0
                l(3) =   1
                l(4) =   1
                l(5) =   2
     Q(r) pseudized with  8 coefficients,  rinner =    1.250   1.250   1.250
                                                       1.250   1.250

     atomic species   valence    mass     pseudopotential
        Na             9.00    22.99000     Na( 1.00)

     48 Sym. Ops., with inversion, found



   Cartesian axes

     site n.     atom                  positions (alat units)
         1           Na  tau(   1) = (   0.0000000   0.0000000   0.0000000  )

     number of k points=   770  Marzari-Vanderbilt smearing, width (Ry)=  0.0200

     Number of k-points >= 100: set verbosity='high' to print them.

     Dense  grid:    18883 G-vectors     FFT dimensions: (  40,  40,  40)

     Smooth grid:     6615 G-vectors     FFT dimensions: (  27,  27,  27)

     Estimated max dynamical RAM per process >      25.19MB

     Estimated total allocated dynamical RAM >     100.77MB

     Initial potential from superposition of free atoms

     starting charge    8.99371, renormalised to    9.00000
     Starting wfc are    5 randomized atomic wfcs +    4 random wfc

     total cpu time spent up to now is        2.0 secs

     per-process dynamical memory:    34.3 Mb

     Self-consistent Calculation

     iteration #  1     ecut=    40.00 Ry     beta=0.70
     Davidson diagonalization with overlap
     ethr =  1.00E-02,  avg # of iterations =  5.3

     Threshold (ethr) on eigenvalues was too large:
     Diagonalizing with lowered threshold

     Davidson diagonalization with overlap
     ethr =  1.20E-05,  avg # of iterations =  3.5

     total cpu time spent up to now is       14.8 secs

     total energy              =     -95.10156516 Ry
     Harris-Foulkes estimate   =     -95.10192208 Ry
     estimated scf accuracy    <       0.00108226 Ry

     iteration #  2     ecut=    40.00 Ry     beta=0.70
     Davidson diagonalization with overlap
     ethr =  1.20E-05,  avg # of iterations =  2.0

     total cpu time spent up to now is       19.2 secs

     total energy              =     -95.10169861 Ry
     Harris-Foulkes estimate   =     -95.10172947 Ry
     estimated scf accuracy    <       0.00012061 Ry

     iteration #  3     ecut=    40.00 Ry     beta=0.70
     Davidson diagonalization with overlap
     ethr =  1.34E-06,  avg # of iterations =  2.1

     total cpu time spent up to now is       23.9 secs

     total energy              =     -95.10171316 Ry
     Harris-Foulkes estimate   =     -95.10171440 Ry
     estimated scf accuracy    <       0.00000712 Ry

     iteration #  4     ecut=    40.00 Ry     beta=0.70
     Davidson diagonalization with overlap
     ethr =  7.91E-08,  avg # of iterations =  1.0

     total cpu time spent up to now is       27.9 secs

     End of self-consistent calculation

     Number of k-points >= 100: set verbosity='high' to print the bands.

     the Fermi energy is     2.8172 ev

!    total energy              =     -95.10171381 Ry
     Harris-Foulkes estimate   =     -95.10171376 Ry
     estimated scf accuracy    <          9.7E-09 Ry

     The total energy is the sum of the following terms:

     one-electron contribution =     -82.41572417 Ry
     hartree contribution      =      42.02293431 Ry
     xc contribution           =     -14.30386802 Ry
     ewald contribution        =     -40.40501772 Ry
     smearing contrib. (-TS)   =      -0.00003822 Ry

     convergence has been achieved in   4 iterations

     Forces acting on atoms (cartesian axes, Ry/au):

     atom    1 type  1   force =     0.00000000    0.00000000    0.00000000

     Total force =     0.000000     Total SCF correction =     0.000000


     Computing stress (Cartesian axis) and pressure

          total   stress  (Ry/bohr**3)                   (kbar)     P=   27.62
   0.00018775  -0.00000000  -0.00000000         27.62     -0.00     -0.00
  -0.00000000   0.00018775   0.00000000         -0.00     27.62      0.00
  -0.00000000   0.00000000   0.00018775         -0.00      0.00     27.62


     BFGS Geometry Optimization

     number of scf cycles    =   1
     number of bfgs steps    =   0

     enthalpy new            =     -95.0621259881 Ry

     new trust radius        =       0.0011278992 bohr
     new conv_thr            =       0.0000000100 Ry

     new unit-cell volume =    193.88335 a.u.^3 (    28.73055 Ang^3 )
     density =      1.32875 g/cm^3

CELL_PARAMETERS (alat=  9.19127992)
  -0.499797616   0.000000000   0.499797616
  -0.000000000   0.499797616   0.499797616
  -0.499797616   0.499797616   0.000000000

ATOMIC_POSITIONS (crystal)
Na       0.000000000   0.000000000   0.000000000



     Writing output data file na.fcc.save
     NEW-OLD atomic charge density approx. for the potential
     extrapolated charge    8.98907, renormalised to    9.00000

     total cpu time spent up to now is       30.3 secs

     per-process dynamical memory:    43.1 Mb

     Self-consistent Calculation

     iteration #  1     ecut=    40.00 Ry     beta=0.70
     Davidson diagonalization with overlap
     ethr =  1.00E-06,  avg # of iterations =  2.0

     total cpu time spent up to now is       35.9 secs

     total energy              =     -95.10159227 Ry
     Harris-Foulkes estimate   =     -95.18112618 Ry
     estimated scf accuracy    <       0.00004323 Ry

     iteration #  2     ecut=    40.00 Ry     beta=0.70
     Davidson diagonalization with overlap
     ethr =  4.80E-07,  avg # of iterations =  2.9

     total cpu time spent up to now is       41.2 secs

     total energy              =     -95.10167058 Ry
     Harris-Foulkes estimate   =     -95.10170229 Ry
     estimated scf accuracy    <       0.00007219 Ry

     iteration #  3     ecut=    40.00 Ry     beta=0.70
     Davidson diagonalization with overlap
     ethr =  4.80E-07,  avg # of iterations =  1.5

     total cpu time spent up to now is       45.3 secs

     total energy              =     -95.10167100 Ry
     Harris-Foulkes estimate   =     -95.10167533 Ry
     estimated scf accuracy    <       0.00001404 Ry

     iteration #  4     ecut=    40.00 Ry     beta=0.70
     Davidson diagonalization with overlap
     ethr =  1.56E-07,  avg # of iterations =  1.0

     total cpu time spent up to now is       49.2 secs

     total energy              =     -95.10167021 Ry
     Harris-Foulkes estimate   =     -95.10167160 Ry
     estimated scf accuracy    <       0.00000514 Ry

     iteration #  5     ecut=    40.00 Ry     beta=0.70
     Davidson diagonalization with overlap
     ethr =  5.72E-08,  avg # of iterations =  1.0

     total cpu time spent up to now is       53.2 secs

     total energy              =     -95.10166980 Ry
     Harris-Foulkes estimate   =     -95.10167033 Ry
     estimated scf accuracy    <       0.00000240 Ry

     iteration #  6     ecut=    40.00 Ry     beta=0.70
     Davidson diagonalization with overlap
     ethr =  2.67E-08,  avg # of iterations =  1.0

     total cpu time spent up to now is       57.2 secs

     total energy              =     -95.10166918 Ry
     Harris-Foulkes estimate   =     -95.10166983 Ry
     estimated scf accuracy    <       0.00000133 Ry

     iteration #  7     ecut=    40.00 Ry     beta=0.70
     Davidson diagonalization with overlap
     ethr =  1.48E-08,  avg # of iterations =  1.0

     total cpu time spent up to now is       61.1 secs

     total energy              =     -95.10166919 Ry
     Harris-Foulkes estimate   =     -95.10166929 Ry
     estimated scf accuracy    <       0.00000018 Ry

     iteration #  8     ecut=    40.00 Ry     beta=0.70
     Davidson diagonalization with overlap
     ethr =  2.03E-09,  avg # of iterations =  2.0

     total cpu time spent up to now is       65.7 secs

     End of self-consistent calculation

     Number of k-points >= 100: set verbosity='high' to print the bands.

     the Fermi energy is     2.8236 ev

!    total energy              =     -95.10166921 Ry
     Harris-Foulkes estimate   =     -95.10166922 Ry
     estimated scf accuracy    <          5.5E-09 Ry

     The total energy is the sum of the following terms:

     one-electron contribution =     -82.38708792 Ry
     hartree contribution      =      42.01085334 Ry
     xc contribution           =     -14.30401745 Ry
     ewald contribution        =     -40.42137900 Ry
     smearing contrib. (-TS)   =      -0.00003819 Ry

     convergence has been achieved in   8 iterations

     Forces acting on atoms (cartesian axes, Ry/au):

     atom    1 type  1   force =     0.00000000    0.00000000    0.00000000

     Total force =     0.000000     Total SCF correction =     0.000000


     Computing stress (Cartesian axis) and pressure

          total   stress  (Ry/bohr**3)                   (kbar)     P=   27.23
   0.00018508  -0.00000000  -0.00000000         27.23     -0.00     -0.00
  -0.00000000   0.00018508   0.00000000         -0.00     27.23      0.00
  -0.00000000   0.00000000   0.00018508         -0.00      0.00     27.23


     number of scf cycles    =   2
     number of bfgs steps    =   1

     enthalpy old            =     -95.0621259881 Ry
     enthalpy new            =     -95.0621294398 Ry

     CASE: enthalpy_new < enthalpy_old


     WARNING: bfgs curvature condition failed, Theta= 0.688
     uphill step: resetting bfgs history

     new trust radius        =       0.0013124208 bohr
     new conv_thr            =            1.0E-10 Ry

     new unit-cell volume =    193.60936 a.u.^3 (    28.68995 Ang^3 )
     density =      1.33063 g/cm^3

CELL_PARAMETERS (alat=  9.19127992)
  -0.499562075   0.000000000   0.499562075
  -0.000000000   0.499562075   0.499562075
  -0.499562075   0.499562075   0.000000000

ATOMIC_POSITIONS (crystal)
Na       0.000000000   0.000000000   0.000000000



     Writing output data file na.fcc.save
     NEW-OLD atomic charge density approx. for the potential
     extrapolated charge    8.98727, renormalised to    9.00000

     total cpu time spent up to now is       68.2 secs

     per-process dynamical memory:    43.1 Mb

     Self-consistent Calculation

     iteration #  1     ecut=    40.00 Ry     beta=0.70
     Davidson diagonalization with overlap
     ethr =  1.00E-06,  avg # of iterations =  2.0

     total cpu time spent up to now is       73.7 secs

     total energy              =     -95.10151207 Ry
     Harris-Foulkes estimate   =     -95.19409898 Ry
     estimated scf accuracy    <       0.00005926 Ry

     iteration #  2     ecut=    40.00 Ry     beta=0.70
     Davidson diagonalization with overlap
     ethr =  6.58E-07,  avg # of iterations =  2.9

     total cpu time spent up to now is       79.1 secs

     total energy              =     -95.10161859 Ry
     Harris-Foulkes estimate   =     -95.10166176 Ry
     estimated scf accuracy    <       0.00009807 Ry

     iteration #  3     ecut=    40.00 Ry     beta=0.70
     Davidson diagonalization with overlap
     ethr =  6.58E-07,  avg # of iterations =  1.5

     total cpu time spent up to now is       83.2 secs

     total energy              =     -95.10162003 Ry
     Harris-Foulkes estimate   =     -95.10162507 Ry
     estimated scf accuracy    <       0.00001895 Ry

     iteration #  4     ecut=    40.00 Ry     beta=0.70
     Davidson diagonalization with overlap
     ethr =  2.11E-07,  avg # of iterations =  1.0

     total cpu time spent up to now is       87.2 secs

     total energy              =     -95.10161824 Ry
     Harris-Foulkes estimate   =     -95.10162068 Ry
     estimated scf accuracy    <       0.00000828 Ry

     iteration #  5     ecut=    40.00 Ry     beta=0.70
     Davidson diagonalization with overlap
     ethr =  9.20E-08,  avg # of iterations =  1.0

     total cpu time spent up to now is       91.2 secs

     total energy              =     -95.10161731 Ry
     Harris-Foulkes estimate   =     -95.10161845 Ry
     estimated scf accuracy    <       0.00000352 Ry

     iteration #  6     ecut=    40.00 Ry     beta=0.70
     Davidson diagonalization with overlap
     ethr =  3.91E-08,  avg # of iterations =  1.0

     total cpu time spent up to now is       95.2 secs

     total energy              =     -95.10161666 Ry
     Harris-Foulkes estimate   =     -95.10161743 Ry
     estimated scf accuracy    <       0.00000130 Ry

     iteration #  7     ecut=    40.00 Ry     beta=0.70
     Davidson diagonalization with overlap
     ethr =  1.45E-08,  avg # of iterations =  2.0

     total cpu time spent up to now is       99.8 secs

     total energy              =     -95.10161682 Ry
     Harris-Foulkes estimate   =     -95.10161685 Ry
     estimated scf accuracy    <       0.00000004 Ry

     iteration #  8     ecut=    40.00 Ry     beta=0.70
     Davidson diagonalization with overlap
     ethr =  4.93E-10,  avg # of iterations =  2.0

     total cpu time spent up to now is      104.3 secs

     total energy              =     -95.10161683 Ry
     Harris-Foulkes estimate   =     -95.10161683 Ry
     estimated scf accuracy    <          1.3E-09 Ry

     iteration #  9     ecut=    40.00 Ry     beta=0.70
     Davidson diagonalization with overlap
     ethr =  1.40E-11,  avg # of iterations =  1.1

     total cpu time spent up to now is      108.5 secs

     total energy              =     -95.10161683 Ry
     Harris-Foulkes estimate   =     -95.10161683 Ry
     estimated scf accuracy    <          2.3E-09 Ry

     iteration # 10     ecut=    40.00 Ry     beta=0.70
     Davidson diagonalization with overlap
     ethr =  1.40E-11,  avg # of iterations =  2.0

     total cpu time spent up to now is      113.3 secs

     End of self-consistent calculation

     Number of k-points >= 100: set verbosity='high' to print the bands.

     the Fermi energy is     2.8314 ev

!    total energy              =     -95.10161683 Ry
     Harris-Foulkes estimate   =     -95.10161683 Ry
     estimated scf accuracy    <          5.1E-11 Ry

     The total energy is the sum of the following terms:

     one-electron contribution =     -82.35419682 Ry
     hartree contribution      =      41.99735569 Ry
     xc contribution           =     -14.30430005 Ry
     ewald contribution        =     -40.44043750 Ry
     smearing contrib. (-TS)   =      -0.00003815 Ry

     convergence has been achieved in  10 iterations

     Forces acting on atoms (cartesian axes, Ry/au):

     atom    1 type  1   force =     0.00000000    0.00000000    0.00000000

     Total force =     0.000000     Total SCF correction =     0.000000


     Computing stress (Cartesian axis) and pressure

          total   stress  (Ry/bohr**3)                   (kbar)     P=   28.20
   0.00019170  -0.00000000  -0.00000000         28.20     -0.00     -0.00
  -0.00000000   0.00019170  -0.00000000         -0.00     28.20     -0.00
  -0.00000000  -0.00000000   0.00019170         -0.00     -0.00     28.20


     number of scf cycles    =   3
     number of bfgs steps    =   2

     enthalpy old            =     -95.0621294398 Ry
     enthalpy new            =     -95.0621329327 Ry

     CASE: enthalpy_new < enthalpy_old

     new trust radius        =       0.0019681672 bohr
     new conv_thr            =            1.0E-10 Ry

     new unit-cell volume =    193.19887 a.u.^3 (    28.62912 Ang^3 )
     density =      1.33346 g/cm^3

CELL_PARAMETERS (alat=  9.19127992)
  -0.499208763   0.000000000   0.499208763
  -0.000000000   0.499208763   0.499208763
  -0.499208763   0.499208763   0.000000000

ATOMIC_POSITIONS (crystal)
Na       0.000000000   0.000000000   0.000000000



     Writing output data file na.fcc.save
     NEW-OLD atomic charge density approx. for the potential
     extrapolated charge    8.98089, renormalised to    9.00000

     total cpu time spent up to now is      115.7 secs

     per-process dynamical memory:    43.1 Mb

     Self-consistent Calculation

     iteration #  1     ecut=    40.00 Ry     beta=0.70
     Davidson diagonalization with overlap
     ethr =  1.00E-06,  avg # of iterations =  2.0

     total cpu time spent up to now is      121.2 secs

     total energy              =     -95.10130337 Ry
     Harris-Foulkes estimate   =     -95.24028745 Ry
     estimated scf accuracy    <       0.00013122 Ry

     iteration #  2     ecut=    40.00 Ry     beta=0.70
     Davidson diagonalization with overlap
     ethr =  1.46E-06,  avg # of iterations =  2.9

     total cpu time spent up to now is      127.1 secs

     total energy              =     -95.10154151 Ry
     Harris-Foulkes estimate   =     -95.10163797 Ry
     estimated scf accuracy    <       0.00021974 Ry

     iteration #  3     ecut=    40.00 Ry     beta=0.70
     Davidson diagonalization with overlap
     ethr =  1.46E-06,  avg # of iterations =  1.6

     total cpu time spent up to now is      131.3 secs

     total energy              =     -95.10154344 Ry
     Harris-Foulkes estimate   =     -95.10155605 Ry
     estimated scf accuracy    <       0.00004245 Ry

     iteration #  4     ecut=    40.00 Ry     beta=0.70
     Davidson diagonalization with overlap
     ethr =  4.72E-07,  avg # of iterations =  1.0

     total cpu time spent up to now is      135.2 secs

     total energy              =     -95.10154002 Ry
     Harris-Foulkes estimate   =     -95.10154501 Ry
     estimated scf accuracy    <       0.00001659 Ry

     iteration #  5     ecut=    40.00 Ry     beta=0.70
     Davidson diagonalization with overlap
     ethr =  1.84E-07,  avg # of iterations =  1.0

     total cpu time spent up to now is      139.2 secs

     total energy              =     -95.10153858 Ry
     Harris-Foulkes estimate   =     -95.10154050 Ry
     estimated scf accuracy    <       0.00000680 Ry

     iteration #  6     ecut=    40.00 Ry     beta=0.70
     Davidson diagonalization with overlap
     ethr =  7.55E-08,  avg # of iterations =  1.0

     total cpu time spent up to now is      143.1 secs

     total energy              =     -95.10153723 Ry
     Harris-Foulkes estimate   =     -95.10153875 Ry
     estimated scf accuracy    <       0.00000302 Ry

     iteration #  7     ecut=    40.00 Ry     beta=0.70
     Davidson diagonalization with overlap
     ethr =  3.35E-08,  avg # of iterations =  1.0

     total cpu time spent up to now is      147.1 secs

     total energy              =     -95.10153727 Ry
     Harris-Foulkes estimate   =     -95.10153750 Ry
     estimated scf accuracy    <       0.00000035 Ry

     iteration #  8     ecut=    40.00 Ry     beta=0.70
     Davidson diagonalization with overlap
     ethr =  3.91E-09,  avg # of iterations =  2.0

     total cpu time spent up to now is      151.9 secs

     total energy              =     -95.10153735 Ry
     Harris-Foulkes estimate   =     -95.10153735 Ry
     estimated scf accuracy    <          2.7E-10 Ry

     iteration #  9     ecut=    40.00 Ry     beta=0.70
     Davidson diagonalization with overlap
     ethr =  2.97E-12,  avg # of iterations =  3.0

     total cpu time spent up to now is      157.5 secs

     total energy              =     -95.10153735 Ry
     Harris-Foulkes estimate   =     -95.10153735 Ry
     estimated scf accuracy    <          8.8E-10 Ry

     iteration # 10     ecut=    40.00 Ry     beta=0.70
     Davidson diagonalization with overlap
     ethr =  2.97E-12,  avg # of iterations =  2.0

     total cpu time spent up to now is      162.4 secs

     End of self-consistent calculation

     Number of k-points >= 100: set verbosity='high' to print the bands.

     the Fermi energy is     2.8431 ev

!    total energy              =     -95.10153735 Ry
     Harris-Foulkes estimate   =     -95.10153735 Ry
     estimated scf accuracy    <          1.2E-11 Ry

     The total energy is the sum of the following terms:

     one-electron contribution =     -82.30438377 Ry
     hartree contribution      =      41.97657279 Ry
     xc contribution           =     -14.30462931 Ry
     ewald contribution        =     -40.46905897 Ry
     smearing contrib. (-TS)   =      -0.00003809 Ry

     convergence has been achieved in  10 iterations

     Forces acting on atoms (cartesian axes, Ry/au):

     atom    1 type  1   force =     0.00000000    0.00000000    0.00000000

     Total force =     0.000000     Total SCF correction =     0.000000


     Computing stress (Cartesian axis) and pressure

          total   stress  (Ry/bohr**3)                   (kbar)     P=   28.66
   0.00019484   0.00000000   0.00000000         28.66      0.00      0.00
   0.00000000   0.00019484  -0.00000000          0.00     28.66     -0.00
   0.00000000  -0.00000000   0.00019484          0.00     -0.00     28.66


     number of scf cycles    =   4
     number of bfgs steps    =   3

     enthalpy old            =     -95.0621329327 Ry
     enthalpy new            =     -95.0621371692 Ry

     CASE: enthalpy_new < enthalpy_old

     new trust radius        =       0.0029512066 bohr
     new conv_thr            =            1.0E-10 Ry

     new unit-cell volume =    192.58421 a.u.^3 (    28.53804 Ang^3 )
     density =      1.33772 g/cm^3

CELL_PARAMETERS (alat=  9.19127992)
  -0.498678795   0.000000000   0.498678795
  -0.000000000   0.498678795   0.498678795
  -0.498678795   0.498678795  -0.000000000

ATOMIC_POSITIONS (crystal)
Na       0.000000000   0.000000000   0.000000000



     Writing output data file na.fcc.save
     NEW-OLD atomic charge density approx. for the potential
     extrapolated charge    8.97130, renormalised to    9.00000

     total cpu time spent up to now is      164.8 secs

     per-process dynamical memory:    43.1 Mb

     Self-consistent Calculation

     iteration #  1     ecut=    40.00 Ry     beta=0.70
     Davidson diagonalization with overlap
     ethr =  1.00E-06,  avg # of iterations =  2.1

     total cpu time spent up to now is      170.5 secs

     total energy              =     -95.10089035 Ry
     Harris-Foulkes estimate   =     -95.30960125 Ry
     estimated scf accuracy    <       0.00029482 Ry

     iteration #  2     ecut=    40.00 Ry     beta=0.70
     Davidson diagonalization with overlap
     ethr =  3.28E-06,  avg # of iterations =  3.0

     total cpu time spent up to now is      176.6 secs

     total energy              =     -95.10142528 Ry
     Harris-Foulkes estimate   =     -95.10164206 Ry
     estimated scf accuracy    <       0.00049386 Ry

     iteration #  3     ecut=    40.00 Ry     beta=0.70
     Davidson diagonalization with overlap
     ethr =  3.28E-06,  avg # of iterations =  1.6

     total cpu time spent up to now is      180.8 secs

     total energy              =     -95.10142925 Ry
     Harris-Foulkes estimate   =     -95.10145806 Ry
     estimated scf accuracy    <       0.00009508 Ry

     iteration #  4     ecut=    40.00 Ry     beta=0.70
     Davidson diagonalization with overlap
     ethr =  1.06E-06,  avg # of iterations =  1.0

     total cpu time spent up to now is      184.7 secs

     total energy              =     -95.10142175 Ry
     Harris-Foulkes estimate   =     -95.10143280 Ry
     estimated scf accuracy    <       0.00003631 Ry

     iteration #  5     ecut=    40.00 Ry     beta=0.70
     Davidson diagonalization with overlap
     ethr =  4.03E-07,  avg # of iterations =  1.0

     total cpu time spent up to now is      188.7 secs

     total energy              =     -95.10141898 Ry
     Harris-Foulkes estimate   =     -95.10142285 Ry
     estimated scf accuracy    <       0.00001457 Ry

     iteration #  6     ecut=    40.00 Ry     beta=0.70
     Davidson diagonalization with overlap
     ethr =  1.62E-07,  avg # of iterations =  1.0

     total cpu time spent up to now is      192.7 secs

     total energy              =     -95.10141615 Ry
     Harris-Foulkes estimate   =     -95.10141929 Ry
     estimated scf accuracy    <       0.00000690 Ry

     iteration #  7     ecut=    40.00 Ry     beta=0.70
     Davidson diagonalization with overlap
     ethr =  7.67E-08,  avg # of iterations =  1.0

     total cpu time spent up to now is      196.6 secs

     total energy              =     -95.10141582 Ry
     Harris-Foulkes estimate   =     -95.10141663 Ry
     estimated scf accuracy    <       0.00000122 Ry

     iteration #  8     ecut=    40.00 Ry     beta=0.70
     Davidson diagonalization with overlap
     ethr =  1.35E-08,  avg # of iterations =  2.0

     total cpu time spent up to now is      201.4 secs

     total energy              =     -95.10141610 Ry
     Harris-Foulkes estimate   =     -95.10141610 Ry
     estimated scf accuracy    <          1.8E-10 Ry

     iteration #  9     ecut=    40.00 Ry     beta=0.70
     Davidson diagonalization with overlap
     ethr =  2.02E-12,  avg # of iterations =  3.0

     total cpu time spent up to now is      207.1 secs

     total energy              =     -95.10141610 Ry
     Harris-Foulkes estimate   =     -95.10141610 Ry
     estimated scf accuracy    <          1.7E-09 Ry

     iteration # 10     ecut=    40.00 Ry     beta=0.70
     Davidson diagonalization with overlap
     ethr =  2.02E-12,  avg # of iterations =  3.0

     total cpu time spent up to now is      212.6 secs

     End of self-consistent calculation

     Number of k-points >= 100: set verbosity='high' to print the bands.

     the Fermi energy is     2.8606 ev

!    total energy              =     -95.10141610 Ry
     Harris-Foulkes estimate   =     -95.10141610 Ry
     estimated scf accuracy    <          9.3E-11 Ry

     The total energy is the sum of the following terms:

     one-electron contribution =     -82.22948899 Ry
     hartree contribution      =      41.94529129 Ry
     xc contribution           =     -14.30511319 Ry
     ewald contribution        =     -40.51206722 Ry
     smearing contrib. (-TS)   =      -0.00003800 Ry

     convergence has been achieved in  10 iterations

     Forces acting on atoms (cartesian axes, Ry/au):

     atom    1 type  1   force =     0.00000000    0.00000000    0.00000000

     Total force =     0.000000     Total SCF correction =     0.000000


     Computing stress (Cartesian axis) and pressure

          total   stress  (Ry/bohr**3)                   (kbar)     P=   29.24
   0.00019878  -0.00000000  -0.00000000         29.24     -0.00     -0.00
  -0.00000000   0.00019878   0.00000000         -0.00     29.24      0.00
  -0.00000000   0.00000000   0.00019878         -0.00      0.00     29.24


     number of scf cycles    =   5
     number of bfgs steps    =   4

     enthalpy old            =     -95.0621371692 Ry
     enthalpy new            =     -95.0621412641 Ry

     CASE: enthalpy_new < enthalpy_old

     new trust radius        =       0.0038368109 bohr
     new conv_thr            =            1.0E-10 Ry

     new unit-cell volume =    191.78664 a.u.^3 (    28.41985 Ang^3 )
     density =      1.34328 g/cm^3

CELL_PARAMETERS (alat=  9.19127992)
  -0.497989427   0.000000000   0.497989427
  -0.000000000   0.497989427   0.497989427
  -0.497989427   0.497989427  -0.000000000

ATOMIC_POSITIONS (crystal)
Na       0.000000000   0.000000000   0.000000000



     Writing output data file na.fcc.save
     NEW-OLD atomic charge density approx. for the potential
     extrapolated charge    8.96260, renormalised to    9.00000

     total cpu time spent up to now is      215.1 secs

     per-process dynamical memory:    43.1 Mb

     Self-consistent Calculation

     iteration #  1     ecut=    40.00 Ry     beta=0.70
     Davidson diagonalization with overlap
     ethr =  1.00E-06,  avg # of iterations =  2.2

     total cpu time spent up to now is      220.7 secs

     total energy              =     -95.10036515 Ry
     Harris-Foulkes estimate   =     -95.37213632 Ry
     estimated scf accuracy    <       0.00049908 Ry

     iteration #  2     ecut=    40.00 Ry     beta=0.70
     Davidson diagonalization with overlap
     ethr =  5.55E-06,  avg # of iterations =  3.0

     total cpu time spent up to now is      226.8 secs

     total energy              =     -95.10126990 Ry
     Harris-Foulkes estimate   =     -95.10163674 Ry
     estimated scf accuracy    <       0.00083562 Ry

     iteration #  3     ecut=    40.00 Ry     beta=0.70
     Davidson diagonalization with overlap
     ethr =  5.55E-06,  avg # of iterations =  1.6

     total cpu time spent up to now is      231.0 secs

     total energy              =     -95.10127692 Ry
     Harris-Foulkes estimate   =     -95.10132550 Ry
     estimated scf accuracy    <       0.00016047 Ry

     iteration #  4     ecut=    40.00 Ry     beta=0.70
     Davidson diagonalization with overlap
     ethr =  1.78E-06,  avg # of iterations =  1.0

     total cpu time spent up to now is      235.0 secs

     total energy              =     -95.10126420 Ry
     Harris-Foulkes estimate   =     -95.10128290 Ry
     estimated scf accuracy    <       0.00006136 Ry

     iteration #  5     ecut=    40.00 Ry     beta=0.70
     Davidson diagonalization with overlap
     ethr =  6.82E-07,  avg # of iterations =  1.0

     total cpu time spent up to now is      238.9 secs

     total energy              =     -95.10125965 Ry
     Harris-Foulkes estimate   =     -95.10126608 Ry
     estimated scf accuracy    <       0.00002458 Ry

     iteration #  6     ecut=    40.00 Ry     beta=0.70
     Davidson diagonalization with overlap
     ethr =  2.73E-07,  avg # of iterations =  1.0

     total cpu time spent up to now is      242.9 secs

     total energy              =     -95.10125484 Ry
     Harris-Foulkes estimate   =     -95.10126016 Ry
     estimated scf accuracy    <       0.00001181 Ry

     iteration #  7     ecut=    40.00 Ry     beta=0.70
     Davidson diagonalization with overlap
     ethr =  1.31E-07,  avg # of iterations =  1.0

     total cpu time spent up to now is      246.9 secs

     total energy              =     -95.10125419 Ry
     Harris-Foulkes estimate   =     -95.10125563 Ry
     estimated scf accuracy    <       0.00000217 Ry

     iteration #  8     ecut=    40.00 Ry     beta=0.70
     Davidson diagonalization with overlap
     ethr =  2.41E-08,  avg # of iterations =  2.0

     total cpu time spent up to now is      251.6 secs

     total energy              =     -95.10125468 Ry
     Harris-Foulkes estimate   =     -95.10125468 Ry
     estimated scf accuracy    <          3.7E-10 Ry

     iteration #  9     ecut=    40.00 Ry     beta=0.70
     Davidson diagonalization with overlap
     ethr =  4.10E-12,  avg # of iterations =  3.0

     total cpu time spent up to now is      257.3 secs

     total energy              =     -95.10125468 Ry
     Harris-Foulkes estimate   =     -95.10125468 Ry
     estimated scf accuracy    <          2.5E-09 Ry

     iteration # 10     ecut=    40.00 Ry     beta=0.70
     Davidson diagonalization with overlap
     ethr =  4.10E-12,  avg # of iterations =  2.9

     total cpu time spent up to now is      262.7 secs

     total energy              =     -95.10125468 Ry
     Harris-Foulkes estimate   =     -95.10125468 Ry
     estimated scf accuracy    <          1.2E-10 Ry

     iteration # 11     ecut=    40.00 Ry     beta=0.70
     Davidson diagonalization with overlap
     ethr =  1.32E-12,  avg # of iterations =  1.0

     total cpu time spent up to now is      266.7 secs

     total energy              =     -95.10125468 Ry
     Harris-Foulkes estimate   =     -95.10125468 Ry
     estimated scf accuracy    <          1.3E-10 Ry

     iteration # 12     ecut=    40.00 Ry     beta=0.70
     Davidson diagonalization with overlap
     ethr =  1.32E-12,  avg # of iterations =  1.0

     total cpu time spent up to now is      270.6 secs

     End of self-consistent calculation

     Number of k-points >= 100: set verbosity='high' to print the bands.

     the Fermi energy is     2.8836 ev

!    total energy              =     -95.10125468 Ry
     Harris-Foulkes estimate   =     -95.10125468 Ry
     estimated scf accuracy    <          2.0E-11 Ry

     The total energy is the sum of the following terms:

     one-electron contribution =     -82.13189965 Ry
     hartree contribution      =      41.90458901 Ry
     xc contribution           =     -14.30575801 Ry
     ewald contribution        =     -40.56814815 Ry
     smearing contrib. (-TS)   =      -0.00003788 Ry

     convergence has been achieved in  12 iterations

     Forces acting on atoms (cartesian axes, Ry/au):

     atom    1 type  1   force =     0.00000000    0.00000000    0.00000000

     Total force =     0.000000     Total SCF correction =     0.000000


     Computing stress (Cartesian axis) and pressure

          total   stress  (Ry/bohr**3)                   (kbar)     P=   30.16
   0.00020499  -0.00000000  -0.00000000         30.16     -0.00     -0.00
  -0.00000000   0.00020499  -0.00000000         -0.00     30.16     -0.00
  -0.00000000   0.00000000   0.00020499         -0.00      0.00     30.16


     bfgs converged in   6 scf cycles and   5 bfgs steps
     (criteria: energy <  1.0E-04 Ry, force <  1.0E-03Ry/Bohr, cell <  5.0E-01kbar)

     End of BFGS Geometry Optimization

     Final enthalpy =     -95.0621425054 Ry
Begin final coordinates
     new unit-cell volume =    191.78664 a.u.^3 (    28.41985 Ang^3 )
     density =      1.34328 g/cm^3

CELL_PARAMETERS (alat=  9.19127992)
  -0.497989427   0.000000000   0.497989427
  -0.000000000   0.497989427   0.497989427
  -0.497989427   0.497989427  -0.000000000

ATOMIC_POSITIONS (crystal)
Na       0.000000000   0.000000000   0.000000000
End final coordinates



     A final scf calculation at the relaxed structure.
     The G-vectors are recalculated for the final unit cell
     Results may differ from those at the preceding step.

     Parallelization info
     --------------------
     sticks:   dense  smooth     PW     G-vecs:    dense   smooth      PW
     Min         231     115     40                 4624     1641     340
     Max         232     117     41                 4626     1642     342
     Sum         925     463    163                18499     6567    1363



     bravais-lattice index     =            2
     lattice parameter (alat)  =       9.1913  a.u.
     unit-cell volume          =     191.7866 (a.u.)^3
     number of atoms/cell      =            1
     number of atomic types    =            1
     number of electrons       =         9.00
     number of Kohn-Sham states=            9
     kinetic-energy cutoff     =      40.0000  Ry
     charge density cutoff     =     320.0000  Ry
     convergence threshold     =      1.0E-10
     mixing beta               =       0.7000
     number of iterations used =            8  plain     mixing
     Exchange-correlation      = SLA  PW   PBE  PBE ( 1  4  3  4 0 0)

     celldm(1)=   9.191280  celldm(2)=   0.000000  celldm(3)=   0.000000
     celldm(4)=   0.000000  celldm(5)=   0.000000  celldm(6)=   0.000000

     crystal axes: (cart. coord. in units of alat)
               a(1) = (  -0.497989   0.000000   0.497989 )  
               a(2) = (  -0.000000   0.497989   0.497989 )  
               a(3) = (  -0.497989   0.497989  -0.000000 )  

     reciprocal axes: (cart. coord. in units 2 pi/alat)
               b(1) = ( -1.004037 -1.004037  1.004037 )  
               b(2) = (  1.004037  1.004037  1.004037 )  
               b(3) = ( -1.004037  1.004037 -1.004037 )  


     PseudoPot. # 1 for Na read from file:
     /home/s1333534/quantum_espresso/qe-6.1/pseudo/Na_pbe_v1.uspp.F.UPF
     MD5 check sum: 76a99c7e9422403d3e93cbc85ab7bccb
     Pseudo is Ultrasoft, Zval =  9.0
     Generated by new atomic code, or converted to UPF format
     Using radial grid of  819 points,  5 beta functions with: 
                l(1) =   0
                l(2) =   0
                l(3) =   1
                l(4) =   1
                l(5) =   2
     Q(r) pseudized with  8 coefficients,  rinner =    1.250   1.250   1.250
                                                       1.250   1.250

     atomic species   valence    mass     pseudopotential
        Na             9.00    22.99000     Na( 1.00)

     48 Sym. Ops., with inversion, found



   Cartesian axes

     site n.     atom                  positions (alat units)
         1           Na  tau(   1) = (  -0.0000000   0.0000000   0.0000000  )

     number of k points=   770  Marzari-Vanderbilt smearing, width (Ry)=  0.0200

     Number of k-points >= 100: set verbosity='high' to print them.

     Dense  grid:    18499 G-vectors     FFT dimensions: (  40,  40,  40)

     Smooth grid:     6567 G-vectors     FFT dimensions: (  27,  27,  27)

     Estimated max dynamical RAM per process >      24.83MB

     Estimated total allocated dynamical RAM >      99.33MB

     Initial potential from superposition of free atoms

     starting charge    8.99371, renormalised to    9.00000
     Starting wfc are    5 randomized atomic wfcs +    4 random wfc

     Writing output data file na.fcc.save

     total cpu time spent up to now is      274.8 secs

     per-process dynamical memory:    41.7 Mb

     Self-consistent Calculation

     iteration #  1     ecut=    40.00 Ry     beta=0.70
     Davidson diagonalization with overlap
     c_bands:  1 eigenvalues not converged
     c_bands:  1 eigenvalues not converged
     c_bands:  1 eigenvalues not converged
     c_bands:  1 eigenvalues not converged
     c_bands:  1 eigenvalues not converged
     c_bands:  1 eigenvalues not converged
     ethr =  1.00E-06,  avg # of iterations = 10.7

     total cpu time spent up to now is      287.7 secs

     total energy              =     -95.10104430 Ry
     Harris-Foulkes estimate   =     -95.10142202 Ry
     estimated scf accuracy    <       0.00110427 Ry

     iteration #  2     ecut=    40.00 Ry     beta=0.70
     Davidson diagonalization with overlap
     ethr =  1.23E-05,  avg # of iterations =  2.0

     total cpu time spent up to now is      292.3 secs

     total energy              =     -95.10118509 Ry
     Harris-Foulkes estimate   =     -95.10121884 Ry
     estimated scf accuracy    <       0.00012608 Ry

     iteration #  3     ecut=    40.00 Ry     beta=0.70
     Davidson diagonalization with overlap
     ethr =  1.40E-06,  avg # of iterations =  2.0

     total cpu time spent up to now is      296.9 secs

     total energy              =     -95.10119949 Ry
     Harris-Foulkes estimate   =     -95.10120095 Ry
     estimated scf accuracy    <       0.00000758 Ry

     iteration #  4     ecut=    40.00 Ry     beta=0.70
     Davidson diagonalization with overlap
     ethr =  8.42E-08,  avg # of iterations =  1.0

     total cpu time spent up to now is      300.9 secs

     total energy              =     -95.10120016 Ry
     Harris-Foulkes estimate   =     -95.10120011 Ry
     estimated scf accuracy    <          8.7E-09 Ry

     iteration #  5     ecut=    40.00 Ry     beta=0.70
     Davidson diagonalization with overlap
     ethr =  9.65E-11,  avg # of iterations =  3.0

     total cpu time spent up to now is      306.3 secs

     total energy              =     -95.10120020 Ry
     Harris-Foulkes estimate   =     -95.10120019 Ry
     estimated scf accuracy    <          1.4E-09 Ry

     iteration #  6     ecut=    40.00 Ry     beta=0.70
     Davidson diagonalization with overlap
     ethr =  1.53E-11,  avg # of iterations =  1.6

     total cpu time spent up to now is      310.5 secs

     End of self-consistent calculation

     Number of k-points >= 100: set verbosity='high' to print the bands.

     the Fermi energy is     2.8835 ev

!    total energy              =     -95.10120020 Ry
     Harris-Foulkes estimate   =     -95.10120020 Ry
     estimated scf accuracy    <          3.5E-11 Ry

     The total energy is the sum of the following terms:

     one-electron contribution =     -82.13185958 Ry
     hartree contribution      =      41.90459493 Ry
     xc contribution           =     -14.30574951 Ry
     ewald contribution        =     -40.56814815 Ry
     smearing contrib. (-TS)   =      -0.00003788 Ry

     convergence has been achieved in   6 iterations

     Forces acting on atoms (cartesian axes, Ry/au):

     atom    1 type  1   force =     0.00000000    0.00000000    0.00000000

     Total force =     0.000000     Total SCF correction =     0.000000


     Computing stress (Cartesian axis) and pressure

          total   stress  (Ry/bohr**3)                   (kbar)     P=   29.98
   0.00020377   0.00000000   0.00000000         29.98      0.00      0.00
   0.00000000   0.00020377   0.00000000          0.00     29.98      0.00
   0.00000000  -0.00000000   0.00020377          0.00     -0.00     29.98


     Writing output data file na.fcc.save

     init_run     :      3.71s CPU      3.89s WALL (       2 calls)
     electrons    :    277.25s CPU    292.09s WALL (       7 calls)
     update_pot   :      0.92s CPU      0.92s WALL (       5 calls)
     forces       :      1.59s CPU      1.62s WALL (       7 calls)
     stress       :      8.77s CPU      8.85s WALL (       7 calls)

     Called by init_run:
     wfcinit      :      2.99s CPU      3.16s WALL (       2 calls)
     potinit      :      0.09s CPU      0.09s WALL (       2 calls)

     Called by electrons:
     c_bands      :    229.55s CPU    242.08s WALL (      61 calls)
     sum_band     :     46.22s CPU     48.51s WALL (      61 calls)
     v_of_rho     :      0.76s CPU      0.77s WALL (      67 calls)
     newd         :      0.74s CPU      0.75s WALL (      67 calls)
     mix_rho      :      0.05s CPU      0.05s WALL (      61 calls)

     Called by c_bands:
     init_us_2    :      9.65s CPU      9.17s WALL (  106260 calls)
     cegterg      :    219.83s CPU    232.41s WALL (   46970 calls)

     Called by sum_band:
     sum_band:bec :      0.09s CPU      0.15s WALL (   46970 calls)
     addusdens    :      0.90s CPU      0.91s WALL (      61 calls)

     Called by *egterg:
     h_psi        :    189.09s CPU    199.76s WALL (  140895 calls)
     s_psi        :      2.07s CPU      1.79s WALL (  140895 calls)
     g_psi        :      1.13s CPU      1.07s WALL (   92385 calls)
     cdiaghg      :     17.61s CPU     18.28s WALL (  134735 calls)

     Called by h_psi:
     h_psi:pot    :    188.62s CPU    198.99s WALL (  140895 calls)
     h_psi:calbec :      3.78s CPU      3.14s WALL (  140895 calls)
     vloc_psi     :    183.22s CPU    193.55s WALL (  140895 calls)
     add_vuspsi   :      1.39s CPU      1.95s WALL (  140895 calls)

     General routines
     calbec       :      5.61s CPU      5.23s WALL (  214815 calls)
     fft          :      0.42s CPU      0.44s WALL (    1109 calls)
     ffts         :      0.02s CPU      0.02s WALL (     128 calls)
     fftw         :    208.21s CPU    208.67s WALL ( 2511966 calls)
     interpolate  :      0.06s CPU      0.06s WALL (     128 calls)
     davcio       :      0.01s CPU      0.02s WALL (    1540 calls)

     Parallel routines
     fft_scatter  :     39.39s CPU     44.72s WALL ( 2513203 calls)

     PWSCF        :  4m57.07s CPU     5m12.56s WALL


   This run was terminated on:  13:59:42  20Dec2017            

=------------------------------------------------------------------------------=
   JOB DONE.
=------------------------------------------------------------------------------=
