
     Program PWSCF v.6.1 (svn rev. 13369) starts on 20Dec2017 at 14:14:32 

     This program is part of the open-source Quantum ESPRESSO suite
     for quantum simulation of materials; please cite
         "P. Giannozzi et al., J. Phys.:Condens. Matter 21 395502 (2009);
          URL http://www.quantum-espresso.org", 
     in publications or presentations arising from this work. More details at
     http://www.quantum-espresso.org/quote

     Parallel version (MPI), running on     4 processors
     R & G space division:  proc/nbgrp/npool/nimage =       4
     Waiting for input...
     Reading input from standard input

     Current dimensions of program PWSCF are:
     Max number of different atomic species (ntypx) = 10
     Max number of k-points (npk) =  40000
     Max angular momentum in pseudopotentials (lmaxx) =  3

     Subspace diagonalization in iterative solution of the eigenvalue problem:
     a serial algorithm will be used


     Parallelization info
     --------------------
     sticks:   dense  smooth     PW     G-vecs:    dense   smooth      PW
     Min         198      95     34                 3661     1266     266
     Max         199      98     35                 3663     1267     267
     Sum         793     385    139                14649     5065    1067



     bravais-lattice index     =            2
     lattice parameter (alat)  =       8.4689  a.u.
     unit-cell volume          =     151.8506 (a.u.)^3
     number of atoms/cell      =            1
     number of atomic types    =            1
     number of electrons       =         9.00
     number of Kohn-Sham states=            9
     kinetic-energy cutoff     =      40.0000  Ry
     charge density cutoff     =     320.0000  Ry
     convergence threshold     =      1.0E-08
     mixing beta               =       0.7000
     number of iterations used =            8  plain     mixing
     Exchange-correlation      = SLA  PW   PBE  PBE ( 1  4  3  4 0 0)
     nstep                     =           50


     celldm(1)=   8.468871  celldm(2)=   0.000000  celldm(3)=   0.000000
     celldm(4)=   0.000000  celldm(5)=   0.000000  celldm(6)=   0.000000

     crystal axes: (cart. coord. in units of alat)
               a(1) = (  -0.500000   0.000000   0.500000 )  
               a(2) = (   0.000000   0.500000   0.500000 )  
               a(3) = (  -0.500000   0.500000   0.000000 )  

     reciprocal axes: (cart. coord. in units 2 pi/alat)
               b(1) = ( -1.000000 -1.000000  1.000000 )  
               b(2) = (  1.000000  1.000000  1.000000 )  
               b(3) = ( -1.000000  1.000000 -1.000000 )  


     PseudoPot. # 1 for Na read from file:
     /home/s1333534/quantum_espresso/qe-6.1/pseudo/Na_pbe_v1.uspp.F.UPF
     MD5 check sum: 76a99c7e9422403d3e93cbc85ab7bccb
     Pseudo is Ultrasoft, Zval =  9.0
     Generated by new atomic code, or converted to UPF format
     Using radial grid of  819 points,  5 beta functions with: 
                l(1) =   0
                l(2) =   0
                l(3) =   1
                l(4) =   1
                l(5) =   2
     Q(r) pseudized with  8 coefficients,  rinner =    1.250   1.250   1.250
                                                       1.250   1.250

     atomic species   valence    mass     pseudopotential
        Na             9.00    22.99000     Na( 1.00)

     48 Sym. Ops., with inversion, found



   Cartesian axes

     site n.     atom                  positions (alat units)
         1           Na  tau(   1) = (   0.0000000   0.0000000   0.0000000  )

     number of k points=   770  Marzari-Vanderbilt smearing, width (Ry)=  0.0200

     Number of k-points >= 100: set verbosity='high' to print them.

     Dense  grid:    14649 G-vectors     FFT dimensions: (  36,  36,  36)

     Smooth grid:     5065 G-vectors     FFT dimensions: (  25,  25,  25)

     Estimated max dynamical RAM per process >      19.65MB

     Estimated total allocated dynamical RAM >      78.61MB

     Initial potential from superposition of free atoms

     starting charge    8.99371, renormalised to    9.00000
     Starting wfc are    5 randomized atomic wfcs +    4 random wfc

     total cpu time spent up to now is        1.4 secs

     per-process dynamical memory:    27.9 Mb

     Self-consistent Calculation

     iteration #  1     ecut=    40.00 Ry     beta=0.70
     Davidson diagonalization with overlap
     ethr =  1.00E-02,  avg # of iterations =  5.2

     Threshold (ethr) on eigenvalues was too large:
     Diagonalizing with lowered threshold

     Davidson diagonalization with overlap
     ethr =  1.78E-05,  avg # of iterations =  2.8

     total cpu time spent up to now is        9.4 secs

     total energy              =     -95.08454324 Ry
     Harris-Foulkes estimate   =     -95.08512087 Ry
     estimated scf accuracy    <       0.00160050 Ry

     iteration #  2     ecut=    40.00 Ry     beta=0.70
     Davidson diagonalization with overlap
     ethr =  1.78E-05,  avg # of iterations =  2.0

     total cpu time spent up to now is       12.2 secs

     total energy              =     -95.08475373 Ry
     Harris-Foulkes estimate   =     -95.08480038 Ry
     estimated scf accuracy    <       0.00018024 Ry

     iteration #  3     ecut=    40.00 Ry     beta=0.70
     Davidson diagonalization with overlap
     ethr =  2.00E-06,  avg # of iterations =  2.2

     total cpu time spent up to now is       15.2 secs

     total energy              =     -95.08477689 Ry
     Harris-Foulkes estimate   =     -95.08477814 Ry
     estimated scf accuracy    <       0.00001042 Ry

     iteration #  4     ecut=    40.00 Ry     beta=0.70
     Davidson diagonalization with overlap
     ethr =  1.16E-07,  avg # of iterations =  1.0

     total cpu time spent up to now is       17.6 secs

     total energy              =     -95.08477785 Ry
     Harris-Foulkes estimate   =     -95.08477778 Ry
     estimated scf accuracy    <       0.00000001 Ry

     iteration #  5     ecut=    40.00 Ry     beta=0.70
     Davidson diagonalization with overlap
     ethr =  1.60E-10,  avg # of iterations =  3.0

     total cpu time spent up to now is       21.2 secs

     End of self-consistent calculation

     Number of k-points >= 100: set verbosity='high' to print the bands.

     the Fermi energy is     4.3604 ev

!    total energy              =     -95.08477789 Ry
     Harris-Foulkes estimate   =     -95.08477788 Ry
     estimated scf accuracy    <          2.2E-09 Ry

     The total energy is the sum of the following terms:

     one-electron contribution =     -76.43974936 Ry
     hartree contribution      =      39.55111873 Ry
     xc contribution           =     -14.34448168 Ry
     ewald contribution        =     -43.85163272 Ry
     smearing contrib. (-TS)   =      -0.00003286 Ry

     convergence has been achieved in   5 iterations

     Forces acting on atoms (cartesian axes, Ry/au):

     atom    1 type  1   force =     0.00000000    0.00000000    0.00000000

     Total force =     0.000000     Total SCF correction =     0.000000


     Computing stress (Cartesian axis) and pressure

          total   stress  (Ry/bohr**3)                   (kbar)     P=   93.02
   0.00063236  -0.00000000  -0.00000000         93.02     -0.00     -0.00
  -0.00000000   0.00063236   0.00000000         -0.00     93.02      0.00
  -0.00000000   0.00000000   0.00063236         -0.00      0.00     93.02


     BFGS Geometry Optimization

     number of scf cycles    =   1
     number of bfgs steps    =   0

     enthalpy new            =     -94.9918745104 Ry

     new trust radius        =       0.0012660231 bohr
     new conv_thr            =       0.0000000100 Ry

     new unit-cell volume =    152.08476 a.u.^3 (    22.53664 Ang^3 )
     density =      1.69394 g/cm^3

CELL_PARAMETERS (alat=  8.46887117)
  -0.500256846   0.000000000   0.500256846
  -0.000000000   0.500256846   0.500256846
  -0.500256846   0.500256846   0.000000000

ATOMIC_POSITIONS (crystal)
Na       0.000000000   0.000000000   0.000000000



     Writing output data file na.fcc.save
     NEW-OLD atomic charge density approx. for the potential
     extrapolated charge    9.01385, renormalised to    9.00000

     total cpu time spent up to now is       23.3 secs

     per-process dynamical memory:    35.1 Mb

     Self-consistent Calculation

     iteration #  1     ecut=    40.00 Ry     beta=0.70
     Davidson diagonalization with overlap
     ethr =  1.00E-06,  avg # of iterations =  2.0

     total cpu time spent up to now is       26.8 secs

     total energy              =     -95.08480482 Ry
     Harris-Foulkes estimate   =     -94.99183628 Ry
     estimated scf accuracy    <       0.00006770 Ry

     iteration #  2     ecut=    40.00 Ry     beta=0.70
     Davidson diagonalization with overlap
     ethr =  7.52E-07,  avg # of iterations =  2.9

     total cpu time spent up to now is       30.2 secs

     total energy              =     -95.08492789 Ry
     Harris-Foulkes estimate   =     -95.08497782 Ry
     estimated scf accuracy    <       0.00011386 Ry

     iteration #  3     ecut=    40.00 Ry     beta=0.70
     Davidson diagonalization with overlap
     ethr =  7.52E-07,  avg # of iterations =  1.4

     total cpu time spent up to now is       32.8 secs

     total energy              =     -95.08492946 Ry
     Harris-Foulkes estimate   =     -95.08493533 Ry
     estimated scf accuracy    <       0.00002226 Ry

     iteration #  4     ecut=    40.00 Ry     beta=0.70
     Davidson diagonalization with overlap
     ethr =  2.47E-07,  avg # of iterations =  1.0

     total cpu time spent up to now is       35.3 secs

     total energy              =     -95.08492765 Ry
     Harris-Foulkes estimate   =     -95.08493017 Ry
     estimated scf accuracy    <       0.00000989 Ry

     iteration #  5     ecut=    40.00 Ry     beta=0.70
     Davidson diagonalization with overlap
     ethr =  1.10E-07,  avg # of iterations =  1.0

     total cpu time spent up to now is       37.7 secs

     total energy              =     -95.08492626 Ry
     Harris-Foulkes estimate   =     -95.08492784 Ry
     estimated scf accuracy    <       0.00000491 Ry

     iteration #  6     ecut=    40.00 Ry     beta=0.70
     Davidson diagonalization with overlap
     ethr =  5.45E-08,  avg # of iterations =  1.0

     total cpu time spent up to now is       40.2 secs

     total energy              =     -95.08492544 Ry
     Harris-Foulkes estimate   =     -95.08492641 Ry
     estimated scf accuracy    <       0.00000184 Ry

     iteration #  7     ecut=    40.00 Ry     beta=0.70
     Davidson diagonalization with overlap
     ethr =  2.05E-08,  avg # of iterations =  1.4

     total cpu time spent up to now is       42.8 secs

     total energy              =     -95.08492553 Ry
     Harris-Foulkes estimate   =     -95.08492563 Ry
     estimated scf accuracy    <       0.00000016 Ry

     iteration #  8     ecut=    40.00 Ry     beta=0.70
     Davidson diagonalization with overlap
     ethr =  1.76E-09,  avg # of iterations =  2.0

     total cpu time spent up to now is       45.8 secs

     End of self-consistent calculation

     Number of k-points >= 100: set verbosity='high' to print the bands.

     the Fermi energy is     4.3493 ev

!    total energy              =     -95.08492557 Ry
     Harris-Foulkes estimate   =     -95.08492557 Ry
     estimated scf accuracy    <          7.8E-10 Ry

     The total energy is the sum of the following terms:

     one-electron contribution =     -76.47877536 Ry
     hartree contribution      =      39.56724425 Ry
     xc contribution           =     -14.34424356 Ry
     ewald contribution        =     -43.82911802 Ry
     smearing contrib. (-TS)   =      -0.00003288 Ry

     convergence has been achieved in   8 iterations

     Forces acting on atoms (cartesian axes, Ry/au):

     atom    1 type  1   force =     0.00000000    0.00000000    0.00000000

     Total force =     0.000000     Total SCF correction =     0.000000


     Computing stress (Cartesian axis) and pressure

          total   stress  (Ry/bohr**3)                   (kbar)     P=   92.82
   0.00063099  -0.00000000  -0.00000000         92.82     -0.00     -0.00
  -0.00000000   0.00063099   0.00000000         -0.00     92.82      0.00
  -0.00000000   0.00000000   0.00063099         -0.00      0.00     92.82


     number of scf cycles    =   2
     number of bfgs steps    =   1

     enthalpy old            =     -94.9918745104 Ry
     enthalpy new            =     -94.9918789458 Ry

     CASE: enthalpy_new < enthalpy_old


     WARNING: bfgs curvature condition failed, Theta= 0.856
     new trust radius        =       0.0013929830 bohr
     new conv_thr            =            1.0E-10 Ry

     new unit-cell volume =    152.34259 a.u.^3 (    22.57484 Ang^3 )
     density =      1.69108 g/cm^3

CELL_PARAMETERS (alat=  8.46887117)
  -0.500539377   0.000000000   0.500539377
  -0.000000000   0.500539377   0.500539377
  -0.500539377   0.500539377   0.000000000

ATOMIC_POSITIONS (crystal)
Na       0.000000000   0.000000000   0.000000000



     Writing output data file na.fcc.save
     NEW-OLD atomic charge density approx. for the potential
     extrapolated charge    9.01522, renormalised to    9.00000

     total cpu time spent up to now is       47.9 secs

     per-process dynamical memory:    35.1 Mb

     Self-consistent Calculation

     iteration #  1     ecut=    40.00 Ry     beta=0.70
     Davidson diagonalization with overlap
     ethr =  1.00E-06,  avg # of iterations =  2.0

     total cpu time spent up to now is       51.4 secs

     total energy              =     -95.08494049 Ry
     Harris-Foulkes estimate   =     -94.98268994 Ry
     estimated scf accuracy    <       0.00008256 Ry

     iteration #  2     ecut=    40.00 Ry     beta=0.70
     Davidson diagonalization with overlap
     ethr =  9.17E-07,  avg # of iterations =  2.9

     total cpu time spent up to now is       54.9 secs

     total energy              =     -95.08508978 Ry
     Harris-Foulkes estimate   =     -95.08515038 Ry
     estimated scf accuracy    <       0.00013797 Ry

     iteration #  3     ecut=    40.00 Ry     beta=0.70
     Davidson diagonalization with overlap
     ethr =  9.17E-07,  avg # of iterations =  1.4

     total cpu time spent up to now is       57.4 secs

     total energy              =     -95.08509171 Ry
     Harris-Foulkes estimate   =     -95.08509884 Ry
     estimated scf accuracy    <       0.00002684 Ry

     iteration #  4     ecut=    40.00 Ry     beta=0.70
     Davidson diagonalization with overlap
     ethr =  2.98E-07,  avg # of iterations =  1.0

     total cpu time spent up to now is       59.9 secs

     total energy              =     -95.08508961 Ry
     Harris-Foulkes estimate   =     -95.08509257 Ry
     estimated scf accuracy    <       0.00001185 Ry

     iteration #  5     ecut=    40.00 Ry     beta=0.70
     Davidson diagonalization with overlap
     ethr =  1.32E-07,  avg # of iterations =  1.0

     total cpu time spent up to now is       62.3 secs

     total energy              =     -95.08508790 Ry
     Harris-Foulkes estimate   =     -95.08508982 Ry
     estimated scf accuracy    <       0.00000597 Ry

     iteration #  6     ecut=    40.00 Ry     beta=0.70
     Davidson diagonalization with overlap
     ethr =  6.63E-08,  avg # of iterations =  1.0

     total cpu time spent up to now is       64.8 secs

     total energy              =     -95.08508695 Ry
     Harris-Foulkes estimate   =     -95.08508808 Ry
     estimated scf accuracy    <       0.00000224 Ry

     iteration #  7     ecut=    40.00 Ry     beta=0.70
     Davidson diagonalization with overlap
     ethr =  2.49E-08,  avg # of iterations =  1.1

     total cpu time spent up to now is       67.3 secs

     total energy              =     -95.08508700 Ry
     Harris-Foulkes estimate   =     -95.08508716 Ry
     estimated scf accuracy    <       0.00000025 Ry

     iteration #  8     ecut=    40.00 Ry     beta=0.70
     Davidson diagonalization with overlap
     ethr =  2.80E-09,  avg # of iterations =  2.0

     total cpu time spent up to now is       70.3 secs

     total energy              =     -95.08508706 Ry
     Harris-Foulkes estimate   =     -95.08508706 Ry
     estimated scf accuracy    <          1.6E-09 Ry

     iteration #  9     ecut=    40.00 Ry     beta=0.70
     Davidson diagonalization with overlap
     ethr =  1.75E-11,  avg # of iterations =  2.0

     total cpu time spent up to now is       73.3 secs

     total energy              =     -95.08508706 Ry
     Harris-Foulkes estimate   =     -95.08508706 Ry
     estimated scf accuracy    <          4.8E-10 Ry

     iteration # 10     ecut=    40.00 Ry     beta=0.70
     Davidson diagonalization with overlap
     ethr =  5.28E-12,  avg # of iterations =  1.0

     total cpu time spent up to now is       75.8 secs

     total energy              =     -95.08508706 Ry
     Harris-Foulkes estimate   =     -95.08508706 Ry
     estimated scf accuracy    <          1.4E-10 Ry

     iteration # 11     ecut=    40.00 Ry     beta=0.70
     Davidson diagonalization with overlap
     ethr =  1.60E-12,  avg # of iterations =  1.0

     total cpu time spent up to now is       78.2 secs

     End of self-consistent calculation

     Number of k-points >= 100: set verbosity='high' to print the bands.

     the Fermi energy is     4.3371 ev

!    total energy              =     -95.08508706 Ry
     Harris-Foulkes estimate   =     -95.08508706 Ry
     estimated scf accuracy    <          2.5E-11 Ry

     The total energy is the sum of the following terms:

     one-electron contribution =     -76.52133245 Ry
     hartree contribution      =      39.58456184 Ry
     xc contribution           =     -14.34390500 Ry
     ewald contribution        =     -43.80437855 Ry
     smearing contrib. (-TS)   =      -0.00003290 Ry

     convergence has been achieved in  11 iterations

     Forces acting on atoms (cartesian axes, Ry/au):

     atom    1 type  1   force =     0.00000000    0.00000000    0.00000000

     Total force =     0.000000     Total SCF correction =     0.000000


     Computing stress (Cartesian axis) and pressure

          total   stress  (Ry/bohr**3)                   (kbar)     P=   91.74
   0.00062364   0.00000000   0.00000000         91.74      0.00      0.00
   0.00000000   0.00062364  -0.00000000          0.00     91.74     -0.00
   0.00000000  -0.00000000   0.00062364          0.00     -0.00     91.74


     number of scf cycles    =   3
     number of bfgs steps    =   2

     enthalpy old            =     -94.9918789458 Ry
     enthalpy new            =     -94.9918826965 Ry

     CASE: enthalpy_new < enthalpy_old

     new trust radius        =       0.0020900645 bohr
     new conv_thr            =            1.0E-10 Ry

     new unit-cell volume =    152.72987 a.u.^3 (    22.63223 Ang^3 )
     density =      1.68679 g/cm^3

CELL_PARAMETERS (alat=  8.46887117)
  -0.500963174   0.000000000   0.500963174
  -0.000000000   0.500963174   0.500963174
  -0.500963174   0.500963174   0.000000000

ATOMIC_POSITIONS (crystal)
Na       0.000000000   0.000000000   0.000000000



     Writing output data file na.fcc.save
     NEW-OLD atomic charge density approx. for the potential
     extrapolated charge    9.02281, renormalised to    9.00000

     total cpu time spent up to now is       80.6 secs

     per-process dynamical memory:    35.1 Mb

     Self-consistent Calculation

     iteration #  1     ecut=    40.00 Ry     beta=0.70
     Davidson diagonalization with overlap
     ethr =  1.00E-06,  avg # of iterations =  2.0

     total cpu time spent up to now is       84.1 secs

     total energy              =     -95.08499819 Ry
     Harris-Foulkes estimate   =     -94.93175355 Ry
     estimated scf accuracy    <       0.00018479 Ry

     iteration #  2     ecut=    40.00 Ry     beta=0.70
     Davidson diagonalization with overlap
     ethr =  2.05E-06,  avg # of iterations =  2.9

     total cpu time spent up to now is       87.9 secs

     total energy              =     -95.08533379 Ry
     Harris-Foulkes estimate   =     -95.08546990 Ry
     estimated scf accuracy    <       0.00031026 Ry

     iteration #  3     ecut=    40.00 Ry     beta=0.70
     Davidson diagonalization with overlap
     ethr =  2.05E-06,  avg # of iterations =  1.4

     total cpu time spent up to now is       90.5 secs

     total energy              =     -95.08533679 Ry
     Harris-Foulkes estimate   =     -95.08535415 Ry
     estimated scf accuracy    <       0.00006041 Ry

     iteration #  4     ecut=    40.00 Ry     beta=0.70
     Davidson diagonalization with overlap
     ethr =  6.71E-07,  avg # of iterations =  1.0

     total cpu time spent up to now is       92.9 secs

     total energy              =     -95.08533281 Ry
     Harris-Foulkes estimate   =     -95.08533883 Ry
     estimated scf accuracy    <       0.00002464 Ry

     iteration #  5     ecut=    40.00 Ry     beta=0.70
     Davidson diagonalization with overlap
     ethr =  2.74E-07,  avg # of iterations =  1.0

     total cpu time spent up to now is       95.4 secs

     total energy              =     -95.08533000 Ry
     Harris-Foulkes estimate   =     -95.08533328 Ry
     estimated scf accuracy    <       0.00001258 Ry

     iteration #  6     ecut=    40.00 Ry     beta=0.70
     Davidson diagonalization with overlap
     ethr =  1.40E-07,  avg # of iterations =  1.0

     total cpu time spent up to now is       97.9 secs

     total energy              =     -95.08532701 Ry
     Harris-Foulkes estimate   =     -95.08533023 Ry
     estimated scf accuracy    <       0.00000613 Ry

     iteration #  7     ecut=    40.00 Ry     beta=0.70
     Davidson diagonalization with overlap
     ethr =  6.82E-08,  avg # of iterations =  1.3

     total cpu time spent up to now is      100.4 secs

     total energy              =     -95.08532733 Ry
     Harris-Foulkes estimate   =     -95.08532764 Ry
     estimated scf accuracy    <       0.00000054 Ry

     iteration #  8     ecut=    40.00 Ry     beta=0.70
     Davidson diagonalization with overlap
     ethr =  6.02E-09,  avg # of iterations =  2.0

     total cpu time spent up to now is      103.3 secs

     total energy              =     -95.08532742 Ry
     Harris-Foulkes estimate   =     -95.08532743 Ry
     estimated scf accuracy    <       0.00000002 Ry

     iteration #  9     ecut=    40.00 Ry     beta=0.70
     Davidson diagonalization with overlap
     ethr =  2.51E-10,  avg # of iterations =  1.0

     total cpu time spent up to now is      105.8 secs

     total energy              =     -95.08532742 Ry
     Harris-Foulkes estimate   =     -95.08532742 Ry
     estimated scf accuracy    <          3.6E-09 Ry

     iteration # 10     ecut=    40.00 Ry     beta=0.70
     Davidson diagonalization with overlap
     ethr =  3.96E-11,  avg # of iterations =  1.0

     total cpu time spent up to now is      108.3 secs

     total energy              =     -95.08532742 Ry
     Harris-Foulkes estimate   =     -95.08532742 Ry
     estimated scf accuracy    <          1.4E-09 Ry

     iteration # 11     ecut=    40.00 Ry     beta=0.70
     Davidson diagonalization with overlap
     ethr =  1.52E-11,  avg # of iterations =  1.2

     total cpu time spent up to now is      110.9 secs

     total energy              =     -95.08532742 Ry
     Harris-Foulkes estimate   =     -95.08532742 Ry
     estimated scf accuracy    <          1.4E-10 Ry

     iteration # 12     ecut=    40.00 Ry     beta=0.70
     Davidson diagonalization with overlap
     ethr =  1.53E-12,  avg # of iterations =  2.0

     total cpu time spent up to now is      113.9 secs

     End of self-consistent calculation

     Number of k-points >= 100: set verbosity='high' to print the bands.

     the Fermi energy is     4.3190 ev

!    total energy              =     -95.08532742 Ry
     Harris-Foulkes estimate   =     -95.08532742 Ry
     estimated scf accuracy    <          2.6E-12 Ry

     The total energy is the sum of the following terms:

     one-electron contribution =     -76.58530999 Ry
     hartree contribution      =      39.61078759 Ry
     xc contribution           =     -14.34345042 Ry
     ewald contribution        =     -43.76732165 Ry
     smearing contrib. (-TS)   =      -0.00003294 Ry

     convergence has been achieved in  12 iterations

     Forces acting on atoms (cartesian axes, Ry/au):

     atom    1 type  1   force =     0.00000000    0.00000000    0.00000000

     Total force =     0.000000     Total SCF correction =     0.000000


     Computing stress (Cartesian axis) and pressure

          total   stress  (Ry/bohr**3)                   (kbar)     P=   90.80
   0.00061723  -0.00000000  -0.00000000         90.80     -0.00     -0.00
  -0.00000000   0.00061723   0.00000000         -0.00     90.80      0.00
  -0.00000000   0.00000000   0.00061723         -0.00      0.00     90.80


     number of scf cycles    =   4
     number of bfgs steps    =   3

     enthalpy old            =     -94.9918826965 Ry
     enthalpy new            =     -94.9918861133 Ry

     CASE: enthalpy_new < enthalpy_old

     new trust radius        =       0.0017771402 bohr
     new conv_thr            =            1.0E-10 Ry

     new unit-cell volume =    153.05954 a.u.^3 (    22.68108 Ang^3 )
     density =      1.68316 g/cm^3

CELL_PARAMETERS (alat=  8.46887117)
  -0.501323367   0.000000000   0.501323367
   0.000000000   0.501323367   0.501323367
  -0.501323367   0.501323367   0.000000000

ATOMIC_POSITIONS (crystal)
Na       0.000000000   0.000000000   0.000000000



     Writing output data file na.fcc.save
     NEW-OLD atomic charge density approx. for the potential
     extrapolated charge    9.01937, renormalised to    9.00000

     total cpu time spent up to now is      116.2 secs

     per-process dynamical memory:    35.1 Mb

     Self-consistent Calculation

     iteration #  1     ecut=    40.00 Ry     beta=0.70
     Davidson diagonalization with overlap
     ethr =  1.00E-06,  avg # of iterations =  2.0

     total cpu time spent up to now is      119.6 secs

     total energy              =     -95.08529258 Ry
     Harris-Foulkes estimate   =     -94.95499111 Ry
     estimated scf accuracy    <       0.00013328 Ry

     iteration #  2     ecut=    40.00 Ry     beta=0.70
     Davidson diagonalization with overlap
     ethr =  1.48E-06,  avg # of iterations =  2.9

     total cpu time spent up to now is      123.3 secs

     total energy              =     -95.08553449 Ry
     Harris-Foulkes estimate   =     -95.08563263 Ry
     estimated scf accuracy    <       0.00022366 Ry

     iteration #  3     ecut=    40.00 Ry     beta=0.70
     Davidson diagonalization with overlap
     ethr =  1.48E-06,  avg # of iterations =  1.4

     total cpu time spent up to now is      125.8 secs

     total energy              =     -95.08553689 Ry
     Harris-Foulkes estimate   =     -95.08554918 Ry
     estimated scf accuracy    <       0.00004354 Ry

     iteration #  4     ecut=    40.00 Ry     beta=0.70
     Davidson diagonalization with overlap
     ethr =  4.84E-07,  avg # of iterations =  1.0

     total cpu time spent up to now is      128.2 secs

     total energy              =     -95.08553390 Ry
     Harris-Foulkes estimate   =     -95.08553835 Ry
     estimated scf accuracy    <       0.00001811 Ry

     iteration #  5     ecut=    40.00 Ry     beta=0.70
     Davidson diagonalization with overlap
     ethr =  2.01E-07,  avg # of iterations =  1.0

     total cpu time spent up to now is      130.6 secs

     total energy              =     -95.08553168 Ry
     Harris-Foulkes estimate   =     -95.08553424 Ry
     estimated scf accuracy    <       0.00000922 Ry

     iteration #  6     ecut=    40.00 Ry     beta=0.70
     Davidson diagonalization with overlap
     ethr =  1.02E-07,  avg # of iterations =  1.0

     total cpu time spent up to now is      133.0 secs

     total energy              =     -95.08552966 Ry
     Harris-Foulkes estimate   =     -95.08553188 Ry
     estimated scf accuracy    <       0.00000421 Ry

     iteration #  7     ecut=    40.00 Ry     beta=0.70
     Davidson diagonalization with overlap
     ethr =  4.68E-08,  avg # of iterations =  1.3

     total cpu time spent up to now is      135.4 secs

     total energy              =     -95.08552989 Ry
     Harris-Foulkes estimate   =     -95.08553010 Ry
     estimated scf accuracy    <       0.00000037 Ry

     iteration #  8     ecut=    40.00 Ry     beta=0.70
     Davidson diagonalization with overlap
     ethr =  4.12E-09,  avg # of iterations =  2.0

     total cpu time spent up to now is      138.3 secs

     total energy              =     -95.08552994 Ry
     Harris-Foulkes estimate   =     -95.08552995 Ry
     estimated scf accuracy    <       0.00000001 Ry

     iteration #  9     ecut=    40.00 Ry     beta=0.70
     Davidson diagonalization with overlap
     ethr =  1.58E-10,  avg # of iterations =  1.5

     total cpu time spent up to now is      141.1 secs

     total energy              =     -95.08552995 Ry
     Harris-Foulkes estimate   =     -95.08552995 Ry
     estimated scf accuracy    <          1.2E-09 Ry

     iteration # 10     ecut=    40.00 Ry     beta=0.70
     Davidson diagonalization with overlap
     ethr =  1.32E-11,  avg # of iterations =  1.3

     total cpu time spent up to now is      143.7 secs

     total energy              =     -95.08552995 Ry
     Harris-Foulkes estimate   =     -95.08552995 Ry
     estimated scf accuracy    <          6.1E-10 Ry

     iteration # 11     ecut=    40.00 Ry     beta=0.70
     Davidson diagonalization with overlap
     ethr =  6.82E-12,  avg # of iterations =  2.0

     total cpu time spent up to now is      146.5 secs

     total energy              =     -95.08552995 Ry
     Harris-Foulkes estimate   =     -95.08552995 Ry
     estimated scf accuracy    <          1.4E-10 Ry

     iteration # 12     ecut=    40.00 Ry     beta=0.70
     Davidson diagonalization with overlap
     ethr =  1.58E-12,  avg # of iterations =  1.6

     total cpu time spent up to now is      149.2 secs

     End of self-consistent calculation

     Number of k-points >= 100: set verbosity='high' to print the bands.

     the Fermi energy is     4.3036 ev

!    total energy              =     -95.08552995 Ry
     Harris-Foulkes estimate   =     -95.08552995 Ry
     estimated scf accuracy    <          8.8E-12 Ry

     The total energy is the sum of the following terms:

     one-electron contribution =     -76.63958200 Ry
     hartree contribution      =      39.63302014 Ry
     xc contribution           =     -14.34305961 Ry
     ewald contribution        =     -43.73587550 Ry
     smearing contrib. (-TS)   =      -0.00003297 Ry

     convergence has been achieved in  12 iterations

     Forces acting on atoms (cartesian axes, Ry/au):

     atom    1 type  1   force =     0.00000000    0.00000000    0.00000000

     Total force =     0.000000     Total SCF correction =     0.000000


     Computing stress (Cartesian axis) and pressure

          total   stress  (Ry/bohr**3)                   (kbar)     P=   89.93
   0.00061134   0.00000000   0.00000000         89.93      0.00      0.00
   0.00000000   0.00061134   0.00000000          0.00     89.93      0.00
   0.00000000  -0.00000000   0.00061134          0.00     -0.00     89.93


     bfgs converged in   5 scf cycles and   4 bfgs steps
     (criteria: energy <  1.0E-04 Ry, force <  1.0E-03Ry/Bohr, cell <  5.0E-01kbar)

     End of BFGS Geometry Optimization

     Final enthalpy =     -94.9918869426 Ry
Begin final coordinates
     new unit-cell volume =    153.05954 a.u.^3 (    22.68108 Ang^3 )
     density =      1.68316 g/cm^3

CELL_PARAMETERS (alat=  8.46887117)
  -0.501323367   0.000000000   0.501323367
   0.000000000   0.501323367   0.501323367
  -0.501323367   0.501323367   0.000000000

ATOMIC_POSITIONS (crystal)
Na       0.000000000   0.000000000   0.000000000
End final coordinates



     A final scf calculation at the relaxed structure.
     The G-vectors are recalculated for the final unit cell
     Results may differ from those at the preceding step.

     Parallelization info
     --------------------
     sticks:   dense  smooth     PW     G-vecs:    dense   smooth      PW
     Min         201      99     34                 3710     1302     266
     Max         202     100     35                 3711     1303     267
     Sum         805     397    139                14841     5209    1067



     bravais-lattice index     =            2
     lattice parameter (alat)  =       8.4689  a.u.
     unit-cell volume          =     153.0595 (a.u.)^3
     number of atoms/cell      =            1
     number of atomic types    =            1
     number of electrons       =         9.00
     number of Kohn-Sham states=            9
     kinetic-energy cutoff     =      40.0000  Ry
     charge density cutoff     =     320.0000  Ry
     convergence threshold     =      1.0E-10
     mixing beta               =       0.7000
     number of iterations used =            8  plain     mixing
     Exchange-correlation      = SLA  PW   PBE  PBE ( 1  4  3  4 0 0)

     celldm(1)=   8.468871  celldm(2)=   0.000000  celldm(3)=   0.000000
     celldm(4)=   0.000000  celldm(5)=   0.000000  celldm(6)=   0.000000

     crystal axes: (cart. coord. in units of alat)
               a(1) = (  -0.501323   0.000000   0.501323 )  
               a(2) = (   0.000000   0.501323   0.501323 )  
               a(3) = (  -0.501323   0.501323   0.000000 )  

     reciprocal axes: (cart. coord. in units 2 pi/alat)
               b(1) = ( -0.997360 -0.997360  0.997360 )  
               b(2) = (  0.997360  0.997360  0.997360 )  
               b(3) = ( -0.997360  0.997360 -0.997360 )  


     PseudoPot. # 1 for Na read from file:
     /home/s1333534/quantum_espresso/qe-6.1/pseudo/Na_pbe_v1.uspp.F.UPF
     MD5 check sum: 76a99c7e9422403d3e93cbc85ab7bccb
     Pseudo is Ultrasoft, Zval =  9.0
     Generated by new atomic code, or converted to UPF format
     Using radial grid of  819 points,  5 beta functions with: 
                l(1) =   0
                l(2) =   0
                l(3) =   1
                l(4) =   1
                l(5) =   2
     Q(r) pseudized with  8 coefficients,  rinner =    1.250   1.250   1.250
                                                       1.250   1.250

     atomic species   valence    mass     pseudopotential
        Na             9.00    22.99000     Na( 1.00)

     48 Sym. Ops., with inversion, found



   Cartesian axes

     site n.     atom                  positions (alat units)
         1           Na  tau(   1) = (   0.0000000   0.0000000   0.0000000  )

     number of k points=   770  Marzari-Vanderbilt smearing, width (Ry)=  0.0200

     Number of k-points >= 100: set verbosity='high' to print them.

     Dense  grid:    14841 G-vectors     FFT dimensions: (  36,  36,  36)

     Smooth grid:     5209 G-vectors     FFT dimensions: (  25,  25,  25)

     Estimated max dynamical RAM per process >      19.78MB

     Estimated total allocated dynamical RAM >      79.12MB

     Initial potential from superposition of free atoms

     starting charge    8.99371, renormalised to    9.00000
     Starting wfc are    5 randomized atomic wfcs +    4 random wfc

     Writing output data file na.fcc.save

     total cpu time spent up to now is      152.5 secs

     per-process dynamical memory:    34.8 Mb

     Self-consistent Calculation

     iteration #  1     ecut=    40.00 Ry     beta=0.70
     Davidson diagonalization with overlap
     c_bands:  1 eigenvalues not converged
     ethr =  1.00E-06,  avg # of iterations = 10.3

     total cpu time spent up to now is      161.0 secs

     total energy              =     -95.08532796 Ry
     Harris-Foulkes estimate   =     -95.08589653 Ry
     estimated scf accuracy    <       0.00158485 Ry

     iteration #  2     ecut=    40.00 Ry     beta=0.70
     Davidson diagonalization with overlap
     ethr =  1.76E-05,  avg # of iterations =  2.0

     total cpu time spent up to now is      163.9 secs

     total energy              =     -95.08554275 Ry
     Harris-Foulkes estimate   =     -95.08559134 Ry
     estimated scf accuracy    <       0.00018307 Ry

     iteration #  3     ecut=    40.00 Ry     beta=0.70
     Davidson diagonalization with overlap
     ethr =  2.03E-06,  avg # of iterations =  2.0

     total cpu time spent up to now is      166.8 secs

     total energy              =     -95.08556570 Ry
     Harris-Foulkes estimate   =     -95.08556702 Ry
     estimated scf accuracy    <       0.00001066 Ry

     iteration #  4     ecut=    40.00 Ry     beta=0.70
     Davidson diagonalization with overlap
     ethr =  1.18E-07,  avg # of iterations =  1.0

     total cpu time spent up to now is      169.3 secs

     total energy              =     -95.08556664 Ry
     Harris-Foulkes estimate   =     -95.08556657 Ry
     estimated scf accuracy    <       0.00000001 Ry

     iteration #  5     ecut=    40.00 Ry     beta=0.70
     Davidson diagonalization with overlap
     ethr =  1.51E-10,  avg # of iterations =  3.0

     total cpu time spent up to now is      172.9 secs

     total energy              =     -95.08556667 Ry
     Harris-Foulkes estimate   =     -95.08556667 Ry
     estimated scf accuracy    <          1.7E-09 Ry

     iteration #  6     ecut=    40.00 Ry     beta=0.70
     Davidson diagonalization with overlap
     ethr =  1.93E-11,  avg # of iterations =  1.6

     total cpu time spent up to now is      175.5 secs

     End of self-consistent calculation

     Number of k-points >= 100: set verbosity='high' to print the bands.

     the Fermi energy is     4.3037 ev

!    total energy              =     -95.08556668 Ry
     Harris-Foulkes estimate   =     -95.08556667 Ry
     estimated scf accuracy    <          6.1E-11 Ry

     The total energy is the sum of the following terms:

     one-electron contribution =     -76.63967425 Ry
     hartree contribution      =      39.63309389 Ry
     xc contribution           =     -14.34307784 Ry
     ewald contribution        =     -43.73587550 Ry
     smearing contrib. (-TS)   =      -0.00003297 Ry

     convergence has been achieved in   6 iterations

     Forces acting on atoms (cartesian axes, Ry/au):

     atom    1 type  1   force =     0.00000000    0.00000000    0.00000000

     Total force =     0.000000     Total SCF correction =     0.000000


     Computing stress (Cartesian axis) and pressure

          total   stress  (Ry/bohr**3)                   (kbar)     P=   90.24
   0.00061347  -0.00000000  -0.00000000         90.24     -0.00     -0.00
  -0.00000000   0.00061347   0.00000000         -0.00     90.24      0.00
  -0.00000000   0.00000000   0.00061347         -0.00      0.00     90.24


     Writing output data file na.fcc.save

     init_run     :      2.51s CPU      2.62s WALL (       2 calls)
     electrons    :    155.22s CPU    162.08s WALL (       6 calls)
     update_pot   :      0.56s CPU      0.74s WALL (       4 calls)
     forces       :      1.10s CPU      1.14s WALL (       6 calls)
     stress       :      6.01s CPU      6.11s WALL (       6 calls)

     Called by init_run:
     wfcinit      :      1.87s CPU      1.97s WALL (       2 calls)
     potinit      :      0.07s CPU      0.07s WALL (       2 calls)

     Called by electrons:
     c_bands      :    128.05s CPU    133.88s WALL (      55 calls)
     sum_band     :     26.20s CPU     27.21s WALL (      55 calls)
     v_of_rho     :      0.48s CPU      0.49s WALL (      60 calls)
     newd         :      0.51s CPU      0.52s WALL (      60 calls)
     mix_rho      :      0.03s CPU      0.03s WALL (      55 calls)

     Called by c_bands:
     init_us_2    :      6.86s CPU      6.61s WALL (   95480 calls)
     cegterg      :    121.21s CPU    127.07s WALL (   42350 calls)

     Called by sum_band:
     sum_band:bec :      0.12s CPU      0.13s WALL (   42350 calls)
     addusdens    :      0.63s CPU      0.65s WALL (      55 calls)

     Called by *egterg:
     h_psi        :     96.75s CPU    101.30s WALL (  122615 calls)
     s_psi        :      1.67s CPU      1.28s WALL (  122615 calls)
     g_psi        :      0.81s CPU      0.73s WALL (   78725 calls)
     cdiaghg      :     14.71s CPU     15.23s WALL (  117225 calls)

     Called by h_psi:
     h_psi:pot    :     96.38s CPU    100.77s WALL (  122615 calls)
     h_psi:calbec :      2.78s CPU      2.26s WALL (  122615 calls)
     vloc_psi     :     92.53s CPU     96.78s WALL (  122615 calls)
     add_vuspsi   :      0.90s CPU      1.42s WALL (  122615 calls)

     General routines
     calbec       :      3.95s CPU      3.52s WALL (  188065 calls)
     fft          :      0.27s CPU      0.28s WALL (     992 calls)
     ffts         :      0.01s CPU      0.01s WALL (     115 calls)
     fftw         :    103.42s CPU    101.36s WALL ( 2211192 calls)
     interpolate  :      0.03s CPU      0.04s WALL (     115 calls)
     davcio       :      0.01s CPU      0.01s WALL (    1540 calls)

     Parallel routines
     fft_scatter  :     21.42s CPU     24.29s WALL ( 2212299 calls)

     PWSCF        :  2m49.54s CPU     2m57.42s WALL


   This run was terminated on:  14:17:30  20Dec2017            

=------------------------------------------------------------------------------=
   JOB DONE.
=------------------------------------------------------------------------------=
