
     Program PWSCF v.6.1 (svn rev. 13369) starts on 20Dec2017 at 14: 5:30 

     This program is part of the open-source Quantum ESPRESSO suite
     for quantum simulation of materials; please cite
         "P. Giannozzi et al., J. Phys.:Condens. Matter 21 395502 (2009);
          URL http://www.quantum-espresso.org", 
     in publications or presentations arising from this work. More details at
     http://www.quantum-espresso.org/quote

     Parallel version (MPI), running on     4 processors
     R & G space division:  proc/nbgrp/npool/nimage =       4
     Waiting for input...
     Reading input from standard input

     Current dimensions of program PWSCF are:
     Max number of different atomic species (ntypx) = 10
     Max number of k-points (npk) =  40000
     Max angular momentum in pseudopotentials (lmaxx) =  3

     Subspace diagonalization in iterative solution of the eigenvalue problem:
     a serial algorithm will be used


     Parallelization info
     --------------------
     sticks:   dense  smooth     PW     G-vecs:    dense   smooth      PW
     Min         211     105     37                 4088     1441     301
     Max         212     106     38                 4091     1445     304
     Sum         847     421    151                16361     5769    1211



     bravais-lattice index     =            2
     lattice parameter (alat)  =       8.7464  a.u.
     unit-cell volume          =     167.2710 (a.u.)^3
     number of atoms/cell      =            1
     number of atomic types    =            1
     number of electrons       =         9.00
     number of Kohn-Sham states=            9
     kinetic-energy cutoff     =      40.0000  Ry
     charge density cutoff     =     320.0000  Ry
     convergence threshold     =      1.0E-08
     mixing beta               =       0.7000
     number of iterations used =            8  plain     mixing
     Exchange-correlation      = SLA  PW   PBE  PBE ( 1  4  3  4 0 0)
     nstep                     =           50


     celldm(1)=   8.746350  celldm(2)=   0.000000  celldm(3)=   0.000000
     celldm(4)=   0.000000  celldm(5)=   0.000000  celldm(6)=   0.000000

     crystal axes: (cart. coord. in units of alat)
               a(1) = (  -0.500000   0.000000   0.500000 )  
               a(2) = (   0.000000   0.500000   0.500000 )  
               a(3) = (  -0.500000   0.500000   0.000000 )  

     reciprocal axes: (cart. coord. in units 2 pi/alat)
               b(1) = ( -1.000000 -1.000000  1.000000 )  
               b(2) = (  1.000000  1.000000  1.000000 )  
               b(3) = ( -1.000000  1.000000 -1.000000 )  


     PseudoPot. # 1 for Na read from file:
     /home/s1333534/quantum_espresso/qe-6.1/pseudo/Na_pbe_v1.uspp.F.UPF
     MD5 check sum: 76a99c7e9422403d3e93cbc85ab7bccb
     Pseudo is Ultrasoft, Zval =  9.0
     Generated by new atomic code, or converted to UPF format
     Using radial grid of  819 points,  5 beta functions with: 
                l(1) =   0
                l(2) =   0
                l(3) =   1
                l(4) =   1
                l(5) =   2
     Q(r) pseudized with  8 coefficients,  rinner =    1.250   1.250   1.250
                                                       1.250   1.250

     atomic species   valence    mass     pseudopotential
        Na             9.00    22.99000     Na( 1.00)

     48 Sym. Ops., with inversion, found



   Cartesian axes

     site n.     atom                  positions (alat units)
         1           Na  tau(   1) = (   0.0000000   0.0000000   0.0000000  )

     number of k points=   770  Marzari-Vanderbilt smearing, width (Ry)=  0.0200

     Number of k-points >= 100: set verbosity='high' to print them.

     Dense  grid:    16361 G-vectors     FFT dimensions: (  36,  36,  36)

     Smooth grid:     5769 G-vectors     FFT dimensions: (  25,  25,  25)

     Estimated max dynamical RAM per process >      21.54MB

     Estimated total allocated dynamical RAM >      86.15MB

     Initial potential from superposition of free atoms

     starting charge    8.99371, renormalised to    9.00000
     Starting wfc are    5 randomized atomic wfcs +    4 random wfc

     total cpu time spent up to now is        1.8 secs

     per-process dynamical memory:    29.7 Mb

     Self-consistent Calculation

     iteration #  1     ecut=    40.00 Ry     beta=0.70
     Davidson diagonalization with overlap
     ethr =  1.00E-02,  avg # of iterations =  5.3

     Threshold (ethr) on eigenvalues was too large:
     Diagonalizing with lowered threshold

     Davidson diagonalization with overlap
     ethr =  1.50E-05,  avg # of iterations =  3.2

     total cpu time spent up to now is       10.5 secs

     total energy              =     -95.09301345 Ry
     Harris-Foulkes estimate   =     -95.09348616 Ry
     estimated scf accuracy    <       0.00134931 Ry

     iteration #  2     ecut=    40.00 Ry     beta=0.70
     Davidson diagonalization with overlap
     ethr =  1.50E-05,  avg # of iterations =  2.0

     total cpu time spent up to now is       13.5 secs

     total energy              =     -95.09318707 Ry
     Harris-Foulkes estimate   =     -95.09322624 Ry
     estimated scf accuracy    <       0.00015145 Ry

     iteration #  3     ecut=    40.00 Ry     beta=0.70
     Davidson diagonalization with overlap
     ethr =  1.68E-06,  avg # of iterations =  2.1

     total cpu time spent up to now is       16.6 secs

     total energy              =     -95.09320615 Ry
     Harris-Foulkes estimate   =     -95.09320738 Ry
     estimated scf accuracy    <       0.00000878 Ry

     iteration #  4     ecut=    40.00 Ry     beta=0.70
     Davidson diagonalization with overlap
     ethr =  9.76E-08,  avg # of iterations =  1.0

     total cpu time spent up to now is       19.2 secs

     total energy              =     -95.09320696 Ry
     Harris-Foulkes estimate   =     -95.09320689 Ry
     estimated scf accuracy    <       0.00000001 Ry

     iteration #  5     ecut=    40.00 Ry     beta=0.70
     Davidson diagonalization with overlap
     ethr =  1.34E-10,  avg # of iterations =  3.0

     total cpu time spent up to now is       22.9 secs

     End of self-consistent calculation

     Number of k-points >= 100: set verbosity='high' to print the bands.

     the Fermi energy is     3.7022 ev

!    total energy              =     -95.09320699 Ry
     Harris-Foulkes estimate   =     -95.09320699 Ry
     estimated scf accuracy    <          1.8E-09 Ry

     The total energy is the sum of the following terms:

     one-electron contribution =     -78.84552380 Ry
     hartree contribution      =      40.54044256 Ry
     xc contribution           =     -14.32765648 Ry
     ewald contribution        =     -42.46043472 Ry
     smearing contrib. (-TS)   =      -0.00003455 Ry

     convergence has been achieved in   5 iterations

     Forces acting on atoms (cartesian axes, Ry/au):

     atom    1 type  1   force =     0.00000000    0.00000000    0.00000000

     Total force =     0.000000     Total SCF correction =     0.000000


     Computing stress (Cartesian axis) and pressure

          total   stress  (Ry/bohr**3)                   (kbar)     P=   61.49
   0.00041803   0.00000000   0.00000000         61.49      0.00      0.00
   0.00000000   0.00041803  -0.00000000          0.00     61.49     -0.00
   0.00000000  -0.00000000   0.00041803          0.00     -0.00     61.49


     BFGS Geometry Optimization

     number of scf cycles    =   1
     number of bfgs steps    =   0

     enthalpy new            =     -95.0249818851 Ry

     new trust radius        =       0.0006568966 bohr
     new conv_thr            =       0.0000000100 Ry

     new unit-cell volume =    167.39844 a.u.^3 (    24.80589 Ang^3 )
     density =      1.53898 g/cm^3

CELL_PARAMETERS (alat=  8.74635011)
  -0.500126977  -0.000000000   0.500126977
   0.000000000   0.500126977   0.500126977
  -0.500126977   0.500126977  -0.000000000

ATOMIC_POSITIONS (crystal)
Na       0.000000000   0.000000000   0.000000000



     Writing output data file na.fcc.save
     NEW-OLD atomic charge density approx. for the potential
     extrapolated charge    9.00685, renormalised to    9.00000

     total cpu time spent up to now is       25.1 secs

     per-process dynamical memory:    37.7 Mb

     Self-consistent Calculation

     iteration #  1     ecut=    40.00 Ry     beta=0.70
     Davidson diagonalization with overlap
     ethr =  1.00E-06,  avg # of iterations =  2.0

     total cpu time spent up to now is       28.9 secs

     total energy              =     -95.09323039 Ry
     Harris-Foulkes estimate   =     -95.04570994 Ry
     estimated scf accuracy    <       0.00001668 Ry

     iteration #  2     ecut=    40.00 Ry     beta=0.70
     Davidson diagonalization with overlap
     ethr =  1.85E-07,  avg # of iterations =  2.9

     total cpu time spent up to now is       32.5 secs

     total energy              =     -95.09326076 Ry
     Harris-Foulkes estimate   =     -95.09327307 Ry
     estimated scf accuracy    <       0.00002807 Ry

     iteration #  3     ecut=    40.00 Ry     beta=0.70
     Davidson diagonalization with overlap
     ethr =  1.85E-07,  avg # of iterations =  1.5

     total cpu time spent up to now is       35.3 secs

     total energy              =     -95.09326113 Ry
     Harris-Foulkes estimate   =     -95.09326259 Ry
     estimated scf accuracy    <       0.00000549 Ry

     iteration #  4     ecut=    40.00 Ry     beta=0.70
     Davidson diagonalization with overlap
     ethr =  6.10E-08,  avg # of iterations =  1.0

     total cpu time spent up to now is       38.0 secs

     total energy              =     -95.09326065 Ry
     Harris-Foulkes estimate   =     -95.09326131 Ry
     estimated scf accuracy    <       0.00000240 Ry

     iteration #  5     ecut=    40.00 Ry     beta=0.70
     Davidson diagonalization with overlap
     ethr =  2.67E-08,  avg # of iterations =  1.0

     total cpu time spent up to now is       40.6 secs

     total energy              =     -95.09326034 Ry
     Harris-Foulkes estimate   =     -95.09326070 Ry
     estimated scf accuracy    <       0.00000110 Ry

     iteration #  6     ecut=    40.00 Ry     beta=0.70
     Davidson diagonalization with overlap
     ethr =  1.22E-08,  avg # of iterations =  1.0

     total cpu time spent up to now is       43.4 secs

     total energy              =     -95.09326015 Ry
     Harris-Foulkes estimate   =     -95.09326037 Ry
     estimated scf accuracy    <       0.00000040 Ry

     iteration #  7     ecut=    40.00 Ry     beta=0.70
     Davidson diagonalization with overlap
     ethr =  4.41E-09,  avg # of iterations =  2.0

     total cpu time spent up to now is       46.3 secs

     total energy              =     -95.09326019 Ry
     Harris-Foulkes estimate   =     -95.09326020 Ry
     estimated scf accuracy    <       0.00000002 Ry

     iteration #  8     ecut=    40.00 Ry     beta=0.70
     Davidson diagonalization with overlap
     ethr =  2.34E-10,  avg # of iterations =  2.0

     total cpu time spent up to now is       49.4 secs

     End of self-consistent calculation

     Number of k-points >= 100: set verbosity='high' to print the bands.

     the Fermi energy is     3.6973 ev

!    total energy              =     -95.09326019 Ry
     Harris-Foulkes estimate   =     -95.09326019 Ry
     estimated scf accuracy    <          2.7E-12 Ry

     The total energy is the sum of the following terms:

     one-electron contribution =     -78.86423455 Ry
     hartree contribution      =      40.54820132 Ry
     xc contribution           =     -14.32753798 Ry
     ewald contribution        =     -42.44965442 Ry
     smearing contrib. (-TS)   =      -0.00003456 Ry

     convergence has been achieved in   8 iterations

     Forces acting on atoms (cartesian axes, Ry/au):

     atom    1 type  1   force =     0.00000000    0.00000000    0.00000000

     Total force =     0.000000     Total SCF correction =     0.000000


     Computing stress (Cartesian axis) and pressure

          total   stress  (Ry/bohr**3)                   (kbar)     P=   61.28
   0.00041659  -0.00000000  -0.00000000         61.28     -0.00     -0.00
  -0.00000000   0.00041659   0.00000000         -0.00     61.28      0.00
  -0.00000000   0.00000000   0.00041659         -0.00      0.00     61.28


     number of scf cycles    =   2
     number of bfgs steps    =   1

     enthalpy old            =     -95.0249818851 Ry
     enthalpy new            =     -95.0249830909 Ry

     CASE: enthalpy_new < enthalpy_old


     WARNING: bfgs curvature condition failed, Theta= 0.932
     new trust radius        =       0.0007226780 bohr
     new conv_thr            =            1.0E-10 Ry

     new unit-cell volume =    167.53874 a.u.^3 (    24.82668 Ang^3 )
     density =      1.53769 g/cm^3

CELL_PARAMETERS (alat=  8.74635011)
  -0.500266653  -0.000000000   0.500266653
  -0.000000000   0.500266653   0.500266653
  -0.500266653   0.500266653   0.000000000

ATOMIC_POSITIONS (crystal)
Na       0.000000000   0.000000000   0.000000000



     Writing output data file na.fcc.save
     NEW-OLD atomic charge density approx. for the potential
     extrapolated charge    9.00753, renormalised to    9.00000

     total cpu time spent up to now is       51.6 secs

     per-process dynamical memory:    37.7 Mb

     Self-consistent Calculation

     iteration #  1     ecut=    40.00 Ry     beta=0.70
     Davidson diagonalization with overlap
     ethr =  1.00E-06,  avg # of iterations =  2.0

     total cpu time spent up to now is       55.1 secs

     total energy              =     -95.09328239 Ry
     Harris-Foulkes estimate   =     -95.04101427 Ry
     estimated scf accuracy    <       0.00002027 Ry

     iteration #  2     ecut=    40.00 Ry     beta=0.70
     Davidson diagonalization with overlap
     ethr =  2.25E-07,  avg # of iterations =  2.9

     total cpu time spent up to now is       59.0 secs

     total energy              =     -95.09331918 Ry
     Harris-Foulkes estimate   =     -95.09333410 Ry
     estimated scf accuracy    <       0.00003399 Ry

     iteration #  3     ecut=    40.00 Ry     beta=0.70
     Davidson diagonalization with overlap
     ethr =  2.25E-07,  avg # of iterations =  1.5

     total cpu time spent up to now is       61.8 secs

     total energy              =     -95.09331966 Ry
     Harris-Foulkes estimate   =     -95.09332141 Ry
     estimated scf accuracy    <       0.00000664 Ry

     iteration #  4     ecut=    40.00 Ry     beta=0.70
     Davidson diagonalization with overlap
     ethr =  7.37E-08,  avg # of iterations =  1.0

     total cpu time spent up to now is       64.5 secs

     total energy              =     -95.09331908 Ry
     Harris-Foulkes estimate   =     -95.09331988 Ry
     estimated scf accuracy    <       0.00000295 Ry

     iteration #  5     ecut=    40.00 Ry     beta=0.70
     Davidson diagonalization with overlap
     ethr =  3.28E-08,  avg # of iterations =  1.0

     total cpu time spent up to now is       67.2 secs

     total energy              =     -95.09331869 Ry
     Harris-Foulkes estimate   =     -95.09331915 Ry
     estimated scf accuracy    <       0.00000138 Ry

     iteration #  6     ecut=    40.00 Ry     beta=0.70
     Davidson diagonalization with overlap
     ethr =  1.54E-08,  avg # of iterations =  1.0

     total cpu time spent up to now is       69.8 secs

     total energy              =     -95.09331848 Ry
     Harris-Foulkes estimate   =     -95.09331873 Ry
     estimated scf accuracy    <       0.00000050 Ry

     iteration #  7     ecut=    40.00 Ry     beta=0.70
     Davidson diagonalization with overlap
     ethr =  5.50E-09,  avg # of iterations =  1.2

     total cpu time spent up to now is       72.5 secs

     total energy              =     -95.09331849 Ry
     Harris-Foulkes estimate   =     -95.09331853 Ry
     estimated scf accuracy    <       0.00000005 Ry

     iteration #  8     ecut=    40.00 Ry     beta=0.70
     Davidson diagonalization with overlap
     ethr =  5.42E-10,  avg # of iterations =  2.0

     total cpu time spent up to now is       75.8 secs

     End of self-consistent calculation

     Number of k-points >= 100: set verbosity='high' to print the bands.

     the Fermi energy is     3.6919 ev

!    total energy              =     -95.09331851 Ry
     Harris-Foulkes estimate   =     -95.09331851 Ry
     estimated scf accuracy    <          7.4E-11 Ry

     The total energy is the sum of the following terms:

     one-electron contribution =     -78.88479344 Ry
     hartree contribution      =      40.55671530 Ry
     xc contribution           =     -14.32740338 Ry
     ewald contribution        =     -42.43780241 Ry
     smearing contrib. (-TS)   =      -0.00003458 Ry

     convergence has been achieved in   8 iterations

     Forces acting on atoms (cartesian axes, Ry/au):

     atom    1 type  1   force =     0.00000000    0.00000000    0.00000000

     Total force =     0.000000     Total SCF correction =     0.000000


     Computing stress (Cartesian axis) and pressure

          total   stress  (Ry/bohr**3)                   (kbar)     P=   61.11
   0.00041540   0.00000000   0.00000000         61.11      0.00      0.00
  -0.00000000   0.00041540   0.00000000         -0.00     61.11      0.00
   0.00000000   0.00000000   0.00041540          0.00      0.00     61.11


     number of scf cycles    =   3
     number of bfgs steps    =   2

     enthalpy old            =     -95.0249830909 Ry
     enthalpy new            =     -95.0249841844 Ry

     CASE: enthalpy_new < enthalpy_old

     new trust radius        =       0.0010841684 bohr
     new conv_thr            =            1.0E-10 Ry

     new unit-cell volume =    167.74932 a.u.^3 (    24.85788 Ang^3 )
     density =      1.53576 g/cm^3

CELL_PARAMETERS (alat=  8.74635011)
  -0.500476166   0.000000000   0.500476166
  -0.000000000   0.500476166   0.500476166
  -0.500476166   0.500476166   0.000000000

ATOMIC_POSITIONS (crystal)
Na       0.000000000   0.000000000   0.000000000



     Writing output data file na.fcc.save
     NEW-OLD atomic charge density approx. for the potential
     extrapolated charge    9.01129, renormalised to    9.00000

     total cpu time spent up to now is       78.0 secs

     per-process dynamical memory:    37.7 Mb

     Self-consistent Calculation

     iteration #  1     ecut=    40.00 Ry     beta=0.70
     Davidson diagonalization with overlap
     ethr =  1.00E-06,  avg # of iterations =  2.0

     total cpu time spent up to now is       81.6 secs

     total energy              =     -95.09332421 Ry
     Harris-Foulkes estimate   =     -95.01495621 Ry
     estimated scf accuracy    <       0.00004570 Ry

     iteration #  2     ecut=    40.00 Ry     beta=0.70
     Davidson diagonalization with overlap
     ethr =  5.08E-07,  avg # of iterations =  2.9

     total cpu time spent up to now is       85.3 secs

     total energy              =     -95.09340711 Ry
     Harris-Foulkes estimate   =     -95.09344071 Ry
     estimated scf accuracy    <       0.00007655 Ry

     iteration #  3     ecut=    40.00 Ry     beta=0.70
     Davidson diagonalization with overlap
     ethr =  5.08E-07,  avg # of iterations =  1.5

     total cpu time spent up to now is       88.1 secs

     total energy              =     -95.09340818 Ry
     Harris-Foulkes estimate   =     -95.09341212 Ry
     estimated scf accuracy    <       0.00001495 Ry

     iteration #  4     ecut=    40.00 Ry     beta=0.70
     Davidson diagonalization with overlap
     ethr =  1.66E-07,  avg # of iterations =  1.0

     total cpu time spent up to now is       90.8 secs

     total energy              =     -95.09340688 Ry
     Harris-Foulkes estimate   =     -95.09340867 Ry
     estimated scf accuracy    <       0.00000663 Ry

     iteration #  5     ecut=    40.00 Ry     beta=0.70
     Davidson diagonalization with overlap
     ethr =  7.37E-08,  avg # of iterations =  1.0

     total cpu time spent up to now is       93.5 secs

     total energy              =     -95.09340598 Ry
     Harris-Foulkes estimate   =     -95.09340702 Ry
     estimated scf accuracy    <       0.00000312 Ry

     iteration #  6     ecut=    40.00 Ry     beta=0.70
     Davidson diagonalization with overlap
     ethr =  3.47E-08,  avg # of iterations =  1.0

     total cpu time spent up to now is       96.1 secs

     total energy              =     -95.09340552 Ry
     Harris-Foulkes estimate   =     -95.09340609 Ry
     estimated scf accuracy    <       0.00000111 Ry

     iteration #  7     ecut=    40.00 Ry     beta=0.70
     Davidson diagonalization with overlap
     ethr =  1.23E-08,  avg # of iterations =  1.2

     total cpu time spent up to now is       98.9 secs

     total energy              =     -95.09340555 Ry
     Harris-Foulkes estimate   =     -95.09340563 Ry
     estimated scf accuracy    <       0.00000012 Ry

     iteration #  8     ecut=    40.00 Ry     beta=0.70
     Davidson diagonalization with overlap
     ethr =  1.29E-09,  avg # of iterations =  2.0

     total cpu time spent up to now is      102.1 secs

     total energy              =     -95.09340558 Ry
     Harris-Foulkes estimate   =     -95.09340558 Ry
     estimated scf accuracy    <          1.6E-10 Ry

     iteration #  9     ecut=    40.00 Ry     beta=0.70
     Davidson diagonalization with overlap
     ethr =  1.77E-12,  avg # of iterations =  3.0

     total cpu time spent up to now is      106.0 secs

     total energy              =     -95.09340558 Ry
     Harris-Foulkes estimate   =     -95.09340558 Ry
     estimated scf accuracy    <          1.3E-09 Ry

     iteration # 10     ecut=    40.00 Ry     beta=0.70
     Davidson diagonalization with overlap
     ethr =  1.77E-12,  avg # of iterations =  2.9

     total cpu time spent up to now is      109.6 secs

     End of self-consistent calculation

     Number of k-points >= 100: set verbosity='high' to print the bands.

     the Fermi energy is     3.6838 ev

!    total energy              =     -95.09340558 Ry
     Harris-Foulkes estimate   =     -95.09340558 Ry
     estimated scf accuracy    <          1.7E-11 Ry

     The total energy is the sum of the following terms:

     one-electron contribution =     -78.91554627 Ry
     hartree contribution      =      40.56939887 Ry
     xc contribution           =     -14.32718678 Ry
     ewald contribution        =     -42.42003680 Ry
     smearing contrib. (-TS)   =      -0.00003461 Ry

     convergence has been achieved in  10 iterations

     Forces acting on atoms (cartesian axes, Ry/au):

     atom    1 type  1   force =     0.00000000    0.00000000    0.00000000

     Total force =     0.000000     Total SCF correction =     0.000000


     Computing stress (Cartesian axis) and pressure

          total   stress  (Ry/bohr**3)                   (kbar)     P=   60.68
   0.00041249  -0.00000000  -0.00000000         60.68     -0.00     -0.00
  -0.00000000   0.00041249   0.00000000         -0.00     60.68      0.00
  -0.00000000   0.00000000   0.00041249         -0.00      0.00     60.68


     number of scf cycles    =   4
     number of bfgs steps    =   3

     enthalpy old            =     -95.0249841844 Ry
     enthalpy new            =     -95.0249853689 Ry

     CASE: enthalpy_new < enthalpy_old

     new trust radius        =       0.0016265931 bohr
     new conv_thr            =            1.0E-10 Ry

     new unit-cell volume =    168.06553 a.u.^3 (    24.90474 Ang^3 )
     density =      1.53287 g/cm^3

CELL_PARAMETERS (alat=  8.74635011)
  -0.500790435   0.000000000   0.500790435
  -0.000000000   0.500790435   0.500790435
  -0.500790435   0.500790435   0.000000000

ATOMIC_POSITIONS (crystal)
Na       0.000000000   0.000000000   0.000000000



     Writing output data file na.fcc.save
     NEW-OLD atomic charge density approx. for the potential
     extrapolated charge    9.01692, renormalised to    9.00000

     total cpu time spent up to now is      111.9 secs

     per-process dynamical memory:    37.7 Mb

     Self-consistent Calculation

     iteration #  1     ecut=    40.00 Ry     beta=0.70
     Davidson diagonalization with overlap
     ethr =  1.00E-06,  avg # of iterations =  2.0

     total cpu time spent up to now is      115.6 secs

     total energy              =     -95.09335222 Ry
     Harris-Foulkes estimate   =     -94.97587709 Ry
     estimated scf accuracy    <       0.00010274 Ry

     iteration #  2     ecut=    40.00 Ry     beta=0.70
     Davidson diagonalization with overlap
     ethr =  1.14E-06,  avg # of iterations =  2.9

     total cpu time spent up to now is      119.5 secs

     total energy              =     -95.09353880 Ry
     Harris-Foulkes estimate   =     -95.09361440 Ry
     estimated scf accuracy    <       0.00017228 Ry

     iteration #  3     ecut=    40.00 Ry     beta=0.70
     Davidson diagonalization with overlap
     ethr =  1.14E-06,  avg # of iterations =  1.5

     total cpu time spent up to now is      122.3 secs

     total energy              =     -95.09354088 Ry
     Harris-Foulkes estimate   =     -95.09355008 Ry
     estimated scf accuracy    <       0.00003364 Ry

     iteration #  4     ecut=    40.00 Ry     beta=0.70
     Davidson diagonalization with overlap
     ethr =  3.74E-07,  avg # of iterations =  1.0

     total cpu time spent up to now is      125.0 secs

     total energy              =     -95.09353816 Ry
     Harris-Foulkes estimate   =     -95.09354201 Ry
     estimated scf accuracy    <       0.00001440 Ry

     iteration #  5     ecut=    40.00 Ry     beta=0.70
     Davidson diagonalization with overlap
     ethr =  1.60E-07,  avg # of iterations =  1.0

     total cpu time spent up to now is      127.6 secs

     total energy              =     -95.09353628 Ry
     Harris-Foulkes estimate   =     -95.09353846 Ry
     estimated scf accuracy    <       0.00000681 Ry

     iteration #  6     ecut=    40.00 Ry     beta=0.70
     Davidson diagonalization with overlap
     ethr =  7.56E-08,  avg # of iterations =  1.0

     total cpu time spent up to now is      130.3 secs

     total energy              =     -95.09353512 Ry
     Harris-Foulkes estimate   =     -95.09353649 Ry
     estimated scf accuracy    <       0.00000258 Ry

     iteration #  7     ecut=    40.00 Ry     beta=0.70
     Davidson diagonalization with overlap
     ethr =  2.87E-08,  avg # of iterations =  1.4

     total cpu time spent up to now is      133.1 secs

     total energy              =     -95.09353526 Ry
     Harris-Foulkes estimate   =     -95.09353540 Ry
     estimated scf accuracy    <       0.00000022 Ry

     iteration #  8     ecut=    40.00 Ry     beta=0.70
     Davidson diagonalization with overlap
     ethr =  2.41E-09,  avg # of iterations =  2.0

     total cpu time spent up to now is      136.3 secs

     total energy              =     -95.09353531 Ry
     Harris-Foulkes estimate   =     -95.09353531 Ry
     estimated scf accuracy    <          1.3E-09 Ry

     iteration #  9     ecut=    40.00 Ry     beta=0.70
     Davidson diagonalization with overlap
     ethr =  1.48E-11,  avg # of iterations =  2.0

     total cpu time spent up to now is      139.6 secs

     total energy              =     -95.09353531 Ry
     Harris-Foulkes estimate   =     -95.09353531 Ry
     estimated scf accuracy    <          1.2E-09 Ry

     iteration # 10     ecut=    40.00 Ry     beta=0.70
     Davidson diagonalization with overlap
     ethr =  1.34E-11,  avg # of iterations =  2.0

     total cpu time spent up to now is      142.8 secs

     total energy              =     -95.09353531 Ry
     Harris-Foulkes estimate   =     -95.09353531 Ry
     estimated scf accuracy    <          1.6E-10 Ry

     iteration # 11     ecut=    40.00 Ry     beta=0.70
     Davidson diagonalization with overlap
     ethr =  1.73E-12,  avg # of iterations =  2.0

     total cpu time spent up to now is      146.0 secs

     End of self-consistent calculation

     Number of k-points >= 100: set verbosity='high' to print the bands.

     the Fermi energy is     3.6717 ev

!    total energy              =     -95.09353531 Ry
     Harris-Foulkes estimate   =     -95.09353531 Ry
     estimated scf accuracy    <          1.9E-11 Ry

     The total energy is the sum of the following terms:

     one-electron contribution =     -78.96162371 Ry
     hartree contribution      =      40.58840010 Ry
     xc contribution           =     -14.32686080 Ry
     ewald contribution        =     -42.39341625 Ry
     smearing contrib. (-TS)   =      -0.00003464 Ry

     convergence has been achieved in  11 iterations

     Forces acting on atoms (cartesian axes, Ry/au):

     atom    1 type  1   force =     0.00000000    0.00000000    0.00000000

     Total force =     0.000000     Total SCF correction =     0.000000


     Computing stress (Cartesian axis) and pressure

          total   stress  (Ry/bohr**3)                   (kbar)     P=   60.02
   0.00040801  -0.00000000  -0.00000000         60.02     -0.00     -0.00
  -0.00000000   0.00040801   0.00000000         -0.00     60.02      0.00
  -0.00000000   0.00000000   0.00040801         -0.00      0.00     60.02


     bfgs converged in   5 scf cycles and   4 bfgs steps
     (criteria: energy <  1.0E-04 Ry, force <  1.0E-03Ry/Bohr, cell <  5.0E-01kbar)

     End of BFGS Geometry Optimization

     Final enthalpy =     -95.0249861220 Ry
Begin final coordinates
     new unit-cell volume =    168.06553 a.u.^3 (    24.90474 Ang^3 )
     density =      1.53287 g/cm^3

CELL_PARAMETERS (alat=  8.74635011)
  -0.500790435   0.000000000   0.500790435
  -0.000000000   0.500790435   0.500790435
  -0.500790435   0.500790435   0.000000000

ATOMIC_POSITIONS (crystal)
Na       0.000000000   0.000000000   0.000000000
End final coordinates



     A final scf calculation at the relaxed structure.
     The G-vectors are recalculated for the final unit cell
     Results may differ from those at the preceding step.

     Parallelization info
     --------------------
     sticks:   dense  smooth     PW     G-vecs:    dense   smooth      PW
     Min         211     105     37                 4088     1441     309
     Max         212     106     38                 4091     1445     312
     Sum         847     421    151                16361     5769    1243



     bravais-lattice index     =            2
     lattice parameter (alat)  =       8.7464  a.u.
     unit-cell volume          =     168.0655 (a.u.)^3
     number of atoms/cell      =            1
     number of atomic types    =            1
     number of electrons       =         9.00
     number of Kohn-Sham states=            9
     kinetic-energy cutoff     =      40.0000  Ry
     charge density cutoff     =     320.0000  Ry
     convergence threshold     =      1.0E-10
     mixing beta               =       0.7000
     number of iterations used =            8  plain     mixing
     Exchange-correlation      = SLA  PW   PBE  PBE ( 1  4  3  4 0 0)

     celldm(1)=   8.746350  celldm(2)=   0.000000  celldm(3)=   0.000000
     celldm(4)=   0.000000  celldm(5)=   0.000000  celldm(6)=   0.000000

     crystal axes: (cart. coord. in units of alat)
               a(1) = (  -0.500790   0.000000   0.500790 )  
               a(2) = (  -0.000000   0.500790   0.500790 )  
               a(3) = (  -0.500790   0.500790   0.000000 )  

     reciprocal axes: (cart. coord. in units 2 pi/alat)
               b(1) = ( -0.998422 -0.998422  0.998422 )  
               b(2) = (  0.998422  0.998422  0.998422 )  
               b(3) = ( -0.998422  0.998422 -0.998422 )  


     PseudoPot. # 1 for Na read from file:
     /home/s1333534/quantum_espresso/qe-6.1/pseudo/Na_pbe_v1.uspp.F.UPF
     MD5 check sum: 76a99c7e9422403d3e93cbc85ab7bccb
     Pseudo is Ultrasoft, Zval =  9.0
     Generated by new atomic code, or converted to UPF format
     Using radial grid of  819 points,  5 beta functions with: 
                l(1) =   0
                l(2) =   0
                l(3) =   1
                l(4) =   1
                l(5) =   2
     Q(r) pseudized with  8 coefficients,  rinner =    1.250   1.250   1.250
                                                       1.250   1.250

     atomic species   valence    mass     pseudopotential
        Na             9.00    22.99000     Na( 1.00)

     48 Sym. Ops., with inversion, found



   Cartesian axes

     site n.     atom                  positions (alat units)
         1           Na  tau(   1) = (  -0.0000000   0.0000000   0.0000000  )

     number of k points=   770  Marzari-Vanderbilt smearing, width (Ry)=  0.0200

     Number of k-points >= 100: set verbosity='high' to print them.

     Dense  grid:    16361 G-vectors     FFT dimensions: (  36,  36,  36)

     Smooth grid:     5769 G-vectors     FFT dimensions: (  25,  25,  25)

     Estimated max dynamical RAM per process >      21.64MB

     Estimated total allocated dynamical RAM >      86.58MB

     Initial potential from superposition of free atoms

     starting charge    8.99371, renormalised to    9.00000
     Starting wfc are    5 randomized atomic wfcs +    4 random wfc

     Writing output data file na.fcc.save

     total cpu time spent up to now is      149.7 secs

     per-process dynamical memory:    38.1 Mb

     Self-consistent Calculation

     iteration #  1     ecut=    40.00 Ry     beta=0.70
     Davidson diagonalization with overlap
     ethr =  1.00E-06,  avg # of iterations = 10.4

     total cpu time spent up to now is      158.9 secs

     total energy              =     -95.09335855 Ry
     Harris-Foulkes estimate   =     -95.09384296 Ry
     estimated scf accuracy    <       0.00134539 Ry

     iteration #  2     ecut=    40.00 Ry     beta=0.70
     Davidson diagonalization with overlap
     ethr =  1.49E-05,  avg # of iterations =  2.0

     total cpu time spent up to now is      162.0 secs

     total energy              =     -95.09353658 Ry
     Harris-Foulkes estimate   =     -95.09357845 Ry
     estimated scf accuracy    <       0.00015487 Ry

     iteration #  3     ecut=    40.00 Ry     beta=0.70
     Davidson diagonalization with overlap
     ethr =  1.72E-06,  avg # of iterations =  2.0

     total cpu time spent up to now is      165.2 secs

     total energy              =     -95.09355528 Ry
     Harris-Foulkes estimate   =     -95.09355671 Ry
     estimated scf accuracy    <       0.00000911 Ry

     iteration #  4     ecut=    40.00 Ry     beta=0.70
     Davidson diagonalization with overlap
     ethr =  1.01E-07,  avg # of iterations =  1.0

     total cpu time spent up to now is      167.9 secs

     total energy              =     -95.09355608 Ry
     Harris-Foulkes estimate   =     -95.09355603 Ry
     estimated scf accuracy    <       0.00000001 Ry

     iteration #  5     ecut=    40.00 Ry     beta=0.70
     Davidson diagonalization with overlap
     ethr =  1.23E-10,  avg # of iterations =  3.0

     total cpu time spent up to now is      171.6 secs

     total energy              =     -95.09355612 Ry
     Harris-Foulkes estimate   =     -95.09355611 Ry
     estimated scf accuracy    <          1.5E-09 Ry

     iteration #  6     ecut=    40.00 Ry     beta=0.70
     Davidson diagonalization with overlap
     ethr =  1.65E-11,  avg # of iterations =  1.6

     total cpu time spent up to now is      174.4 secs

     End of self-consistent calculation

     Number of k-points >= 100: set verbosity='high' to print the bands.

     the Fermi energy is     3.6717 ev

!    total energy              =     -95.09355612 Ry
     Harris-Foulkes estimate   =     -95.09355612 Ry
     estimated scf accuracy    <          4.8E-11 Ry

     The total energy is the sum of the following terms:

     one-electron contribution =     -78.96169746 Ry
     hartree contribution      =      40.58846921 Ry
     xc contribution           =     -14.32687696 Ry
     ewald contribution        =     -42.39341625 Ry
     smearing contrib. (-TS)   =      -0.00003464 Ry

     convergence has been achieved in   6 iterations

     Forces acting on atoms (cartesian axes, Ry/au):

     atom    1 type  1   force =     0.00000000    0.00000000    0.00000000

     Total force =     0.000000     Total SCF correction =     0.000000


     Computing stress (Cartesian axis) and pressure

          total   stress  (Ry/bohr**3)                   (kbar)     P=   60.24
   0.00040947  -0.00000000   0.00000000         60.24     -0.00      0.00
   0.00000000   0.00040947  -0.00000000          0.00     60.24     -0.00
   0.00000000  -0.00000000   0.00040947          0.00     -0.00     60.24


     Writing output data file na.fcc.save

     init_run     :      2.56s CPU      2.83s WALL (       2 calls)
     electrons    :    143.57s CPU    160.15s WALL (       6 calls)
     update_pot   :      0.62s CPU      0.64s WALL (       4 calls)
     forces       :      1.17s CPU      1.21s WALL (       6 calls)
     stress       :      6.37s CPU      6.57s WALL (       6 calls)

     Called by init_run:
     wfcinit      :      1.92s CPU      2.16s WALL (       2 calls)
     potinit      :      0.06s CPU      0.07s WALL (       2 calls)

     Called by electrons:
     c_bands      :    119.38s CPU    133.38s WALL (      49 calls)
     sum_band     :     23.29s CPU     25.83s WALL (      49 calls)
     v_of_rho     :      0.44s CPU      0.45s WALL (      54 calls)
     newd         :      0.50s CPU      0.52s WALL (      54 calls)
     mix_rho      :      0.03s CPU      0.03s WALL (      49 calls)

     Called by c_bands:
     init_us_2    :      7.34s CPU      6.71s WALL (   86240 calls)
     cegterg      :    112.91s CPU    126.67s WALL (   37730 calls)

     Called by sum_band:
     sum_band:bec :      0.10s CPU      0.13s WALL (   37730 calls)
     addusdens    :      0.59s CPU      0.63s WALL (      49 calls)

     Called by *egterg:
     h_psi        :     89.98s CPU    100.94s WALL (  116105 calls)
     s_psi        :      1.28s CPU      1.32s WALL (  116105 calls)
     g_psi        :      0.56s CPU      0.77s WALL (   76835 calls)
     cdiaghg      :     14.68s CPU     15.35s WALL (  110715 calls)

     Called by h_psi:
     h_psi:pot    :     89.57s CPU    100.40s WALL (  116105 calls)
     h_psi:calbec :      1.91s CPU      2.25s WALL (  116105 calls)
     vloc_psi     :     86.30s CPU     96.37s WALL (  116105 calls)
     add_vuspsi   :      1.18s CPU      1.49s WALL (  116105 calls)

     General routines
     calbec       :      2.95s CPU      3.38s WALL (  176935 calls)
     fft          :      0.22s CPU      0.23s WALL (     896 calls)
     ffts         :      0.01s CPU      0.01s WALL (     103 calls)
     fftw         :     92.59s CPU    100.60s WALL ( 2023702 calls)
     interpolate  :      0.03s CPU      0.03s WALL (     103 calls)
     davcio       :      0.01s CPU      0.01s WALL (    1540 calls)

     Parallel routines
     fft_scatter  :     23.15s CPU     27.97s WALL ( 2024701 calls)

     PWSCF        :  2m38.45s CPU     2m56.83s WALL


   This run was terminated on:  14: 8:27  20Dec2017            

=------------------------------------------------------------------------------=
   JOB DONE.
=------------------------------------------------------------------------------=
