
     Program PWSCF v.6.1 (svn rev. 13369) starts on 26Jan2018 at 18:45:49 

     This program is part of the open-source Quantum ESPRESSO suite
     for quantum simulation of materials; please cite
         "P. Giannozzi et al., J. Phys.:Condens. Matter 21 395502 (2009);
          URL http://www.quantum-espresso.org", 
     in publications or presentations arising from this work. More details at
     http://www.quantum-espresso.org/quote

     Parallel version (MPI), running on     4 processors
     R & G space division:  proc/nbgrp/npool/nimage =       4
     Waiting for input...
     Reading input from standard input

     Current dimensions of program PWSCF are:
     Max number of different atomic species (ntypx) = 10
     Max number of k-points (npk) =  40000
     Max angular momentum in pseudopotentials (lmaxx) =  3

     Subspace diagonalization in iterative solution of the eigenvalue problem:
     a serial algorithm will be used


     Parallelization info
     --------------------
     sticks:   dense  smooth     PW     G-vecs:    dense   smooth      PW
     Min         266     129     42                 5724     1996     367
     Max         268     130     43                 5725     1999     368
     Sum        1069     517    169                22899     7991    1471



     bravais-lattice index     =            2
     lattice parameter (alat)  =       9.8039  a.u.
     unit-cell volume          =     235.5807 (a.u.)^3
     number of atoms/cell      =            1
     number of atomic types    =            1
     number of electrons       =         9.00
     number of Kohn-Sham states=            9
     kinetic-energy cutoff     =      40.0000  Ry
     charge density cutoff     =     320.0000  Ry
     convergence threshold     =      1.0E-10
     mixing beta               =       0.7000
     number of iterations used =            8  plain     mixing
     Exchange-correlation      = SLA  PW   PBE  PBE ( 1  4  3  4 0 0)
     nstep                     =           50


     celldm(1)=   9.803924  celldm(2)=   0.000000  celldm(3)=   0.000000
     celldm(4)=   0.000000  celldm(5)=   0.000000  celldm(6)=   0.000000

     crystal axes: (cart. coord. in units of alat)
               a(1) = (  -0.500000   0.000000   0.500000 )  
               a(2) = (   0.000000   0.500000   0.500000 )  
               a(3) = (  -0.500000   0.500000   0.000000 )  

     reciprocal axes: (cart. coord. in units 2 pi/alat)
               b(1) = ( -1.000000 -1.000000  1.000000 )  
               b(2) = (  1.000000  1.000000  1.000000 )  
               b(3) = ( -1.000000  1.000000 -1.000000 )  


     PseudoPot. # 1 for Na read from file:
     /home/s1333534/quantum_espresso/qe-6.1/pseudo/Na_pbe_v1.uspp.F.UPF
     MD5 check sum: 76a99c7e9422403d3e93cbc85ab7bccb
     Pseudo is Ultrasoft, Zval =  9.0
     Generated by new atomic code, or converted to UPF format
     Using radial grid of  819 points,  5 beta functions with: 
                l(1) =   0
                l(2) =   0
                l(3) =   1
                l(4) =   1
                l(5) =   2
     Q(r) pseudized with  8 coefficients,  rinner =    1.250   1.250   1.250
                                                       1.250   1.250

     atomic species   valence    mass     pseudopotential
        Na             9.00    22.99000     Na( 1.00)

     48 Sym. Ops., with inversion, found



   Cartesian axes

     site n.     atom                  positions (alat units)
         1           Na  tau(   1) = (   0.0000000   0.0000000   0.0000000  )

     number of k points=   280  Marzari-Vanderbilt smearing, width (Ry)=  0.0200

     Number of k-points >= 100: set verbosity='high' to print them.

     Dense  grid:    22899 G-vectors     FFT dimensions: (  40,  40,  40)

     Smooth grid:     7991 G-vectors     FFT dimensions: (  27,  27,  27)

     Estimated max dynamical RAM per process >      13.42MB

     Estimated total allocated dynamical RAM >      53.66MB

     Initial potential from superposition of free atoms

     starting charge    8.99371, renormalised to    9.00000
     Starting wfc are    5 randomized atomic wfcs +    4 random wfc

     total cpu time spent up to now is        1.1 secs

     per-process dynamical memory:    20.6 Mb

     Self-consistent Calculation

     iteration #  1     ecut=    40.00 Ry     beta=0.70
     Davidson diagonalization with overlap
     ethr =  1.00E-02,  avg # of iterations =  5.4

     Threshold (ethr) on eigenvalues was too large:
     Diagonalizing with lowered threshold

     Davidson diagonalization with overlap
     ethr =  1.01E-05,  avg # of iterations =  4.0

     total cpu time spent up to now is        6.0 secs

     total energy              =     -95.10621597 Ry
     Harris-Foulkes estimate   =     -95.10644501 Ry
     estimated scf accuracy    <       0.00090360 Ry

     iteration #  2     ecut=    40.00 Ry     beta=0.70
     Davidson diagonalization with overlap
     ethr =  1.00E-05,  avg # of iterations =  2.0

     total cpu time spent up to now is        7.7 secs

     total energy              =     -95.10631844 Ry
     Harris-Foulkes estimate   =     -95.10634103 Ry
     estimated scf accuracy    <       0.00009898 Ry

     iteration #  3     ecut=    40.00 Ry     beta=0.70
     Davidson diagonalization with overlap
     ethr =  1.10E-06,  avg # of iterations =  2.1

     total cpu time spent up to now is        9.4 secs

     total energy              =     -95.10633035 Ry
     Harris-Foulkes estimate   =     -95.10633141 Ry
     estimated scf accuracy    <       0.00000593 Ry

     iteration #  4     ecut=    40.00 Ry     beta=0.70
     Davidson diagonalization with overlap
     ethr =  6.59E-08,  avg # of iterations =  1.0

     total cpu time spent up to now is       10.9 secs

     total energy              =     -95.10633091 Ry
     Harris-Foulkes estimate   =     -95.10633086 Ry
     estimated scf accuracy    <       0.00000001 Ry

     iteration #  5     ecut=    40.00 Ry     beta=0.70
     Davidson diagonalization with overlap
     ethr =  1.15E-10,  avg # of iterations =  3.0

     total cpu time spent up to now is       13.0 secs

     total energy              =     -95.10633095 Ry
     Harris-Foulkes estimate   =     -95.10633094 Ry
     estimated scf accuracy    <          1.6E-09 Ry

     iteration #  6     ecut=    40.00 Ry     beta=0.70
     Davidson diagonalization with overlap
     ethr =  1.78E-11,  avg # of iterations =  1.6

     total cpu time spent up to now is       14.5 secs

     End of self-consistent calculation

     Number of k-points >= 100: set verbosity='high' to print the bands.

     the Fermi energy is     1.8607 ev

!    total energy              =     -95.10633095 Ry
     Harris-Foulkes estimate   =     -95.10633095 Ry
     estimated scf accuracy    <          1.3E-11 Ry

     The total energy is the sum of the following terms:

     one-electron contribution =     -86.82770237 Ry
     hartree contribution      =      43.87793864 Ry
     xc contribution           =     -14.27637263 Ry
     ewald contribution        =     -37.88012230 Ry
     smearing contrib. (-TS)   =      -0.00007228 Ry

     convergence has been achieved in   6 iterations

     Forces acting on atoms (cartesian axes, Ry/au):

     atom    1 type  1   force =     0.00000000    0.00000000    0.00000000

     Total force =     0.000000     Total SCF correction =     0.000000


     Computing stress (Cartesian axis) and pressure

          total   stress  (Ry/bohr**3)                   (kbar)     P=    2.24
   0.00001525   0.00000000   0.00000000          2.24      0.00      0.00
   0.00000000   0.00001525  -0.00000000          0.00      2.24     -0.00
   0.00000000  -0.00000000   0.00001525          0.00     -0.00      2.24


     BFGS Geometry Optimization

     number of scf cycles    =   1
     number of bfgs steps    =   0

     enthalpy new            =     -95.1063309459 Ry

     new trust radius        =       0.0011705232 bohr
     new conv_thr            =            1.0E-10 Ry

     new unit-cell volume =    235.85033 a.u.^3 (    34.94941 Ang^3 )
     density =      1.09232 g/cm^3

CELL_PARAMETERS (alat=  9.80392368)
  -0.500190656  -0.000000000   0.500190656
   0.000000000   0.500190656   0.500190656
  -0.500190656   0.500190656  -0.000000000

ATOMIC_POSITIONS (crystal)
Na       0.000000000   0.000000000   0.000000000



     Writing output data file na.fcc.save
     NEW-OLD atomic charge density approx. for the potential
     extrapolated charge    9.01028, renormalised to    9.00000

     total cpu time spent up to now is       15.9 secs

     per-process dynamical memory:    31.3 Mb

     Self-consistent Calculation

     iteration #  1     ecut=    40.00 Ry     beta=0.70
     Davidson diagonalization with overlap
     ethr =  1.00E-06,  avg # of iterations =  2.0

     total cpu time spent up to now is       17.9 secs

     total energy              =     -95.10626510 Ry
     Harris-Foulkes estimate   =     -95.02724105 Ry
     estimated scf accuracy    <       0.00003902 Ry

     iteration #  2     ecut=    40.00 Ry     beta=0.70
     Davidson diagonalization with overlap
     ethr =  4.34E-07,  avg # of iterations =  3.0

     total cpu time spent up to now is       19.9 secs

     total energy              =     -95.10633626 Ry
     Harris-Foulkes estimate   =     -95.10636495 Ry
     estimated scf accuracy    <       0.00006536 Ry

     iteration #  3     ecut=    40.00 Ry     beta=0.70
     Davidson diagonalization with overlap
     ethr =  4.34E-07,  avg # of iterations =  1.6

     total cpu time spent up to now is       21.5 secs

     total energy              =     -95.10633679 Ry
     Harris-Foulkes estimate   =     -95.10634051 Ry
     estimated scf accuracy    <       0.00001283 Ry

     iteration #  4     ecut=    40.00 Ry     beta=0.70
     Davidson diagonalization with overlap
     ethr =  1.43E-07,  avg # of iterations =  1.0

     total cpu time spent up to now is       23.0 secs

     total energy              =     -95.10633566 Ry
     Harris-Foulkes estimate   =     -95.10633730 Ry
     estimated scf accuracy    <       0.00000510 Ry

     iteration #  5     ecut=    40.00 Ry     beta=0.70
     Davidson diagonalization with overlap
     ethr =  5.66E-08,  avg # of iterations =  1.0

     total cpu time spent up to now is       24.5 secs

     total energy              =     -95.10633521 Ry
     Harris-Foulkes estimate   =     -95.10633582 Ry
     estimated scf accuracy    <       0.00000194 Ry

     iteration #  6     ecut=    40.00 Ry     beta=0.70
     Davidson diagonalization with overlap
     ethr =  2.15E-08,  avg # of iterations =  1.0

     total cpu time spent up to now is       26.0 secs

     total energy              =     -95.10633477 Ry
     Harris-Foulkes estimate   =     -95.10633527 Ry
     estimated scf accuracy    <       0.00000074 Ry

     iteration #  7     ecut=    40.00 Ry     beta=0.70
     Davidson diagonalization with overlap
     ethr =  8.23E-09,  avg # of iterations =  2.0

     total cpu time spent up to now is       27.8 secs

     total energy              =     -95.10633493 Ry
     Harris-Foulkes estimate   =     -95.10633493 Ry
     estimated scf accuracy    <          1.3E-10 Ry

     iteration #  8     ecut=    40.00 Ry     beta=0.70
     Davidson diagonalization with overlap
     ethr =  1.41E-12,  avg # of iterations =  3.0

     total cpu time spent up to now is       29.9 secs

     total energy              =     -95.10633493 Ry
     Harris-Foulkes estimate   =     -95.10633493 Ry
     estimated scf accuracy    <          9.8E-09 Ry

     iteration #  9     ecut=    40.00 Ry     beta=0.70
     Davidson diagonalization with overlap
     ethr =  1.41E-12,  avg # of iterations =  3.0

     total cpu time spent up to now is       32.0 secs

     total energy              =     -95.10633493 Ry
     Harris-Foulkes estimate   =     -95.10633493 Ry
     estimated scf accuracy    <          5.9E-10 Ry

     iteration # 10     ecut=    40.00 Ry     beta=0.70
     Davidson diagonalization with overlap
     ethr =  1.41E-12,  avg # of iterations =  2.0

     total cpu time spent up to now is       33.8 secs

     End of self-consistent calculation

     Number of k-points >= 100: set verbosity='high' to print the bands.

     the Fermi energy is     1.8557 ev

!    total energy              =     -95.10633493 Ry
     Harris-Foulkes estimate   =     -95.10633493 Ry
     estimated scf accuracy    <          5.6E-11 Ry

     The total energy is the sum of the following terms:

     one-electron contribution =     -86.85296841 Ry
     hartree contribution      =      43.88859888 Ry
     xc contribution           =     -14.27620945 Ry
     ewald contribution        =     -37.86568367 Ry
     smearing contrib. (-TS)   =      -0.00007228 Ry

     convergence has been achieved in  10 iterations

     Forces acting on atoms (cartesian axes, Ry/au):

     atom    1 type  1   force =     0.00000000    0.00000000    0.00000000

     Total force =     0.000000     Total SCF correction =     0.000000


     Computing stress (Cartesian axis) and pressure

          total   stress  (Ry/bohr**3)                   (kbar)     P=    2.05
   0.00001392  -0.00000000  -0.00000000          2.05     -0.00     -0.00
   0.00000000   0.00001392   0.00000000          0.00      2.05      0.00
  -0.00000000   0.00000000   0.00001392         -0.00      0.00      2.05


     number of scf cycles    =   2
     number of bfgs steps    =   1

     enthalpy old            =     -95.1063309459 Ry
     enthalpy new            =     -95.1063349303 Ry

     CASE: enthalpy_new < enthalpy_old


     WARNING: bfgs curvature condition failed, Theta= 0.876
     new trust radius        =       0.0012878210 bohr
     new conv_thr            =            1.0E-12 Ry

     new unit-cell volume =    236.14712 a.u.^3 (    34.99339 Ang^3 )
     density =      1.09094 g/cm^3

CELL_PARAMETERS (alat=  9.80392368)
  -0.500400377  -0.000000000   0.500400377
   0.000000000   0.500400377   0.500400377
  -0.500400377   0.500400377  -0.000000000

ATOMIC_POSITIONS (crystal)
Na       0.000000000   0.000000000   0.000000000



     Writing output data file na.fcc.save
     NEW-OLD atomic charge density approx. for the potential
     extrapolated charge    9.01130, renormalised to    9.00000

     total cpu time spent up to now is       35.2 secs

     per-process dynamical memory:    31.3 Mb

     Self-consistent Calculation

     iteration #  1     ecut=    40.00 Ry     beta=0.70
     Davidson diagonalization with overlap
     ethr =  1.00E-06,  avg # of iterations =  2.0

     total cpu time spent up to now is       37.2 secs

     total energy              =     -95.10625467 Ry
     Harris-Foulkes estimate   =     -95.01934413 Ry
     estimated scf accuracy    <       0.00004709 Ry

     iteration #  2     ecut=    40.00 Ry     beta=0.70
     Davidson diagonalization with overlap
     ethr =  5.23E-07,  avg # of iterations =  2.9

     total cpu time spent up to now is       39.2 secs

     total energy              =     -95.10634067 Ry
     Harris-Foulkes estimate   =     -95.10637534 Ry
     estimated scf accuracy    <       0.00007901 Ry

     iteration #  3     ecut=    40.00 Ry     beta=0.70
     Davidson diagonalization with overlap
     ethr =  5.23E-07,  avg # of iterations =  1.6

     total cpu time spent up to now is       40.8 secs

     total energy              =     -95.10634128 Ry
     Harris-Foulkes estimate   =     -95.10634581 Ry
     estimated scf accuracy    <       0.00001554 Ry

     iteration #  4     ecut=    40.00 Ry     beta=0.70
     Davidson diagonalization with overlap
     ethr =  1.73E-07,  avg # of iterations =  1.0

     total cpu time spent up to now is       42.3 secs

     total energy              =     -95.10633991 Ry
     Harris-Foulkes estimate   =     -95.10634190 Ry
     estimated scf accuracy    <       0.00000614 Ry

     iteration #  5     ecut=    40.00 Ry     beta=0.70
     Davidson diagonalization with overlap
     ethr =  6.82E-08,  avg # of iterations =  1.0

     total cpu time spent up to now is       43.8 secs

     total energy              =     -95.10633937 Ry
     Harris-Foulkes estimate   =     -95.10634011 Ry
     estimated scf accuracy    <       0.00000231 Ry

     iteration #  6     ecut=    40.00 Ry     beta=0.70
     Davidson diagonalization with overlap
     ethr =  2.56E-08,  avg # of iterations =  1.0

     total cpu time spent up to now is       45.2 secs

     total energy              =     -95.10633889 Ry
     Harris-Foulkes estimate   =     -95.10633945 Ry
     estimated scf accuracy    <       0.00000087 Ry

     iteration #  7     ecut=    40.00 Ry     beta=0.70
     Davidson diagonalization with overlap
     ethr =  9.66E-09,  avg # of iterations =  2.0

     total cpu time spent up to now is       47.0 secs

     total energy              =     -95.10633905 Ry
     Harris-Foulkes estimate   =     -95.10633905 Ry
     estimated scf accuracy    <          2.8E-09 Ry

     iteration #  8     ecut=    40.00 Ry     beta=0.70
     Davidson diagonalization with overlap
     ethr =  3.07E-11,  avg # of iterations =  2.3

     total cpu time spent up to now is       48.9 secs

     total energy              =     -95.10633905 Ry
     Harris-Foulkes estimate   =     -95.10633905 Ry
     estimated scf accuracy    <          4.2E-09 Ry

     iteration #  9     ecut=    40.00 Ry     beta=0.70
     Davidson diagonalization with overlap
     ethr =  3.07E-11,  avg # of iterations =  2.0

     total cpu time spent up to now is       50.6 secs

     total energy              =     -95.10633905 Ry
     Harris-Foulkes estimate   =     -95.10633905 Ry
     estimated scf accuracy    <          5.3E-10 Ry

     iteration # 10     ecut=    40.00 Ry     beta=0.70
     Davidson diagonalization with overlap
     ethr =  5.94E-12,  avg # of iterations =  2.0

     total cpu time spent up to now is       52.4 secs

     total energy              =     -95.10633905 Ry
     Harris-Foulkes estimate   =     -95.10633905 Ry
     estimated scf accuracy    <          3.5E-11 Ry

     iteration # 11     ecut=    40.00 Ry     beta=0.70
     Davidson diagonalization with overlap
     ethr =  3.94E-13,  avg # of iterations =  2.0

     total cpu time spent up to now is       54.1 secs

     End of self-consistent calculation

     Number of k-points >= 100: set verbosity='high' to print the bands.

     the Fermi energy is     1.8501 ev

!    total energy              =     -95.10633905 Ry
     Harris-Foulkes estimate   =     -95.10633905 Ry
     estimated scf accuracy    <          3.2E-13 Ry

     The total energy is the sum of the following terms:

     one-electron contribution =     -86.88081574 Ry
     hartree contribution      =      43.90041022 Ry
     xc contribution           =     -14.27604737 Ry
     ewald contribution        =     -37.84981389 Ry
     smearing contrib. (-TS)   =      -0.00007228 Ry

     convergence has been achieved in  11 iterations

     Forces acting on atoms (cartesian axes, Ry/au):

     atom    1 type  1   force =     0.00000000    0.00000000    0.00000000

     Total force =     0.000000     Total SCF correction =     0.000000


     Computing stress (Cartesian axis) and pressure

          total   stress  (Ry/bohr**3)                   (kbar)     P=    1.97
   0.00001342   0.00000000  -0.00000000          1.97      0.00     -0.00
   0.00000000   0.00001342  -0.00000000          0.00      1.97     -0.00
  -0.00000000   0.00000000   0.00001342         -0.00      0.00      1.97


     number of scf cycles    =   3
     number of bfgs steps    =   2

     enthalpy old            =     -95.1063349303 Ry
     enthalpy new            =     -95.1063390495 Ry

     CASE: enthalpy_new < enthalpy_old

     new trust radius        =       0.0019321364 bohr
     new conv_thr            =            1.0E-12 Ry

     new unit-cell volume =    236.59277 a.u.^3 (    35.05943 Ang^3 )
     density =      1.08889 g/cm^3

CELL_PARAMETERS (alat=  9.80392368)
  -0.500714959  -0.000000000   0.500714959
   0.000000000   0.500714959   0.500714959
  -0.500714959   0.500714959  -0.000000000

ATOMIC_POSITIONS (crystal)
Na       0.000000000   0.000000000   0.000000000



     Writing output data file na.fcc.save
     NEW-OLD atomic charge density approx. for the potential
     extrapolated charge    9.01694, renormalised to    9.00000

     total cpu time spent up to now is       55.5 secs

     per-process dynamical memory:    31.3 Mb

     Self-consistent Calculation

     iteration #  1     ecut=    40.00 Ry     beta=0.70
     Davidson diagonalization with overlap
     ethr =  1.00E-06,  avg # of iterations =  2.0

     total cpu time spent up to now is       57.6 secs

     total energy              =     -95.10615456 Ry
     Harris-Foulkes estimate   =     -94.97588166 Ry
     estimated scf accuracy    <       0.00010622 Ry

     iteration #  2     ecut=    40.00 Ry     beta=0.70
     Davidson diagonalization with overlap
     ethr =  1.18E-06,  avg # of iterations =  2.9

     total cpu time spent up to now is       59.7 secs

     total energy              =     -95.10634837 Ry
     Harris-Foulkes estimate   =     -95.10642650 Ry
     estimated scf accuracy    <       0.00017797 Ry

     iteration #  3     ecut=    40.00 Ry     beta=0.70
     Davidson diagonalization with overlap
     ethr =  1.18E-06,  avg # of iterations =  1.6

     total cpu time spent up to now is       61.3 secs

     total energy              =     -95.10634939 Ry
     Harris-Foulkes estimate   =     -95.10635998 Ry
     estimated scf accuracy    <       0.00003490 Ry

     iteration #  4     ecut=    40.00 Ry     beta=0.70
     Davidson diagonalization with overlap
     ethr =  3.88E-07,  avg # of iterations =  1.0

     total cpu time spent up to now is       62.8 secs

     total energy              =     -95.10634651 Ry
     Harris-Foulkes estimate   =     -95.10635080 Ry
     estimated scf accuracy    <       0.00001315 Ry

     iteration #  5     ecut=    40.00 Ry     beta=0.70
     Davidson diagonalization with overlap
     ethr =  1.46E-07,  avg # of iterations =  1.0

     total cpu time spent up to now is       64.3 secs

     total energy              =     -95.10634552 Ry
     Harris-Foulkes estimate   =     -95.10634696 Ry
     estimated scf accuracy    <       0.00000486 Ry

     iteration #  6     ecut=    40.00 Ry     beta=0.70
     Davidson diagonalization with overlap
     ethr =  5.40E-08,  avg # of iterations =  1.0

     total cpu time spent up to now is       65.8 secs

     total energy              =     -95.10634416 Ry
     Harris-Foulkes estimate   =     -95.10634566 Ry
     estimated scf accuracy    <       0.00000204 Ry

     iteration #  7     ecut=    40.00 Ry     beta=0.70
     Davidson diagonalization with overlap
     ethr =  2.26E-08,  avg # of iterations =  2.0

     total cpu time spent up to now is       67.6 secs

     total energy              =     -95.10634472 Ry
     Harris-Foulkes estimate   =     -95.10634473 Ry
     estimated scf accuracy    <       0.00000005 Ry

     iteration #  8     ecut=    40.00 Ry     beta=0.70
     Davidson diagonalization with overlap
     ethr =  5.57E-10,  avg # of iterations =  1.0

     total cpu time spent up to now is       69.1 secs

     total energy              =     -95.10634471 Ry
     Harris-Foulkes estimate   =     -95.10634472 Ry
     estimated scf accuracy    <       0.00000001 Ry

     iteration #  9     ecut=    40.00 Ry     beta=0.70
     Davidson diagonalization with overlap
     ethr =  1.60E-10,  avg # of iterations =  1.0

     total cpu time spent up to now is       70.6 secs

     total energy              =     -95.10634471 Ry
     Harris-Foulkes estimate   =     -95.10634471 Ry
     estimated scf accuracy    <          4.1E-09 Ry

     iteration # 10     ecut=    40.00 Ry     beta=0.70
     Davidson diagonalization with overlap
     ethr =  4.58E-11,  avg # of iterations =  2.0

     total cpu time spent up to now is       72.4 secs

     total energy              =     -95.10634471 Ry
     Harris-Foulkes estimate   =     -95.10634471 Ry
     estimated scf accuracy    <          4.5E-11 Ry

     iteration # 11     ecut=    40.00 Ry     beta=0.70
     Davidson diagonalization with overlap
     ethr =  4.97E-13,  avg # of iterations =  2.0

     total cpu time spent up to now is       74.2 secs

     total energy              =     -95.10634471 Ry
     Harris-Foulkes estimate   =     -95.10634471 Ry
     estimated scf accuracy    <          7.6E-12 Ry

     iteration # 12     ecut=    40.00 Ry     beta=0.70
     Davidson diagonalization with overlap
     ethr =  1.00E-13,  avg # of iterations =  1.0

     total cpu time spent up to now is       75.7 secs

     End of self-consistent calculation

     Number of k-points >= 100: set verbosity='high' to print the bands.

     the Fermi energy is     1.8418 ev

!    total energy              =     -95.10634471 Ry
     Harris-Foulkes estimate   =     -95.10634471 Ry
     estimated scf accuracy    <          7.5E-13 Ry

     The total energy is the sum of the following terms:

     one-electron contribution =     -86.92248946 Ry
     hartree contribution      =      43.91804325 Ry
     xc contribution           =     -14.27579209 Ry
     ewald contribution        =     -37.82603414 Ry
     smearing contrib. (-TS)   =      -0.00007227 Ry

     convergence has been achieved in  12 iterations

     Forces acting on atoms (cartesian axes, Ry/au):

     atom    1 type  1   force =     0.00000000    0.00000000    0.00000000

     Total force =     0.000000     Total SCF correction =     0.000000


     Computing stress (Cartesian axis) and pressure

          total   stress  (Ry/bohr**3)                   (kbar)     P=    1.76
   0.00001196   0.00000000  -0.00000000          1.76      0.00     -0.00
   0.00000000   0.00001196   0.00000000          0.00      1.76      0.00
  -0.00000000   0.00000000   0.00001196         -0.00      0.00      1.76


     number of scf cycles    =   4
     number of bfgs steps    =   3

     enthalpy old            =     -95.1063390495 Ry
     enthalpy new            =     -95.1063447123 Ry

     CASE: enthalpy_new < enthalpy_old

     new trust radius        =       0.0028991155 bohr
     new conv_thr            =            1.0E-12 Ry

     new unit-cell volume =    237.26229 a.u.^3 (    35.15864 Ang^3 )
     density =      1.08582 g/cm^3

CELL_PARAMETERS (alat=  9.80392368)
  -0.501186833  -0.000000000   0.501186833
   0.000000000   0.501186833   0.501186833
  -0.501186833   0.501186833  -0.000000000

ATOMIC_POSITIONS (crystal)
Na       0.000000000   0.000000000   0.000000000



     Writing output data file na.fcc.save
     NEW-OLD atomic charge density approx. for the potential
     extrapolated charge    9.02538, renormalised to    9.00000

     total cpu time spent up to now is       77.1 secs

     per-process dynamical memory:    31.3 Mb

     Self-consistent Calculation

     iteration #  1     ecut=    40.00 Ry     beta=0.70
     Davidson diagonalization with overlap
     ethr =  1.00E-06,  avg # of iterations =  2.0

     total cpu time spent up to now is       79.2 secs

     total energy              =     -95.10592378 Ry
     Harris-Foulkes estimate   =     -94.91072376 Ry
     estimated scf accuracy    <       0.00023917 Ry

     iteration #  2     ecut=    40.00 Ry     beta=0.70
     Davidson diagonalization with overlap
     ethr =  2.66E-06,  avg # of iterations =  3.0

     total cpu time spent up to now is       81.5 secs

     total energy              =     -95.10636044 Ry
     Harris-Foulkes estimate   =     -95.10653637 Ry
     estimated scf accuracy    <       0.00040080 Ry

     iteration #  3     ecut=    40.00 Ry     beta=0.70
     Davidson diagonalization with overlap
     ethr =  2.66E-06,  avg # of iterations =  1.7

     total cpu time spent up to now is       83.0 secs

     total energy              =     -95.10636093 Ry
     Harris-Foulkes estimate   =     -95.10638670 Ry
     estimated scf accuracy    <       0.00007822 Ry

     iteration #  4     ecut=    40.00 Ry     beta=0.70
     Davidson diagonalization with overlap
     ethr =  8.69E-07,  avg # of iterations =  1.0

     total cpu time spent up to now is       84.6 secs

     total energy              =     -95.10635484 Ry
     Harris-Foulkes estimate   =     -95.10636428 Ry
     estimated scf accuracy    <       0.00002672 Ry

     iteration #  5     ecut=    40.00 Ry     beta=0.70
     Davidson diagonalization with overlap
     ethr =  2.97E-07,  avg # of iterations =  1.0

     total cpu time spent up to now is       86.0 secs

     total energy              =     -95.10635376 Ry
     Harris-Foulkes estimate   =     -95.10635600 Ry
     estimated scf accuracy    <       0.00000854 Ry

     iteration #  6     ecut=    40.00 Ry     beta=0.70
     Davidson diagonalization with overlap
     ethr =  9.49E-08,  avg # of iterations =  1.0

     total cpu time spent up to now is       87.5 secs

     total energy              =     -95.10635246 Ry
     Harris-Foulkes estimate   =     -95.10635396 Ry
     estimated scf accuracy    <       0.00000408 Ry

     iteration #  7     ecut=    40.00 Ry     beta=0.70
     Davidson diagonalization with overlap
     ethr =  4.53E-08,  avg # of iterations =  1.0

     total cpu time spent up to now is       89.0 secs

     total energy              =     -95.10635174 Ry
     Harris-Foulkes estimate   =     -95.10635262 Ry
     estimated scf accuracy    <       0.00000127 Ry

     iteration #  8     ecut=    40.00 Ry     beta=0.70
     Davidson diagonalization with overlap
     ethr =  1.41E-08,  avg # of iterations =  2.0

     total cpu time spent up to now is       90.8 secs

     total energy              =     -95.10635205 Ry
     Harris-Foulkes estimate   =     -95.10635205 Ry
     estimated scf accuracy    <          3.6E-09 Ry

     iteration #  9     ecut=    40.00 Ry     beta=0.70
     Davidson diagonalization with overlap
     ethr =  3.96E-11,  avg # of iterations =  2.0

     total cpu time spent up to now is       92.6 secs

     total energy              =     -95.10635205 Ry
     Harris-Foulkes estimate   =     -95.10635205 Ry
     estimated scf accuracy    <          3.5E-10 Ry

     iteration # 10     ecut=    40.00 Ry     beta=0.70
     Davidson diagonalization with overlap
     ethr =  3.86E-12,  avg # of iterations =  2.0

     total cpu time spent up to now is       94.4 secs

     total energy              =     -95.10635205 Ry
     Harris-Foulkes estimate   =     -95.10635205 Ry
     estimated scf accuracy    <          9.8E-10 Ry

     iteration # 11     ecut=    40.00 Ry     beta=0.70
     Davidson diagonalization with overlap
     ethr =  3.86E-12,  avg # of iterations =  2.0

     total cpu time spent up to now is       96.2 secs

     total energy              =     -95.10635205 Ry
     Harris-Foulkes estimate   =     -95.10635205 Ry
     estimated scf accuracy    <          9.2E-12 Ry

     iteration # 12     ecut=    40.00 Ry     beta=0.70
     Davidson diagonalization with overlap
     ethr =  1.02E-13,  avg # of iterations =  1.0

     total cpu time spent up to now is       97.7 secs

     total energy              =     -95.10635205 Ry
     Harris-Foulkes estimate   =     -95.10635205 Ry
     estimated scf accuracy    <          4.0E-12 Ry

     iteration # 13     ecut=    40.00 Ry     beta=0.70
     Davidson diagonalization with overlap
     ethr =  1.00E-13,  avg # of iterations =  3.0

     total cpu time spent up to now is       99.8 secs

     total energy              =     -95.10635205 Ry
     Harris-Foulkes estimate   =     -95.10635205 Ry
     estimated scf accuracy    <          2.2E-10 Ry

     iteration # 14     ecut=    40.00 Ry     beta=0.70
     Davidson diagonalization with overlap
     ethr =  1.00E-13,  avg # of iterations =  3.0

     total cpu time spent up to now is      101.8 secs

     End of self-consistent calculation

     Number of k-points >= 100: set verbosity='high' to print the bands.

     the Fermi energy is     1.8293 ev

!    total energy              =     -95.10635205 Ry
     Harris-Foulkes estimate   =     -95.10635205 Ry
     estimated scf accuracy    <          1.7E-14 Ry

     The total energy is the sum of the following terms:

     one-electron contribution =     -86.98491793 Ry
     hartree contribution      =      43.94447127 Ry
     xc contribution           =     -14.27541263 Ry
     ewald contribution        =     -37.79042048 Ry
     smearing contrib. (-TS)   =      -0.00007227 Ry

     convergence has been achieved in  14 iterations

     Forces acting on atoms (cartesian axes, Ry/au):

     atom    1 type  1   force =     0.00000000    0.00000000    0.00000000

     Total force =     0.000000     Total SCF correction =     0.000000


     Computing stress (Cartesian axis) and pressure

          total   stress  (Ry/bohr**3)                   (kbar)     P=    1.46
   0.00000992   0.00000000  -0.00000000          1.46      0.00     -0.00
   0.00000000   0.00000992  -0.00000000          0.00      1.46     -0.00
   0.00000000  -0.00000000   0.00000992          0.00     -0.00      1.46


     number of scf cycles    =   5
     number of bfgs steps    =   4

     enthalpy old            =     -95.1063447123 Ry
     enthalpy new            =     -95.1063520520 Ry

     CASE: enthalpy_new < enthalpy_old

     new trust radius        =       0.0043507218 bohr
     new conv_thr            =            1.0E-12 Ry

     new unit-cell volume =    238.26894 a.u.^3 (    35.30781 Ang^3 )
     density =      1.08123 g/cm^3

CELL_PARAMETERS (alat=  9.80392368)
  -0.501894643  -0.000000000   0.501894643
   0.000000000   0.501894643   0.501894643
  -0.501894643   0.501894643  -0.000000000

ATOMIC_POSITIONS (crystal)
Na       0.000000000   0.000000000   0.000000000



     Writing output data file na.fcc.save
     NEW-OLD atomic charge density approx. for the potential
     extrapolated charge    9.03800, renormalised to    9.00000

     total cpu time spent up to now is      103.3 secs

     per-process dynamical memory:    31.3 Mb

     Self-consistent Calculation

     iteration #  1     ecut=    40.00 Ry     beta=0.70
     Davidson diagonalization with overlap
     ethr =  1.00E-06,  avg # of iterations =  2.2

     total cpu time spent up to now is      105.4 secs

     total energy              =     -95.10539531 Ry
     Harris-Foulkes estimate   =     -94.81306813 Ry
     estimated scf accuracy    <       0.00053886 Ry

     iteration #  2     ecut=    40.00 Ry     beta=0.70
     Davidson diagonalization with overlap
     ethr =  5.99E-06,  avg # of iterations =  3.0

     total cpu time spent up to now is      107.6 secs

     total energy              =     -95.10637984 Ry
     Harris-Foulkes estimate   =     -95.10677622 Ry
     estimated scf accuracy    <       0.00090308 Ry

     iteration #  3     ecut=    40.00 Ry     beta=0.70
     Davidson diagonalization with overlap
     ethr =  5.99E-06,  avg # of iterations =  1.7

     total cpu time spent up to now is      109.2 secs

     total energy              =     -95.10638068 Ry
     Harris-Foulkes estimate   =     -95.10643881 Ry
     estimated scf accuracy    <       0.00017681 Ry

     iteration #  4     ecut=    40.00 Ry     beta=0.70
     Davidson diagonalization with overlap
     ethr =  1.96E-06,  avg # of iterations =  1.0

     total cpu time spent up to now is      110.7 secs

     total energy              =     -95.10636693 Ry
     Harris-Foulkes estimate   =     -95.10638826 Ry
     estimated scf accuracy    <       0.00006061 Ry

     iteration #  5     ecut=    40.00 Ry     beta=0.70
     Davidson diagonalization with overlap
     ethr =  6.73E-07,  avg # of iterations =  1.0

     total cpu time spent up to now is      112.2 secs

     total energy              =     -95.10636423 Ry
     Harris-Foulkes estimate   =     -95.10636952 Ry
     estimated scf accuracy    <       0.00001952 Ry

     iteration #  6     ecut=    40.00 Ry     beta=0.70
     Davidson diagonalization with overlap
     ethr =  2.17E-07,  avg # of iterations =  1.0

     total cpu time spent up to now is      113.7 secs

     total energy              =     -95.10636100 Ry
     Harris-Foulkes estimate   =     -95.10636472 Ry
     estimated scf accuracy    <       0.00000905 Ry

     iteration #  7     ecut=    40.00 Ry     beta=0.70
     Davidson diagonalization with overlap
     ethr =  1.01E-07,  avg # of iterations =  1.0

     total cpu time spent up to now is      115.2 secs

     total energy              =     -95.10635993 Ry
     Harris-Foulkes estimate   =     -95.10636146 Ry
     estimated scf accuracy    <       0.00000221 Ry

     iteration #  8     ecut=    40.00 Ry     beta=0.70
     Davidson diagonalization with overlap
     ethr =  2.45E-08,  avg # of iterations =  2.0

     total cpu time spent up to now is      117.0 secs

     total energy              =     -95.10636048 Ry
     Harris-Foulkes estimate   =     -95.10636049 Ry
     estimated scf accuracy    <          7.5E-09 Ry

     iteration #  9     ecut=    40.00 Ry     beta=0.70
     Davidson diagonalization with overlap
     ethr =  8.39E-11,  avg # of iterations =  2.0

     total cpu time spent up to now is      118.8 secs

     total energy              =     -95.10636049 Ry
     Harris-Foulkes estimate   =     -95.10636049 Ry
     estimated scf accuracy    <          5.4E-10 Ry

     iteration # 10     ecut=    40.00 Ry     beta=0.70
     Davidson diagonalization with overlap
     ethr =  6.05E-12,  avg # of iterations =  2.0

     total cpu time spent up to now is      120.5 secs

     total energy              =     -95.10636048 Ry
     Harris-Foulkes estimate   =     -95.10636049 Ry
     estimated scf accuracy    <          1.8E-09 Ry

     iteration # 11     ecut=    40.00 Ry     beta=0.70
     Davidson diagonalization with overlap
     ethr =  6.05E-12,  avg # of iterations =  2.0

     total cpu time spent up to now is      122.3 secs

     total energy              =     -95.10636048 Ry
     Harris-Foulkes estimate   =     -95.10636048 Ry
     estimated scf accuracy    <          4.3E-11 Ry

     iteration # 12     ecut=    40.00 Ry     beta=0.70
     Davidson diagonalization with overlap
     ethr =  4.73E-13,  avg # of iterations =  1.0

     total cpu time spent up to now is      123.8 secs

     total energy              =     -95.10636048 Ry
     Harris-Foulkes estimate   =     -95.10636048 Ry
     estimated scf accuracy    <          1.3E-11 Ry

     iteration # 13     ecut=    40.00 Ry     beta=0.70
     Davidson diagonalization with overlap
     ethr =  1.49E-13,  avg # of iterations =  1.6

     total cpu time spent up to now is      125.4 secs

     total energy              =     -95.10636048 Ry
     Harris-Foulkes estimate   =     -95.10636048 Ry
     estimated scf accuracy    <          5.6E-11 Ry

     iteration # 14     ecut=    40.00 Ry     beta=0.70
     Davidson diagonalization with overlap
     ethr =  1.49E-13,  avg # of iterations =  2.0

     total cpu time spent up to now is      127.2 secs

     End of self-consistent calculation

     Number of k-points >= 100: set verbosity='high' to print the bands.

     the Fermi energy is     1.8107 ev

!    total energy              =     -95.10636048 Ry
     Harris-Foulkes estimate   =     -95.10636048 Ry
     estimated scf accuracy    <          2.2E-14 Ry

     The total energy is the sum of the following terms:

     one-electron contribution =     -87.07834610 Ry
     hartree contribution      =      43.98402772 Ry
     xc contribution           =     -14.27484428 Ry
     ewald contribution        =     -37.73712557 Ry
     smearing contrib. (-TS)   =      -0.00007227 Ry

     convergence has been achieved in  14 iterations

     Forces acting on atoms (cartesian axes, Ry/au):

     atom    1 type  1   force =     0.00000000    0.00000000    0.00000000

     Total force =     0.000000     Total SCF correction =     0.000000


     Computing stress (Cartesian axis) and pressure

          total   stress  (Ry/bohr**3)                   (kbar)     P=    1.01
   0.00000684  -0.00000000  -0.00000000          1.01     -0.00     -0.00
  -0.00000000   0.00000684  -0.00000000         -0.00      1.01     -0.00
  -0.00000000  -0.00000000   0.00000684         -0.00     -0.00      1.01


     number of scf cycles    =   6
     number of bfgs steps    =   5

     enthalpy old            =     -95.1063520520 Ry
     enthalpy new            =     -95.1063604848 Ry

     CASE: enthalpy_new < enthalpy_old

     new trust radius        =       0.0065306894 bohr
     new conv_thr            =            1.0E-12 Ry

     new unit-cell volume =    239.78426 a.u.^3 (    35.53236 Ang^3 )
     density =      1.07439 g/cm^3

CELL_PARAMETERS (alat=  9.80392368)
  -0.502956357  -0.000000000   0.502956357
   0.000000000   0.502956357   0.502956357
  -0.502956357   0.502956357  -0.000000000

ATOMIC_POSITIONS (crystal)
Na       0.000000000   0.000000000   0.000000000



     Writing output data file na.fcc.save
     NEW-OLD atomic charge density approx. for the potential
     extrapolated charge    9.05684, renormalised to    9.00000

     total cpu time spent up to now is      128.7 secs

     per-process dynamical memory:    31.3 Mb

     Self-consistent Calculation

     iteration #  1     ecut=    40.00 Ry     beta=0.70
     Davidson diagonalization with overlap
     ethr =  1.00E-06,  avg # of iterations =  2.6

     total cpu time spent up to now is      130.9 secs

     total energy              =     -95.10419049 Ry
     Harris-Foulkes estimate   =     -94.66676971 Ry
     estimated scf accuracy    <       0.00121486 Ry

     iteration #  2     ecut=    40.00 Ry     beta=0.70
     Davidson diagonalization with overlap
     ethr =  1.35E-05,  avg # of iterations =  3.0

     total cpu time spent up to now is      133.1 secs

     total energy              =     -95.10641259 Ry
     Harris-Foulkes estimate   =     -95.10730634 Ry
     estimated scf accuracy    <       0.00203631 Ry

     iteration #  3     ecut=    40.00 Ry     beta=0.70
     Davidson diagonalization with overlap
     ethr =  1.35E-05,  avg # of iterations =  1.7

     total cpu time spent up to now is      134.8 secs

     total energy              =     -95.10641328 Ry
     Harris-Foulkes estimate   =     -95.10654495 Ry
     estimated scf accuracy    <       0.00040056 Ry

     iteration #  4     ecut=    40.00 Ry     beta=0.70
     Davidson diagonalization with overlap
     ethr =  4.45E-06,  avg # of iterations =  1.0

     total cpu time spent up to now is      136.2 secs

     total energy              =     -95.10638225 Ry
     Harris-Foulkes estimate   =     -95.10643045 Ry
     estimated scf accuracy    <       0.00013741 Ry

     iteration #  5     ecut=    40.00 Ry     beta=0.70
     Davidson diagonalization with overlap
     ethr =  1.53E-06,  avg # of iterations =  1.0

     total cpu time spent up to now is      137.7 secs

     total energy              =     -95.10637568 Ry
     Harris-Foulkes estimate   =     -95.10638807 Ry
     estimated scf accuracy    <       0.00004459 Ry

     iteration #  6     ecut=    40.00 Ry     beta=0.70
     Davidson diagonalization with overlap
     ethr =  4.95E-07,  avg # of iterations =  1.0

     total cpu time spent up to now is      139.2 secs

     total energy              =     -95.10636735 Ry
     Harris-Foulkes estimate   =     -95.10637684 Ry
     estimated scf accuracy    <       0.00002016 Ry

     iteration #  7     ecut=    40.00 Ry     beta=0.70
     Davidson diagonalization with overlap
     ethr =  2.24E-07,  avg # of iterations =  1.0

     total cpu time spent up to now is      140.7 secs

     total energy              =     -95.10636653 Ry
     Harris-Foulkes estimate   =     -95.10636880 Ry
     estimated scf accuracy    <       0.00000326 Ry

     iteration #  8     ecut=    40.00 Ry     beta=0.70
     Davidson diagonalization with overlap
     ethr =  3.63E-08,  avg # of iterations =  2.0

     total cpu time spent up to now is      142.5 secs

     total energy              =     -95.10636741 Ry
     Harris-Foulkes estimate   =     -95.10636741 Ry
     estimated scf accuracy    <       0.00000001 Ry

     iteration #  9     ecut=    40.00 Ry     beta=0.70
     Davidson diagonalization with overlap
     ethr =  1.48E-10,  avg # of iterations =  1.9

     total cpu time spent up to now is      144.2 secs

     total energy              =     -95.10636741 Ry
     Harris-Foulkes estimate   =     -95.10636741 Ry
     estimated scf accuracy    <          3.9E-09 Ry

     iteration # 10     ecut=    40.00 Ry     beta=0.70
     Davidson diagonalization with overlap
     ethr =  4.31E-11,  avg # of iterations =  1.0

     total cpu time spent up to now is      145.7 secs

     total energy              =     -95.10636741 Ry
     Harris-Foulkes estimate   =     -95.10636741 Ry
     estimated scf accuracy    <          8.3E-09 Ry

     iteration # 11     ecut=    40.00 Ry     beta=0.70
     Davidson diagonalization with overlap
     ethr =  4.31E-11,  avg # of iterations =  2.0

     total cpu time spent up to now is      147.5 secs

     total energy              =     -95.10636741 Ry
     Harris-Foulkes estimate   =     -95.10636741 Ry
     estimated scf accuracy    <          8.5E-11 Ry

     iteration # 12     ecut=    40.00 Ry     beta=0.70
     Davidson diagonalization with overlap
     ethr =  9.48E-13,  avg # of iterations =  1.0

     total cpu time spent up to now is      149.0 secs

     total energy              =     -95.10636741 Ry
     Harris-Foulkes estimate   =     -95.10636741 Ry
     estimated scf accuracy    <          1.5E-11 Ry

     iteration # 13     ecut=    40.00 Ry     beta=0.70
     Davidson diagonalization with overlap
     ethr =  1.72E-13,  avg # of iterations =  1.0

     total cpu time spent up to now is      150.5 secs

     total energy              =     -95.10636741 Ry
     Harris-Foulkes estimate   =     -95.10636741 Ry
     estimated scf accuracy    <          4.3E-12 Ry

     iteration # 14     ecut=    40.00 Ry     beta=0.70
     Davidson diagonalization with overlap
     ethr =  1.00E-13,  avg # of iterations =  1.0

     total cpu time spent up to now is      152.0 secs

     total energy              =     -95.10636741 Ry
     Harris-Foulkes estimate   =     -95.10636741 Ry
     estimated scf accuracy    <          2.3E-12 Ry

     iteration # 15     ecut=    40.00 Ry     beta=0.70
     Davidson diagonalization with overlap
     ethr =  1.00E-13,  avg # of iterations =  1.0

     total cpu time spent up to now is      153.5 secs

     End of self-consistent calculation

     Number of k-points >= 100: set verbosity='high' to print the bands.

     the Fermi energy is     1.7830 ev

!    total energy              =     -95.10636741 Ry
     Harris-Foulkes estimate   =     -95.10636741 Ry
     estimated scf accuracy    <          2.1E-13 Ry

     The total energy is the sum of the following terms:

     one-electron contribution =     -87.21801962 Ry
     hartree contribution      =      44.04318523 Ry
     xc contribution           =     -14.27399632 Ry
     ewald contribution        =     -37.65746445 Ry
     smearing contrib. (-TS)   =      -0.00007226 Ry

     convergence has been achieved in  15 iterations

     Forces acting on atoms (cartesian axes, Ry/au):

     atom    1 type  1   force =     0.00000000    0.00000000    0.00000000

     Total force =     0.000000     Total SCF correction =     0.000000


     Computing stress (Cartesian axis) and pressure

          total   stress  (Ry/bohr**3)                   (kbar)     P=    0.34
   0.00000232  -0.00000000   0.00000000          0.34     -0.00      0.00
  -0.00000000   0.00000232  -0.00000000         -0.00      0.34     -0.00
   0.00000000  -0.00000000   0.00000232          0.00     -0.00      0.34


     number of scf cycles    =   7
     number of bfgs steps    =   6

     enthalpy old            =     -95.1063604848 Ry
     enthalpy new            =     -95.1063674071 Ry

     CASE: enthalpy_new < enthalpy_old

     new trust radius        =       0.0033806252 bohr
     new conv_thr            =            1.0E-12 Ry

     new unit-cell volume =    240.57035 a.u.^3 (    35.64885 Ang^3 )
     density =      1.07088 g/cm^3

CELL_PARAMETERS (alat=  9.80392368)
  -0.503505376  -0.000000000   0.503505376
   0.000000000   0.503505376   0.503505376
  -0.503505376   0.503505376  -0.000000000

ATOMIC_POSITIONS (crystal)
Na       0.000000000   0.000000000   0.000000000



     Writing output data file na.fcc.save
     NEW-OLD atomic charge density approx. for the potential
     extrapolated charge    9.02939, renormalised to    9.00000

     total cpu time spent up to now is      154.9 secs

     per-process dynamical memory:    31.3 Mb

     Self-consistent Calculation

     iteration #  1     ecut=    40.00 Ry     beta=0.70
     Davidson diagonalization with overlap
     ethr =  1.00E-06,  avg # of iterations =  2.1

     total cpu time spent up to now is      157.0 secs

     total energy              =     -95.10579238 Ry
     Harris-Foulkes estimate   =     -94.87897065 Ry
     estimated scf accuracy    <       0.00032157 Ry

     iteration #  2     ecut=    40.00 Ry     beta=0.70
     Davidson diagonalization with overlap
     ethr =  3.57E-06,  avg # of iterations =  3.0

     total cpu time spent up to now is      159.3 secs

     total energy              =     -95.10637969 Ry
     Harris-Foulkes estimate   =     -95.10661622 Ry
     estimated scf accuracy    <       0.00053886 Ry

     iteration #  3     ecut=    40.00 Ry     beta=0.70
     Davidson diagonalization with overlap
     ethr =  3.57E-06,  avg # of iterations =  1.7

     total cpu time spent up to now is      160.9 secs

     total energy              =     -95.10638005 Ry
     Harris-Foulkes estimate   =     -95.10641497 Ry
     estimated scf accuracy    <       0.00010524 Ry

     iteration #  4     ecut=    40.00 Ry     beta=0.70
     Davidson diagonalization with overlap
     ethr =  1.17E-06,  avg # of iterations =  1.0

     total cpu time spent up to now is      162.4 secs

     total energy              =     -95.10637189 Ry
     Harris-Foulkes estimate   =     -95.10638462 Ry
     estimated scf accuracy    <       0.00003561 Ry

     iteration #  5     ecut=    40.00 Ry     beta=0.70
     Davidson diagonalization with overlap
     ethr =  3.96E-07,  avg # of iterations =  1.0

     total cpu time spent up to now is      163.9 secs

     total energy              =     -95.10637057 Ry
     Harris-Foulkes estimate   =     -95.10637347 Ry
     estimated scf accuracy    <       0.00001114 Ry

     iteration #  6     ecut=    40.00 Ry     beta=0.70
     Davidson diagonalization with overlap
     ethr =  1.24E-07,  avg # of iterations =  1.0

     total cpu time spent up to now is      165.4 secs

     total energy              =     -95.10636917 Ry
     Harris-Foulkes estimate   =     -95.10637084 Ry
     estimated scf accuracy    <       0.00000538 Ry

     iteration #  7     ecut=    40.00 Ry     beta=0.70
     Davidson diagonalization with overlap
     ethr =  5.97E-08,  avg # of iterations =  1.0

     total cpu time spent up to now is      166.9 secs

     total energy              =     -95.10636781 Ry
     Harris-Foulkes estimate   =     -95.10636932 Ry
     estimated scf accuracy    <       0.00000217 Ry

     iteration #  8     ecut=    40.00 Ry     beta=0.70
     Davidson diagonalization with overlap
     ethr =  2.41E-08,  avg # of iterations =  2.0

     total cpu time spent up to now is      168.7 secs

     total energy              =     -95.10636833 Ry
     Harris-Foulkes estimate   =     -95.10636833 Ry
     estimated scf accuracy    <          5.4E-09 Ry

     iteration #  9     ecut=    40.00 Ry     beta=0.70
     Davidson diagonalization with overlap
     ethr =  6.03E-11,  avg # of iterations =  1.9

     total cpu time spent up to now is      170.3 secs

     total energy              =     -95.10636832 Ry
     Harris-Foulkes estimate   =     -95.10636833 Ry
     estimated scf accuracy    <          4.5E-09 Ry

     iteration # 10     ecut=    40.00 Ry     beta=0.70
     Davidson diagonalization with overlap
     ethr =  5.04E-11,  avg # of iterations =  2.0

     total cpu time spent up to now is      172.1 secs

     total energy              =     -95.10636833 Ry
     Harris-Foulkes estimate   =     -95.10636833 Ry
     estimated scf accuracy    <          6.8E-10 Ry

     iteration # 11     ecut=    40.00 Ry     beta=0.70
     Davidson diagonalization with overlap
     ethr =  7.59E-12,  avg # of iterations =  1.0

     total cpu time spent up to now is      173.6 secs

     total energy              =     -95.10636833 Ry
     Harris-Foulkes estimate   =     -95.10636833 Ry
     estimated scf accuracy    <          1.0E-09 Ry

     iteration # 12     ecut=    40.00 Ry     beta=0.70
     Davidson diagonalization with overlap
     ethr =  7.59E-12,  avg # of iterations =  2.0

     total cpu time spent up to now is      175.4 secs

     total energy              =     -95.10636833 Ry
     Harris-Foulkes estimate   =     -95.10636833 Ry
     estimated scf accuracy    <          4.5E-11 Ry

     iteration # 13     ecut=    40.00 Ry     beta=0.70
     Davidson diagonalization with overlap
     ethr =  4.97E-13,  avg # of iterations =  2.0

     total cpu time spent up to now is      177.2 secs

     total energy              =     -95.10636833 Ry
     Harris-Foulkes estimate   =     -95.10636833 Ry
     estimated scf accuracy    <          4.1E-12 Ry

     iteration # 14     ecut=    40.00 Ry     beta=0.70
     Davidson diagonalization with overlap
     ethr =  1.00E-13,  avg # of iterations =  1.0

     total cpu time spent up to now is      178.7 secs

     End of self-consistent calculation

     Number of k-points >= 100: set verbosity='high' to print the bands.

     the Fermi energy is     1.7688 ev

!    total energy              =     -95.10636833 Ry
     Harris-Foulkes estimate   =     -95.10636833 Ry
     estimated scf accuracy    <          9.2E-14 Ry

     The total energy is the sum of the following terms:

     one-electron contribution =     -87.29002659 Ry
     hartree contribution      =      44.07369364 Ry
     xc contribution           =     -14.27356009 Ry
     ewald contribution        =     -37.61640303 Ry
     smearing contrib. (-TS)   =      -0.00007225 Ry

     convergence has been achieved in  14 iterations

     Forces acting on atoms (cartesian axes, Ry/au):

     atom    1 type  1   force =     0.00000000    0.00000000    0.00000000

     Total force =     0.000000     Total SCF correction =     0.000000


     Computing stress (Cartesian axis) and pressure

          total   stress  (Ry/bohr**3)                   (kbar)     P=    0.01
   0.00000004  -0.00000000  -0.00000000          0.01     -0.00     -0.00
  -0.00000000   0.00000004  -0.00000000         -0.00      0.01     -0.00
  -0.00000000  -0.00000000   0.00000004         -0.00     -0.00      0.01


     bfgs converged in   8 scf cycles and   7 bfgs steps
     (criteria: energy <  1.0E-04 Ry, force <  1.0E-03Ry/Bohr, cell <  3.0E-01kbar)

     End of BFGS Geometry Optimization

     Final enthalpy =     -95.1063683258 Ry
Begin final coordinates
     new unit-cell volume =    240.57035 a.u.^3 (    35.64885 Ang^3 )
     density =      1.07088 g/cm^3

CELL_PARAMETERS (alat=  9.80392368)
  -0.503505376  -0.000000000   0.503505376
   0.000000000   0.503505376   0.503505376
  -0.503505376   0.503505376  -0.000000000

ATOMIC_POSITIONS (crystal)
Na       0.000000000   0.000000000   0.000000000
End final coordinates



     A final scf calculation at the relaxed structure.
     The G-vectors are recalculated for the final unit cell
     Results may differ from those at the preceding step.

     Parallelization info
     --------------------
     sticks:   dense  smooth     PW     G-vecs:    dense   smooth      PW
     Min         267     136     46                 5821     2072     397
     Max         268     137     47                 5825     2073     398
     Sum        1069     547    187                23289     8291    1591



     bravais-lattice index     =            2
     lattice parameter (alat)  =       9.8039  a.u.
     unit-cell volume          =     240.5703 (a.u.)^3
     number of atoms/cell      =            1
     number of atomic types    =            1
     number of electrons       =         9.00
     number of Kohn-Sham states=            9
     kinetic-energy cutoff     =      40.0000  Ry
     charge density cutoff     =     320.0000  Ry
     convergence threshold     =      1.0E-12
     mixing beta               =       0.7000
     number of iterations used =            8  plain     mixing
     Exchange-correlation      = SLA  PW   PBE  PBE ( 1  4  3  4 0 0)

     celldm(1)=   9.803924  celldm(2)=   0.000000  celldm(3)=   0.000000
     celldm(4)=   0.000000  celldm(5)=   0.000000  celldm(6)=   0.000000

     crystal axes: (cart. coord. in units of alat)
               a(1) = (  -0.503505  -0.000000   0.503505 )  
               a(2) = (   0.000000   0.503505   0.503505 )  
               a(3) = (  -0.503505   0.503505  -0.000000 )  

     reciprocal axes: (cart. coord. in units 2 pi/alat)
               b(1) = ( -0.993038 -0.993038  0.993038 )  
               b(2) = (  0.993038  0.993038  0.993038 )  
               b(3) = ( -0.993038  0.993038 -0.993038 )  


     PseudoPot. # 1 for Na read from file:
     /home/s1333534/quantum_espresso/qe-6.1/pseudo/Na_pbe_v1.uspp.F.UPF
     MD5 check sum: 76a99c7e9422403d3e93cbc85ab7bccb
     Pseudo is Ultrasoft, Zval =  9.0
     Generated by new atomic code, or converted to UPF format
     Using radial grid of  819 points,  5 beta functions with: 
                l(1) =   0
                l(2) =   0
                l(3) =   1
                l(4) =   1
                l(5) =   2
     Q(r) pseudized with  8 coefficients,  rinner =    1.250   1.250   1.250
                                                       1.250   1.250

     atomic species   valence    mass     pseudopotential
        Na             9.00    22.99000     Na( 1.00)

     48 Sym. Ops., with inversion, found



   Cartesian axes

     site n.     atom                  positions (alat units)
         1           Na  tau(   1) = (   0.0000000   0.0000000   0.0000000  )

     number of k points=   280  Marzari-Vanderbilt smearing, width (Ry)=  0.0200

     Number of k-points >= 100: set verbosity='high' to print them.

     Dense  grid:    23289 G-vectors     FFT dimensions: (  40,  40,  40)

     Smooth grid:     8291 G-vectors     FFT dimensions: (  30,  30,  30)

     Estimated max dynamical RAM per process >      13.69MB

     Estimated total allocated dynamical RAM >      54.78MB

     Initial potential from superposition of free atoms

     starting charge    8.99371, renormalised to    9.00000
     Starting wfc are    5 randomized atomic wfcs +    4 random wfc

     Writing output data file na.fcc.save

     total cpu time spent up to now is      180.9 secs

     per-process dynamical memory:    26.4 Mb

     Self-consistent Calculation

     iteration #  1     ecut=    40.00 Ry     beta=0.70
     Davidson diagonalization with overlap
     c_bands:  1 eigenvalues not converged
     c_bands:  1 eigenvalues not converged
     c_bands:  1 eigenvalues not converged
     c_bands:  1 eigenvalues not converged
     ethr =  1.00E-06,  avg # of iterations = 11.4

     total cpu time spent up to now is      186.8 secs

     total energy              =     -95.10635640 Ry
     Harris-Foulkes estimate   =     -95.10658491 Ry
     estimated scf accuracy    <       0.00089792 Ry

     iteration #  2     ecut=    40.00 Ry     beta=0.70
     Davidson diagonalization with overlap
     ethr =  9.98E-06,  avg # of iterations =  2.0

     total cpu time spent up to now is      188.9 secs

     total energy              =     -95.10646091 Ry
     Harris-Foulkes estimate   =     -95.10648450 Ry
     estimated scf accuracy    <       0.00010064 Ry

     iteration #  3     ecut=    40.00 Ry     beta=0.70
     Davidson diagonalization with overlap
     ethr =  1.12E-06,  avg # of iterations =  2.0

     total cpu time spent up to now is      190.9 secs

     total energy              =     -95.10647215 Ry
     Harris-Foulkes estimate   =     -95.10647340 Ry
     estimated scf accuracy    <       0.00000626 Ry

     iteration #  4     ecut=    40.00 Ry     beta=0.70
     Davidson diagonalization with overlap
     ethr =  6.96E-08,  avg # of iterations =  1.0

     total cpu time spent up to now is      192.7 secs

     total energy              =     -95.10647274 Ry
     Harris-Foulkes estimate   =     -95.10647269 Ry
     estimated scf accuracy    <          8.5E-09 Ry

     iteration #  5     ecut=    40.00 Ry     beta=0.70
     Davidson diagonalization with overlap
     ethr =  9.47E-11,  avg # of iterations =  3.0

     total cpu time spent up to now is      195.2 secs

     total energy              =     -95.10647277 Ry
     Harris-Foulkes estimate   =     -95.10647276 Ry
     estimated scf accuracy    <          1.6E-09 Ry

     iteration #  6     ecut=    40.00 Ry     beta=0.70
     Davidson diagonalization with overlap
     ethr =  1.81E-11,  avg # of iterations =  1.6

     total cpu time spent up to now is      197.1 secs

     total energy              =     -95.10647277 Ry
     Harris-Foulkes estimate   =     -95.10647277 Ry
     estimated scf accuracy    <          3.4E-11 Ry

     iteration #  7     ecut=    40.00 Ry     beta=0.70
     Davidson diagonalization with overlap
     ethr =  3.73E-13,  avg # of iterations =  1.7

     total cpu time spent up to now is      199.1 secs

     total energy              =     -95.10647277 Ry
     Harris-Foulkes estimate   =     -95.10647277 Ry
     estimated scf accuracy    <          3.7E-12 Ry

     iteration #  8     ecut=    40.00 Ry     beta=0.70
     Davidson diagonalization with overlap
     ethr =  1.00E-13,  avg # of iterations =  1.6

     total cpu time spent up to now is      201.0 secs

     End of self-consistent calculation

     Number of k-points >= 100: set verbosity='high' to print the bands.

     the Fermi energy is     1.7689 ev

!    total energy              =     -95.10647277 Ry
     Harris-Foulkes estimate   =     -95.10647277 Ry
     estimated scf accuracy    <          3.8E-13 Ry

     The total energy is the sum of the following terms:

     one-electron contribution =     -87.29016731 Ry
     hartree contribution      =      44.07376488 Ry
     xc contribution           =     -14.27359505 Ry
     ewald contribution        =     -37.61640303 Ry
     smearing contrib. (-TS)   =      -0.00007226 Ry

     convergence has been achieved in   8 iterations

     Forces acting on atoms (cartesian axes, Ry/au):

     atom    1 type  1   force =     0.00000000    0.00000000    0.00000000

     Total force =     0.000000     Total SCF correction =     0.000000


     Computing stress (Cartesian axis) and pressure

          total   stress  (Ry/bohr**3)                   (kbar)     P=    0.36
   0.00000241  -0.00000000  -0.00000000          0.36     -0.00     -0.00
  -0.00000000   0.00000241  -0.00000000         -0.00      0.36     -0.00
  -0.00000000  -0.00000000   0.00000241         -0.00     -0.00      0.36


     Writing output data file na.fcc.save

     init_run     :      1.98s CPU      2.06s WALL (       2 calls)
     electrons    :    177.00s CPU    187.81s WALL (       9 calls)
     update_pot   :      1.56s CPU      1.57s WALL (       7 calls)
     forces       :      1.36s CPU      1.37s WALL (       9 calls)
     stress       :      6.41s CPU      6.44s WALL (       9 calls)

     Called by init_run:
     wfcinit      :      1.21s CPU      1.29s WALL (       2 calls)
     potinit      :      0.10s CPU      0.10s WALL (       2 calls)

     Called by electrons:
     c_bands      :    143.19s CPU    152.21s WALL (     105 calls)
     sum_band     :     30.78s CPU     32.52s WALL (     105 calls)
     v_of_rho     :      1.32s CPU      1.34s WALL (     113 calls)
     newd         :      1.71s CPU      1.73s WALL (     113 calls)
     mix_rho      :      0.12s CPU      0.12s WALL (     105 calls)

     Called by c_bands:
     init_us_2    :      6.53s CPU      6.89s WALL (   64400 calls)
     cegterg      :    136.46s CPU    145.11s WALL (   29400 calls)

     Called by sum_band:
     sum_band:bec :      0.10s CPU      0.11s WALL (   29400 calls)
     addusdens    :      1.87s CPU      1.88s WALL (     105 calls)

     Called by *egterg:
     h_psi        :    116.12s CPU    123.47s WALL (   84680 calls)
     s_psi        :      1.23s CPU      1.32s WALL (   84680 calls)
     g_psi        :      0.73s CPU      0.78s WALL (   54720 calls)
     cdiaghg      :     10.03s CPU     10.67s WALL (   81880 calls)

     Called by h_psi:
     h_psi:pot    :    115.59s CPU    122.90s WALL (   84680 calls)
     h_psi:calbec :      2.02s CPU      2.16s WALL (   84680 calls)
     vloc_psi     :    112.02s CPU    119.08s WALL (   84680 calls)
     add_vuspsi   :      1.29s CPU      1.38s WALL (   84680 calls)

     General routines
     calbec       :      3.12s CPU      3.32s WALL (  126680 calls)
     fft          :      0.61s CPU      0.63s WALL (    1855 calls)
     ffts         :      0.03s CPU      0.03s WALL (     218 calls)
     fftw         :    120.71s CPU    128.15s WALL ( 1536150 calls)
     interpolate  :      0.12s CPU      0.12s WALL (     218 calls)
     davcio       :      0.01s CPU      0.01s WALL (     560 calls)

     Parallel routines
     fft_scatter  :     23.35s CPU     24.92s WALL ( 1538223 calls)

     PWSCF        :  3m10.86s CPU     3m21.94s WALL


   This run was terminated on:  18:49:11  26Jan2018            

=------------------------------------------------------------------------------=
   JOB DONE.
=------------------------------------------------------------------------------=
