
     Program PHONON v.6.1 (svn rev. 13369) starts on 29Jan2018 at  5: 0: 0 

     This program is part of the open-source Quantum ESPRESSO suite
     for quantum simulation of materials; please cite
         "P. Giannozzi et al., J. Phys.:Condens. Matter 21 395502 (2009);
          URL http://www.quantum-espresso.org", 
     in publications or presentations arising from this work. More details at
     http://www.quantum-espresso.org/quote

     Parallel version (MPI), running on    64 processors
     K-points division:     npool     =       4
     R & G space division:  proc/nbgrp/npool/nimage =      16

     Reading data from directory:
     ./na.fcc.save

   Info: using nr1, nr2, nr3 values from input

   Info: using nr1, nr2, nr3 values from input

     IMPORTANT: XC functional enforced from input :
     Exchange-correlation      = SLA  PW   PBE  PBE ( 1  4  3  4 0 0)
     Any further DFT definition will be discarded
     Please, verify this is what you really want


     Parallelization info
     --------------------
     sticks:   dense  smooth     PW     G-vecs:    dense   smooth      PW
     Min          48      23      8                  894      312      66
     Max          49      24      9                  898      316      68
     Sum         769     379    139                14331     5029    1067



     Dynamical matrices for ( 6, 6, 6)  uniform grid of q-points
     (  16q-points):
       N         xq(1)         xq(2)         xq(3) 
       1   0.000000000   0.000000000   0.000000000
       2  -0.166666667   0.166666667  -0.166666667
       3  -0.333333333   0.333333333  -0.333333333
       4   0.500000000  -0.500000000   0.500000000
       5   0.000000000   0.333333333   0.000000000
       6  -0.166666667   0.500000000  -0.166666667
       7   0.666666667  -0.333333333   0.666666667
       8   0.500000000  -0.166666667   0.500000000
       9   0.333333333   0.000000000   0.333333333
      10   0.000000000   0.666666667   0.000000000
      11   0.833333333  -0.166666667   0.833333333
      12   0.666666667  -0.000000000   0.666666667
      13   0.000000000  -1.000000000   0.000000000
      14   0.666666667  -0.333333333   1.000000000
      15   0.500000000  -0.166666667   0.833333333
      16  -0.333333333  -1.000000000   0.000000000

     Calculation of q =    0.0000000   0.0000000   0.0000000

                                                                                

     bravais-lattice index     =            2
     lattice parameter (alat)  =       8.4001  a.u.
     unit-cell volume          =     148.1821 (a.u.)^3
     number of atoms/cell      =            1
     number of atomic types    =            1
     kinetic-energy cut-off    =      40.0000  Ry
     charge density cut-off    =     320.0000  Ry
     convergence threshold     =      1.0E-16
     beta                      =       0.7000
     number of iterations used =            4
     Exchange-correlation      = SLA  PW   PBE  PBE ( 1  4  3  4 0 0)


     celldm(1)=    8.40011  celldm(2)=    0.00000  celldm(3)=    0.00000
     celldm(4)=    0.00000  celldm(5)=    0.00000  celldm(6)=    0.00000

     crystal axes: (cart. coord. in units of alat)
               a(1) = ( -0.5000  0.0000  0.5000 )  
               a(2) = (  0.0000  0.5000  0.5000 )  
               a(3) = ( -0.5000  0.5000  0.0000 )  

     reciprocal axes: (cart. coord. in units 2 pi/alat)
               b(1) = ( -1.0000 -1.0000  1.0000 )  
               b(2) = (  1.0000  1.0000  1.0000 )  
               b(3) = ( -1.0000  1.0000 -1.0000 )  


     Atoms inside the unit cell: 

     Cartesian axes

     site n.  atom      mass           positions (alat units)
        1     Na  22.9900   tau(    1) = (    0.00000    0.00000    0.00000  )

     Computing dynamical matrix for 
                    q = (   0.0000000   0.0000000   0.0000000 )

     49 Sym.Ops. (with q -> -q+G )


     G cutoff =  571.9534  (    896 G-vectors)     FFT grid: ( 36, 36, 36)
     G cutoff =  285.9767  (    316 G-vectors)  smooth grid: ( 24, 24, 24)

     number of k points=   770  Marzari-Vanderbilt smearing, width (Ry)=  0.0200

     PseudoPot. # 1 for Na read from file:
     /home/s1333534/quantum_espresso/qe-6.1/pseudo/Na_pbe_v1.uspp.F.UPF
     MD5 check sum: 76a99c7e9422403d3e93cbc85ab7bccb
     Pseudo is Ultrasoft, Zval =  9.0
     Generated by new atomic code, or converted to UPF format
     Using radial grid of  819 points,  5 beta functions with: 
                l(1) =   0
                l(2) =   0
                l(3) =   1
                l(4) =   1
                l(5) =   2
     Q(r) pseudized with  8 coefficients,  rinner =    1.250   1.250   1.250
                                                       1.250   1.250

     Mode symmetry, O_h (m-3m)  point group:


     Atomic displacements:
     There are   1 irreducible representations

     Representation     1      3 modes -T_1u G_15  G_4-  To be done



     Alpha used in Ewald sum =   2.8000
     PHONON       :     7.33s CPU         7.90s WALL



     Representation #  1 modes #   1  2  3

     Self-consistent Calculation

     Pert. #  1: Fermi energy shift (Ry) =    -1.5510E-25    -1.5673E-37
     Pert. #  2: Fermi energy shift (Ry) =     2.1541E-26     1.5673E-37
     Pert. #  3: Fermi energy shift (Ry) =    -3.4466E-26     3.7616E-37

      iter #   1 total cpu time :    15.3 secs   av.it.:   5.4
      thresh= 1.000E-02 alpha_mix =  0.700 |ddv_scf|^2 =  1.568E-06

     Pert. #  1: Fermi energy shift (Ry) =     3.4466E-26    -1.7143E-39
     Pert. #  2: Fermi energy shift (Ry) =    -2.5849E-26    -1.8367E-40
     Pert. #  3: Fermi energy shift (Ry) =    -4.3082E-27    -1.9592E-39

      iter #   2 total cpu time :    24.3 secs   av.it.:   8.4
      thresh= 1.252E-04 alpha_mix =  0.700 |ddv_scf|^2 =  3.144E-08

     Pert. #  1: Fermi energy shift (Ry) =    -4.3082E-26    -3.0612E-41
     Pert. #  2: Fermi energy shift (Ry) =    -4.7391E-26     1.6837E-40
     Pert. #  3: Fermi energy shift (Ry) =     9.6935E-27    -2.7551E-40

      iter #   3 total cpu time :    33.4 secs   av.it.:   8.5
      thresh= 1.773E-05 alpha_mix =  0.700 |ddv_scf|^2 =  2.837E-10

     Pert. #  1: Fermi energy shift (Ry) =     8.6165E-27     9.5662E-43
     Pert. #  2: Fermi energy shift (Ry) =     4.3082E-27     1.1479E-41
     Pert. #  3: Fermi energy shift (Ry) =     3.1235E-26     4.3048E-42

      iter #   4 total cpu time :    42.0 secs   av.it.:   8.1
      thresh= 1.684E-06 alpha_mix =  0.700 |ddv_scf|^2 =  7.770E-13

     Pert. #  1: Fermi energy shift (Ry) =     2.1541E-26    -1.3393E-41
     Pert. #  2: Fermi energy shift (Ry) =    -1.5079E-26    -2.8699E-42
     Pert. #  3: Fermi energy shift (Ry) =    -3.0158E-26    -3.1568E-41

      iter #   5 total cpu time :    50.8 secs   av.it.:   8.4
      thresh= 8.815E-08 alpha_mix =  0.700 |ddv_scf|^2 =  5.344E-15

     Pert. #  1: Fermi energy shift (Ry) =     3.0158E-26    -1.3393E-41
     Pert. #  2: Fermi energy shift (Ry) =     6.0315E-26     6.6963E-42
     Pert. #  3: Fermi energy shift (Ry) =     2.8004E-26    -1.9132E-42

      iter #   6 total cpu time :    59.5 secs   av.it.:   8.4
      thresh= 7.310E-09 alpha_mix =  0.700 |ddv_scf|^2 =  2.823E-17

     End of self-consistent calculation

     Convergence has been achieved 

     Number of q in the star =    1
     List of q in the star:
          1   0.000000000   0.000000000   0.000000000

     Diagonalizing the dynamical matrix

     q = (    0.000000000   0.000000000   0.000000000 ) 

 **************************************************************************
     freq (    1) =       0.219562 [THz] =       7.323810 [cm-1]
     freq (    2) =       0.219562 [THz] =       7.323810 [cm-1]
     freq (    3) =       0.219562 [THz] =       7.323810 [cm-1]
 **************************************************************************

     Mode symmetry, O_h (m-3m)  point group:

     freq (  1 -  3) =          7.3  [cm-1]   --> T_1u G_15  G_4- I  

     Calculation of q =   -0.1666667   0.1666667  -0.1666667

   Info: using nr1, nr2, nr3 values from input

   Info: using nr1, nr2, nr3 values from input

     Parallelization info
     --------------------
     sticks:   dense  smooth     PW     G-vecs:    dense   smooth      PW
     Min          48      23      9                  894      312      70
     Max          49      24     10                  898      316      72
     Sum         769     379    151                14331     5029    1139



     bravais-lattice index     =            2
     lattice parameter (alat)  =       8.4001  a.u.
     unit-cell volume          =     148.1821 (a.u.)^3
     number of atoms/cell      =            1
     number of atomic types    =            1
     number of electrons       =         9.00
     number of Kohn-Sham states=            9
     kinetic-energy cutoff     =      40.0000  Ry
     charge density cutoff     =     320.0000  Ry
     Exchange-correlation      = SLA  PW   PBE  PBE ( 1  4  3  4 0 0)

     celldm(1)=   8.400115  celldm(2)=   0.000000  celldm(3)=   0.000000
     celldm(4)=   0.000000  celldm(5)=   0.000000  celldm(6)=   0.000000

     crystal axes: (cart. coord. in units of alat)
               a(1) = (  -0.500000   0.000000   0.500000 )  
               a(2) = (   0.000000   0.500000   0.500000 )  
               a(3) = (  -0.500000   0.500000   0.000000 )  

     reciprocal axes: (cart. coord. in units 2 pi/alat)
               b(1) = ( -1.000000 -1.000000  1.000000 )  
               b(2) = (  1.000000  1.000000  1.000000 )  
               b(3) = ( -1.000000  1.000000 -1.000000 )  


     PseudoPot. # 1 for Na read from file:
     /home/s1333534/quantum_espresso/qe-6.1/pseudo/Na_pbe_v1.uspp.F.UPF
     MD5 check sum: 76a99c7e9422403d3e93cbc85ab7bccb
     Pseudo is Ultrasoft, Zval =  9.0
     Generated by new atomic code, or converted to UPF format
     Using radial grid of  819 points,  5 beta functions with: 
                l(1) =   0
                l(2) =   0
                l(3) =   1
                l(4) =   1
                l(5) =   2
     Q(r) pseudized with  8 coefficients,  rinner =    1.250   1.250   1.250
                                                       1.250   1.250

     atomic species   valence    mass     pseudopotential
        Na             9.00    22.99000     Na( 1.00)

     48 Sym. Ops., with inversion, found



   Cartesian axes

     site n.     atom                  positions (alat units)
         1           Na  tau(   1) = (   0.0000000   0.0000000   0.0000000  )

     number of k points= 11480  Marzari-Vanderbilt smearing, width (Ry)=  0.0200

     Number of k-points >= 100: set verbosity='high' to print them.

     Dense  grid:    14331 G-vectors     FFT dimensions: (  36,  36,  36)

     Smooth grid:     5029 G-vectors     FFT dimensions: (  24,  24,  24)

     Estimated max dynamical RAM per process >       0.49MB

     Estimated total allocated dynamical RAM >      31.49MB

     The potential is recalculated from file :
     ./_ph0/na.fcc.save/charge-density.dat

     Starting wfc are    5 atomic +    4 random wfc

     Band Structure Calculation
     Davidson diagonalization with overlap

     ethr =  1.11E-10,  avg # of iterations = 16.4

     total cpu time spent up to now is      125.5 secs

     End of band structure calculation

     Number of k-points >= 100: set verbosity='high' to print the bands.

     the Fermi energy is     4.5382 ev

     Writing output data file na.fcc.save

                                                                                

     bravais-lattice index     =            2
     lattice parameter (alat)  =       8.4001  a.u.
     unit-cell volume          =     148.1821 (a.u.)^3
     number of atoms/cell      =            1
     number of atomic types    =            1
     kinetic-energy cut-off    =      40.0000  Ry
     charge density cut-off    =     320.0000  Ry
     convergence threshold     =      1.0E-16
     beta                      =       0.7000
     number of iterations used =            4
     Exchange-correlation      = SLA  PW   PBE  PBE ( 1  4  3  4 0 0)


     celldm(1)=    8.40011  celldm(2)=    0.00000  celldm(3)=    0.00000
     celldm(4)=    0.00000  celldm(5)=    0.00000  celldm(6)=    0.00000

     crystal axes: (cart. coord. in units of alat)
               a(1) = ( -0.5000  0.0000  0.5000 )  
               a(2) = (  0.0000  0.5000  0.5000 )  
               a(3) = ( -0.5000  0.5000  0.0000 )  

     reciprocal axes: (cart. coord. in units 2 pi/alat)
               b(1) = ( -1.0000 -1.0000  1.0000 )  
               b(2) = (  1.0000  1.0000  1.0000 )  
               b(3) = ( -1.0000  1.0000 -1.0000 )  


     Atoms inside the unit cell: 

     Cartesian axes

     site n.  atom      mass           positions (alat units)
        1     Na  22.9900   tau(    1) = (    0.00000    0.00000    0.00000  )

     Computing dynamical matrix for 
                    q = (  -0.1666667   0.1666667  -0.1666667 )

      6 Sym.Ops. (no q -> -q+G )


     G cutoff =  571.9534  (    896 G-vectors)     FFT grid: ( 36, 36, 36)
     G cutoff =  285.9767  (    316 G-vectors)  smooth grid: ( 24, 24, 24)

     number of k points= 11480  Marzari-Vanderbilt smearing, width (Ry)=  0.0200

     PseudoPot. # 1 for Na read from file:
     /home/s1333534/quantum_espresso/qe-6.1/pseudo/Na_pbe_v1.uspp.F.UPF
     MD5 check sum: 76a99c7e9422403d3e93cbc85ab7bccb
     Pseudo is Ultrasoft, Zval =  9.0
     Generated by new atomic code, or converted to UPF format
     Using radial grid of  819 points,  5 beta functions with: 
                l(1) =   0
                l(2) =   0
                l(3) =   1
                l(4) =   1
                l(5) =   2
     Q(r) pseudized with  8 coefficients,  rinner =    1.250   1.250   1.250
                                                       1.250   1.250

     Mode symmetry, C_3v (3m)   point group:


     Atomic displacements:
     There are   2 irreducible representations

     Representation     1      1 modes -A_1  L_1  To be done

     Representation     2      2 modes -E    L_3  To be done



     Alpha used in Ewald sum =   2.8000
     PHONON       :  3m30.99s CPU     3m46.22s WALL



     Representation #  1 mode #   1

     Self-consistent Calculation

      iter #   1 total cpu time :   243.0 secs   av.it.:   5.7
      thresh= 1.000E-02 alpha_mix =  0.700 |ddv_scf|^2 =  4.805E-02

      iter #   2 total cpu time :   260.6 secs   av.it.:   6.8
      thresh= 1.000E-02 alpha_mix =  0.700 |ddv_scf|^2 =  6.403E+00

      iter #   3 total cpu time :   277.8 secs   av.it.:   6.8
      thresh= 1.000E-02 alpha_mix =  0.700 |ddv_scf|^2 =  1.035E-06

      iter #   4 total cpu time :   296.6 secs   av.it.:   7.6
      thresh= 1.017E-04 alpha_mix =  0.700 |ddv_scf|^2 =  1.414E-07

      iter #   5 total cpu time :   314.3 secs   av.it.:   7.3
      thresh= 3.760E-05 alpha_mix =  0.700 |ddv_scf|^2 =  7.312E-09

      iter #   6 total cpu time :   332.4 secs   av.it.:   7.3
      thresh= 8.551E-06 alpha_mix =  0.700 |ddv_scf|^2 =  1.910E-10

      iter #   7 total cpu time :   350.5 secs   av.it.:   7.5
      thresh= 1.382E-06 alpha_mix =  0.700 |ddv_scf|^2 =  1.115E-08

      iter #   8 total cpu time :   364.7 secs   av.it.:   5.4
      thresh= 1.056E-05 alpha_mix =  0.700 |ddv_scf|^2 =  4.512E-11

      iter #   9 total cpu time :   382.4 secs   av.it.:   7.2
      thresh= 6.717E-07 alpha_mix =  0.700 |ddv_scf|^2 =  8.842E-13

      iter #  10 total cpu time :   400.0 secs   av.it.:   7.3
      thresh= 9.403E-08 alpha_mix =  0.700 |ddv_scf|^2 =  9.484E-14

      iter #  11 total cpu time :   417.2 secs   av.it.:   7.1
      thresh= 3.080E-08 alpha_mix =  0.700 |ddv_scf|^2 =  1.494E-15

      iter #  12 total cpu time :   435.4 secs   av.it.:   7.7
      thresh= 3.866E-09 alpha_mix =  0.700 |ddv_scf|^2 =  6.247E-16

      iter #  13 total cpu time :   453.8 secs   av.it.:   7.2
      thresh= 2.499E-09 alpha_mix =  0.700 |ddv_scf|^2 =  8.806E-16

      iter #  14 total cpu time :   467.4 secs   av.it.:   5.1
      thresh= 2.967E-09 alpha_mix =  0.700 |ddv_scf|^2 =  4.886E-17

     End of self-consistent calculation

     Convergence has been achieved 


     Representation #  2 modes #   2  3

     Self-consistent Calculation

      iter #   1 total cpu time :   500.8 secs   av.it.:   5.6
      thresh= 1.000E-02 alpha_mix =  0.700 |ddv_scf|^2 =  3.595E-06

      iter #   2 total cpu time :   540.0 secs   av.it.:   8.4
      thresh= 1.896E-04 alpha_mix =  0.700 |ddv_scf|^2 =  7.009E-08

      iter #   3 total cpu time :   580.0 secs   av.it.:   8.6
      thresh= 2.648E-05 alpha_mix =  0.700 |ddv_scf|^2 =  7.494E-10

      iter #   4 total cpu time :   619.7 secs   av.it.:   8.2
      thresh= 2.738E-06 alpha_mix =  0.700 |ddv_scf|^2 =  2.121E-12

      iter #   5 total cpu time :   659.4 secs   av.it.:   8.5
      thresh= 1.456E-07 alpha_mix =  0.700 |ddv_scf|^2 =  1.156E-14

      iter #   6 total cpu time :   698.8 secs   av.it.:   8.3
      thresh= 1.075E-08 alpha_mix =  0.700 |ddv_scf|^2 =  1.159E-16

      iter #   7 total cpu time :   738.7 secs   av.it.:   8.6
      thresh= 1.077E-09 alpha_mix =  0.700 |ddv_scf|^2 =  9.251E-20

     End of self-consistent calculation

     Convergence has been achieved 

     Number of q in the star =    8
     List of q in the star:
          1  -0.166666667   0.166666667  -0.166666667
          2   0.166666667   0.166666667   0.166666667
          3  -0.166666667  -0.166666667  -0.166666667
          4   0.166666667  -0.166666667   0.166666667
          5   0.166666667  -0.166666667  -0.166666667
          6   0.166666667   0.166666667  -0.166666667
          7  -0.166666667  -0.166666667   0.166666667
          8  -0.166666667   0.166666667   0.166666667

     Diagonalizing the dynamical matrix

     q = (   -0.166666667   0.166666667  -0.166666667 ) 

 **************************************************************************
     freq (    1) =       1.160077 [THz] =      38.695995 [cm-1]
     freq (    2) =       1.160077 [THz] =      38.695995 [cm-1]
     freq (    3) =       3.708668 [THz] =     123.707862 [cm-1]
 **************************************************************************

     Mode symmetry, C_3v (3m)   point group:

     freq (  1 -  2) =         38.7  [cm-1]   --> E    L_3           
     freq (  3 -  3) =        123.7  [cm-1]   --> A_1  L_1           

     Calculation of q =   -0.3333333   0.3333333  -0.3333333

   Info: using nr1, nr2, nr3 values from input

   Info: using nr1, nr2, nr3 values from input

     Parallelization info
     --------------------
     sticks:   dense  smooth     PW     G-vecs:    dense   smooth      PW
     Min          48      23      9                  894      312      76
     Max          49      24     10                  898      316      79
     Sum         769     379    151                14331     5029    1243



     bravais-lattice index     =            2
     lattice parameter (alat)  =       8.4001  a.u.
     unit-cell volume          =     148.1821 (a.u.)^3
     number of atoms/cell      =            1
     number of atomic types    =            1
     number of electrons       =         9.00
     number of Kohn-Sham states=            9
     kinetic-energy cutoff     =      40.0000  Ry
     charge density cutoff     =     320.0000  Ry
     Exchange-correlation      = SLA  PW   PBE  PBE ( 1  4  3  4 0 0)

     celldm(1)=   8.400115  celldm(2)=   0.000000  celldm(3)=   0.000000
     celldm(4)=   0.000000  celldm(5)=   0.000000  celldm(6)=   0.000000

     crystal axes: (cart. coord. in units of alat)
               a(1) = (  -0.500000   0.000000   0.500000 )  
               a(2) = (   0.000000   0.500000   0.500000 )  
               a(3) = (  -0.500000   0.500000   0.000000 )  

     reciprocal axes: (cart. coord. in units 2 pi/alat)
               b(1) = ( -1.000000 -1.000000  1.000000 )  
               b(2) = (  1.000000  1.000000  1.000000 )  
               b(3) = ( -1.000000  1.000000 -1.000000 )  


     PseudoPot. # 1 for Na read from file:
     /home/s1333534/quantum_espresso/qe-6.1/pseudo/Na_pbe_v1.uspp.F.UPF
     MD5 check sum: 76a99c7e9422403d3e93cbc85ab7bccb
     Pseudo is Ultrasoft, Zval =  9.0
     Generated by new atomic code, or converted to UPF format
     Using radial grid of  819 points,  5 beta functions with: 
                l(1) =   0
                l(2) =   0
                l(3) =   1
                l(4) =   1
                l(5) =   2
     Q(r) pseudized with  8 coefficients,  rinner =    1.250   1.250   1.250
                                                       1.250   1.250

     atomic species   valence    mass     pseudopotential
        Na             9.00    22.99000     Na( 1.00)

     48 Sym. Ops., with inversion, found



   Cartesian axes

     site n.     atom                  positions (alat units)
         1           Na  tau(   1) = (   0.0000000   0.0000000   0.0000000  )

     number of k points= 11480  Marzari-Vanderbilt smearing, width (Ry)=  0.0200

     Number of k-points >= 100: set verbosity='high' to print them.

     Dense  grid:    14331 G-vectors     FFT dimensions: (  36,  36,  36)

     Smooth grid:     5029 G-vectors     FFT dimensions: (  24,  24,  24)

     Estimated max dynamical RAM per process >       0.49MB

     Estimated total allocated dynamical RAM >      31.49MB

     The potential is recalculated from file :
     ./_ph0/na.fcc.save/charge-density.dat

     Starting wfc are    5 atomic +    4 random wfc

     Band Structure Calculation
     Davidson diagonalization with overlap

     ethr =  1.11E-10,  avg # of iterations = 16.4

     total cpu time spent up to now is      282.9 secs

     End of band structure calculation

     Number of k-points >= 100: set verbosity='high' to print the bands.

     the Fermi energy is     4.5382 ev

     Writing output data file na.fcc.save

                                                                                

     bravais-lattice index     =            2
     lattice parameter (alat)  =       8.4001  a.u.
     unit-cell volume          =     148.1821 (a.u.)^3
     number of atoms/cell      =            1
     number of atomic types    =            1
     kinetic-energy cut-off    =      40.0000  Ry
     charge density cut-off    =     320.0000  Ry
     convergence threshold     =      1.0E-16
     beta                      =       0.7000
     number of iterations used =            4
     Exchange-correlation      = SLA  PW   PBE  PBE ( 1  4  3  4 0 0)


     celldm(1)=    8.40011  celldm(2)=    0.00000  celldm(3)=    0.00000
     celldm(4)=    0.00000  celldm(5)=    0.00000  celldm(6)=    0.00000

     crystal axes: (cart. coord. in units of alat)
               a(1) = ( -0.5000  0.0000  0.5000 )  
               a(2) = (  0.0000  0.5000  0.5000 )  
               a(3) = ( -0.5000  0.5000  0.0000 )  

     reciprocal axes: (cart. coord. in units 2 pi/alat)
               b(1) = ( -1.0000 -1.0000  1.0000 )  
               b(2) = (  1.0000  1.0000  1.0000 )  
               b(3) = ( -1.0000  1.0000 -1.0000 )  


     Atoms inside the unit cell: 

     Cartesian axes

     site n.  atom      mass           positions (alat units)
        1     Na  22.9900   tau(    1) = (    0.00000    0.00000    0.00000  )

     Computing dynamical matrix for 
                    q = (  -0.3333333   0.3333333  -0.3333333 )

      6 Sym.Ops. (no q -> -q+G )


     G cutoff =  571.9534  (    896 G-vectors)     FFT grid: ( 36, 36, 36)
     G cutoff =  285.9767  (    316 G-vectors)  smooth grid: ( 24, 24, 24)

     number of k points= 11480  Marzari-Vanderbilt smearing, width (Ry)=  0.0200

     PseudoPot. # 1 for Na read from file:
     /home/s1333534/quantum_espresso/qe-6.1/pseudo/Na_pbe_v1.uspp.F.UPF
     MD5 check sum: 76a99c7e9422403d3e93cbc85ab7bccb
     Pseudo is Ultrasoft, Zval =  9.0
     Generated by new atomic code, or converted to UPF format
     Using radial grid of  819 points,  5 beta functions with: 
                l(1) =   0
                l(2) =   0
                l(3) =   1
                l(4) =   1
                l(5) =   2
     Q(r) pseudized with  8 coefficients,  rinner =    1.250   1.250   1.250
                                                       1.250   1.250

     Mode symmetry, C_3v (3m)   point group:


     Atomic displacements:
     There are   2 irreducible representations

     Representation     1      1 modes -A_1  L_1  To be done

     Representation     2      2 modes -E    L_3  To be done



     Alpha used in Ewald sum =   2.8000
     PHONON       : 13m41.97s CPU    15m 4.74s WALL



     Representation #  1 mode #   1

     Self-consistent Calculation

      iter #   1 total cpu time :   922.4 secs   av.it.:   5.8
      thresh= 1.000E-02 alpha_mix =  0.700 |ddv_scf|^2 =  8.253E-04

      iter #   2 total cpu time :   940.0 secs   av.it.:   6.7
      thresh= 2.873E-03 alpha_mix =  0.700 |ddv_scf|^2 =  4.417E-03

      iter #   3 total cpu time :   955.8 secs   av.it.:   6.1
      thresh= 6.646E-03 alpha_mix =  0.700 |ddv_scf|^2 =  8.582E-07

      iter #   4 total cpu time :   974.6 secs   av.it.:   7.7
      thresh= 9.264E-05 alpha_mix =  0.700 |ddv_scf|^2 =  1.066E-08

      iter #   5 total cpu time :   994.3 secs   av.it.:   8.3
      thresh= 1.032E-05 alpha_mix =  0.700 |ddv_scf|^2 =  1.081E-09

      iter #   6 total cpu time :  1014.6 secs   av.it.:   7.9
      thresh= 3.288E-06 alpha_mix =  0.700 |ddv_scf|^2 =  1.880E-11

      iter #   7 total cpu time :  1033.6 secs   av.it.:   7.6
      thresh= 4.336E-07 alpha_mix =  0.700 |ddv_scf|^2 =  2.998E-13

      iter #   8 total cpu time :  1052.3 secs   av.it.:   7.7
      thresh= 5.475E-08 alpha_mix =  0.700 |ddv_scf|^2 =  7.204E-16

      iter #   9 total cpu time :  1070.8 secs   av.it.:   7.7
      thresh= 2.684E-09 alpha_mix =  0.700 |ddv_scf|^2 =  2.025E-16

      iter #  10 total cpu time :  1088.8 secs   av.it.:   7.3
      thresh= 1.423E-09 alpha_mix =  0.700 |ddv_scf|^2 =  4.622E-16

      iter #  11 total cpu time :  1105.9 secs   av.it.:   6.6
      thresh= 2.150E-09 alpha_mix =  0.700 |ddv_scf|^2 =  3.926E-18

     End of self-consistent calculation

     Convergence has been achieved 


     Representation #  2 modes #   2  3

     Self-consistent Calculation

      iter #   1 total cpu time :  1140.5 secs   av.it.:   5.6
      thresh= 1.000E-02 alpha_mix =  0.700 |ddv_scf|^2 =  3.723E-06

      iter #   2 total cpu time :  1181.1 secs   av.it.:   8.3
      thresh= 1.930E-04 alpha_mix =  0.700 |ddv_scf|^2 =  6.917E-08

      iter #   3 total cpu time :  1221.6 secs   av.it.:   8.6
      thresh= 2.630E-05 alpha_mix =  0.700 |ddv_scf|^2 =  9.469E-10

      iter #   4 total cpu time :  1260.8 secs   av.it.:   8.2
      thresh= 3.077E-06 alpha_mix =  0.700 |ddv_scf|^2 =  2.810E-12

      iter #   5 total cpu time :  1301.2 secs   av.it.:   8.5
      thresh= 1.676E-07 alpha_mix =  0.700 |ddv_scf|^2 =  1.094E-14

      iter #   6 total cpu time :  1340.7 secs   av.it.:   8.2
      thresh= 1.046E-08 alpha_mix =  0.700 |ddv_scf|^2 =  1.852E-16

      iter #   7 total cpu time :  1380.6 secs   av.it.:   8.5
      thresh= 1.361E-09 alpha_mix =  0.700 |ddv_scf|^2 =  1.404E-19

     End of self-consistent calculation

     Convergence has been achieved 

     Number of q in the star =    8
     List of q in the star:
          1  -0.333333333   0.333333333  -0.333333333
          2   0.333333333   0.333333333   0.333333333
          3  -0.333333333  -0.333333333  -0.333333333
          4   0.333333333  -0.333333333   0.333333333
          5   0.333333333  -0.333333333  -0.333333333
          6   0.333333333   0.333333333  -0.333333333
          7  -0.333333333  -0.333333333   0.333333333
          8  -0.333333333   0.333333333   0.333333333

     Diagonalizing the dynamical matrix

     q = (   -0.333333333   0.333333333  -0.333333333 ) 

 **************************************************************************
     freq (    1) =       1.986142 [THz] =      66.250551 [cm-1]
     freq (    2) =       1.986142 [THz] =      66.250551 [cm-1]
     freq (    3) =       6.529606 [THz] =     217.804209 [cm-1]
 **************************************************************************

     Mode symmetry, C_3v (3m)   point group:

     freq (  1 -  2) =         66.3  [cm-1]   --> E    L_3           
     freq (  3 -  3) =        217.8  [cm-1]   --> A_1  L_1           

     Calculation of q =    0.5000000  -0.5000000   0.5000000

   Info: using nr1, nr2, nr3 values from input

   Info: using nr1, nr2, nr3 values from input

     Parallelization info
     --------------------
     sticks:   dense  smooth     PW     G-vecs:    dense   smooth      PW
     Min          48      23     10                  894      312      84
     Max          49      24     11                  898      316      86
     Sum         769     379    163                14331     5029    1363



     bravais-lattice index     =            2
     lattice parameter (alat)  =       8.4001  a.u.
     unit-cell volume          =     148.1821 (a.u.)^3
     number of atoms/cell      =            1
     number of atomic types    =            1
     number of electrons       =         9.00
     number of Kohn-Sham states=            9
     kinetic-energy cutoff     =      40.0000  Ry
     charge density cutoff     =     320.0000  Ry
     Exchange-correlation      = SLA  PW   PBE  PBE ( 1  4  3  4 0 0)

     celldm(1)=   8.400115  celldm(2)=   0.000000  celldm(3)=   0.000000
     celldm(4)=   0.000000  celldm(5)=   0.000000  celldm(6)=   0.000000

     crystal axes: (cart. coord. in units of alat)
               a(1) = (  -0.500000   0.000000   0.500000 )  
               a(2) = (   0.000000   0.500000   0.500000 )  
               a(3) = (  -0.500000   0.500000   0.000000 )  

     reciprocal axes: (cart. coord. in units 2 pi/alat)
               b(1) = ( -1.000000 -1.000000  1.000000 )  
               b(2) = (  1.000000  1.000000  1.000000 )  
               b(3) = ( -1.000000  1.000000 -1.000000 )  


     PseudoPot. # 1 for Na read from file:
     /home/s1333534/quantum_espresso/qe-6.1/pseudo/Na_pbe_v1.uspp.F.UPF
     MD5 check sum: 76a99c7e9422403d3e93cbc85ab7bccb
     Pseudo is Ultrasoft, Zval =  9.0
     Generated by new atomic code, or converted to UPF format
     Using radial grid of  819 points,  5 beta functions with: 
                l(1) =   0
                l(2) =   0
                l(3) =   1
                l(4) =   1
                l(5) =   2
     Q(r) pseudized with  8 coefficients,  rinner =    1.250   1.250   1.250
                                                       1.250   1.250

     atomic species   valence    mass     pseudopotential
        Na             9.00    22.99000     Na( 1.00)

     48 Sym. Ops., with inversion, found



   Cartesian axes

     site n.     atom                  positions (alat units)
         1           Na  tau(   1) = (   0.0000000   0.0000000   0.0000000  )

     number of k points=  5740  Marzari-Vanderbilt smearing, width (Ry)=  0.0200

     Number of k-points >= 100: set verbosity='high' to print them.

     Dense  grid:    14331 G-vectors     FFT dimensions: (  36,  36,  36)

     Smooth grid:     5029 G-vectors     FFT dimensions: (  24,  24,  24)

     Estimated max dynamical RAM per process >       0.49MB

     Estimated total allocated dynamical RAM >      31.49MB

     The potential is recalculated from file :
     ./_ph0/na.fcc.save/charge-density.dat

     Starting wfc are    5 atomic +    4 random wfc

     Band Structure Calculation
     Davidson diagonalization with overlap

     ethr =  1.11E-10,  avg # of iterations = 16.4

     total cpu time spent up to now is      381.9 secs

     End of band structure calculation

     Number of k-points >= 100: set verbosity='high' to print the bands.

     the Fermi energy is     4.5382 ev

     Writing output data file na.fcc.save

                                                                                

     bravais-lattice index     =            2
     lattice parameter (alat)  =       8.4001  a.u.
     unit-cell volume          =     148.1821 (a.u.)^3
     number of atoms/cell      =            1
     number of atomic types    =            1
     kinetic-energy cut-off    =      40.0000  Ry
     charge density cut-off    =     320.0000  Ry
     convergence threshold     =      1.0E-16
     beta                      =       0.7000
     number of iterations used =            4
     Exchange-correlation      = SLA  PW   PBE  PBE ( 1  4  3  4 0 0)


     celldm(1)=    8.40011  celldm(2)=    0.00000  celldm(3)=    0.00000
     celldm(4)=    0.00000  celldm(5)=    0.00000  celldm(6)=    0.00000

     crystal axes: (cart. coord. in units of alat)
               a(1) = ( -0.5000  0.0000  0.5000 )  
               a(2) = (  0.0000  0.5000  0.5000 )  
               a(3) = ( -0.5000  0.5000  0.0000 )  

     reciprocal axes: (cart. coord. in units 2 pi/alat)
               b(1) = ( -1.0000 -1.0000  1.0000 )  
               b(2) = (  1.0000  1.0000  1.0000 )  
               b(3) = ( -1.0000  1.0000 -1.0000 )  


     Atoms inside the unit cell: 

     Cartesian axes

     site n.  atom      mass           positions (alat units)
        1     Na  22.9900   tau(    1) = (    0.00000    0.00000    0.00000  )

     Computing dynamical matrix for 
                    q = (   0.5000000  -0.5000000   0.5000000 )

     13 Sym.Ops. (with q -> -q+G )


     G cutoff =  571.9534  (    896 G-vectors)     FFT grid: ( 36, 36, 36)
     G cutoff =  285.9767  (    316 G-vectors)  smooth grid: ( 24, 24, 24)

     number of k points=  5740  Marzari-Vanderbilt smearing, width (Ry)=  0.0200

     PseudoPot. # 1 for Na read from file:
     /home/s1333534/quantum_espresso/qe-6.1/pseudo/Na_pbe_v1.uspp.F.UPF
     MD5 check sum: 76a99c7e9422403d3e93cbc85ab7bccb
     Pseudo is Ultrasoft, Zval =  9.0
     Generated by new atomic code, or converted to UPF format
     Using radial grid of  819 points,  5 beta functions with: 
                l(1) =   0
                l(2) =   0
                l(3) =   1
                l(4) =   1
                l(5) =   2
     Q(r) pseudized with  8 coefficients,  rinner =    1.250   1.250   1.250
                                                       1.250   1.250

     Mode symmetry, D_3d (-3m)  point group:


     Atomic displacements:
     There are   2 irreducible representations

     Representation     1      1 modes -A_2u L_2'  To be done

     Representation     2      2 modes -E_u  L_3'  To be done



     Alpha used in Ewald sum =   2.8000
     PHONON       : 22m 6.61s CPU    24m27.98s WALL



     Representation #  1 mode #   1

     Self-consistent Calculation

      iter #   1 total cpu time :  1477.4 secs   av.it.:   5.8
      thresh= 1.000E-02 alpha_mix =  0.700 |ddv_scf|^2 =  1.692E-04

      iter #   2 total cpu time :  1487.1 secs   av.it.:   7.1
      thresh= 1.301E-03 alpha_mix =  0.700 |ddv_scf|^2 =  9.404E-05

      iter #   3 total cpu time :  1496.4 secs   av.it.:   6.9
      thresh= 9.697E-04 alpha_mix =  0.700 |ddv_scf|^2 =  9.010E-08

      iter #   4 total cpu time :  1506.8 secs   av.it.:   7.9
      thresh= 3.002E-05 alpha_mix =  0.700 |ddv_scf|^2 =  3.312E-10

      iter #   5 total cpu time :  1516.1 secs   av.it.:   6.9
      thresh= 1.820E-06 alpha_mix =  0.700 |ddv_scf|^2 =  8.719E-12

      iter #   6 total cpu time :  1525.2 secs   av.it.:   6.7
      thresh= 2.953E-07 alpha_mix =  0.700 |ddv_scf|^2 =  1.073E-14

      iter #   7 total cpu time :  1535.1 secs   av.it.:   7.4
      thresh= 1.036E-08 alpha_mix =  0.700 |ddv_scf|^2 =  1.445E-17

     End of self-consistent calculation

     Convergence has been achieved 


     Representation #  2 modes #   2  3

     Self-consistent Calculation

      iter #   1 total cpu time :  1553.1 secs   av.it.:   5.5
      thresh= 1.000E-02 alpha_mix =  0.700 |ddv_scf|^2 =  3.783E-06

      iter #   2 total cpu time :  1574.7 secs   av.it.:   8.3
      thresh= 1.945E-04 alpha_mix =  0.700 |ddv_scf|^2 =  6.893E-08

      iter #   3 total cpu time :  1596.4 secs   av.it.:   8.5
      thresh= 2.625E-05 alpha_mix =  0.700 |ddv_scf|^2 =  1.029E-09

      iter #   4 total cpu time :  1617.2 secs   av.it.:   7.9
      thresh= 3.207E-06 alpha_mix =  0.700 |ddv_scf|^2 =  3.047E-12

      iter #   5 total cpu time :  1638.7 secs   av.it.:   8.2
      thresh= 1.745E-07 alpha_mix =  0.700 |ddv_scf|^2 =  1.081E-14

      iter #   6 total cpu time :  1659.4 secs   av.it.:   8.1
      thresh= 1.040E-08 alpha_mix =  0.700 |ddv_scf|^2 =  2.007E-16

      iter #   7 total cpu time :  1680.2 secs   av.it.:   8.2
      thresh= 1.417E-09 alpha_mix =  0.700 |ddv_scf|^2 =  1.215E-19

     End of self-consistent calculation

     Convergence has been achieved 

     Number of q in the star =    4
     List of q in the star:
          1   0.500000000  -0.500000000   0.500000000
          2   0.500000000   0.500000000   0.500000000
          3  -0.500000000   0.500000000   0.500000000
          4   0.500000000   0.500000000  -0.500000000

     Diagonalizing the dynamical matrix

     q = (    0.500000000  -0.500000000   0.500000000 ) 

 **************************************************************************
     freq (    1) =       2.293759 [THz] =      76.511568 [cm-1]
     freq (    2) =       2.293759 [THz] =      76.511568 [cm-1]
     freq (    3) =       7.582648 [THz] =     252.929899 [cm-1]
 **************************************************************************

     Mode symmetry, D_3d (-3m)  point group:

     freq (  1 -  2) =         76.5  [cm-1]   --> E_u  L_3'          
     freq (  3 -  3) =        252.9  [cm-1]   --> A_2u L_2'          

     Calculation of q =    0.0000000   0.3333333   0.0000000

   Info: using nr1, nr2, nr3 values from input

   Info: using nr1, nr2, nr3 values from input

     Parallelization info
     --------------------
     sticks:   dense  smooth     PW     G-vecs:    dense   smooth      PW
     Min          48      23      9                  894      312      70
     Max          49      24     10                  898      316      72
     Sum         769     379    151                14331     5029    1139



     bravais-lattice index     =            2
     lattice parameter (alat)  =       8.4001  a.u.
     unit-cell volume          =     148.1821 (a.u.)^3
     number of atoms/cell      =            1
     number of atomic types    =            1
     number of electrons       =         9.00
     number of Kohn-Sham states=            9
     kinetic-energy cutoff     =      40.0000  Ry
     charge density cutoff     =     320.0000  Ry
     Exchange-correlation      = SLA  PW   PBE  PBE ( 1  4  3  4 0 0)

     celldm(1)=   8.400115  celldm(2)=   0.000000  celldm(3)=   0.000000
     celldm(4)=   0.000000  celldm(5)=   0.000000  celldm(6)=   0.000000

     crystal axes: (cart. coord. in units of alat)
               a(1) = (  -0.500000   0.000000   0.500000 )  
               a(2) = (   0.000000   0.500000   0.500000 )  
               a(3) = (  -0.500000   0.500000   0.000000 )  

     reciprocal axes: (cart. coord. in units 2 pi/alat)
               b(1) = ( -1.000000 -1.000000  1.000000 )  
               b(2) = (  1.000000  1.000000  1.000000 )  
               b(3) = ( -1.000000  1.000000 -1.000000 )  


     PseudoPot. # 1 for Na read from file:
     /home/s1333534/quantum_espresso/qe-6.1/pseudo/Na_pbe_v1.uspp.F.UPF
     MD5 check sum: 76a99c7e9422403d3e93cbc85ab7bccb
     Pseudo is Ultrasoft, Zval =  9.0
     Generated by new atomic code, or converted to UPF format
     Using radial grid of  819 points,  5 beta functions with: 
                l(1) =   0
                l(2) =   0
                l(3) =   1
                l(4) =   1
                l(5) =   2
     Q(r) pseudized with  8 coefficients,  rinner =    1.250   1.250   1.250
                                                       1.250   1.250

     atomic species   valence    mass     pseudopotential
        Na             9.00    22.99000     Na( 1.00)

     48 Sym. Ops., with inversion, found



   Cartesian axes

     site n.     atom                  positions (alat units)
         1           Na  tau(   1) = (   0.0000000   0.0000000   0.0000000  )

     number of k points=  8400  Marzari-Vanderbilt smearing, width (Ry)=  0.0200

     Number of k-points >= 100: set verbosity='high' to print them.

     Dense  grid:    14331 G-vectors     FFT dimensions: (  36,  36,  36)

     Smooth grid:     5029 G-vectors     FFT dimensions: (  24,  24,  24)

     Estimated max dynamical RAM per process >       0.49MB

     Estimated total allocated dynamical RAM >      31.49MB

     The potential is recalculated from file :
     ./_ph0/na.fcc.save/charge-density.dat

     Starting wfc are    5 atomic +    4 random wfc

     Band Structure Calculation
     Davidson diagonalization with overlap

     ethr =  1.11E-10,  avg # of iterations = 16.4

     total cpu time spent up to now is      490.5 secs

     End of band structure calculation

     Number of k-points >= 100: set verbosity='high' to print the bands.

     the Fermi energy is     4.5382 ev

     Writing output data file na.fcc.save

                                                                                

     bravais-lattice index     =            2
     lattice parameter (alat)  =       8.4001  a.u.
     unit-cell volume          =     148.1821 (a.u.)^3
     number of atoms/cell      =            1
     number of atomic types    =            1
     kinetic-energy cut-off    =      40.0000  Ry
     charge density cut-off    =     320.0000  Ry
     convergence threshold     =      1.0E-16
     beta                      =       0.7000
     number of iterations used =            4
     Exchange-correlation      = SLA  PW   PBE  PBE ( 1  4  3  4 0 0)


     celldm(1)=    8.40011  celldm(2)=    0.00000  celldm(3)=    0.00000
     celldm(4)=    0.00000  celldm(5)=    0.00000  celldm(6)=    0.00000

     crystal axes: (cart. coord. in units of alat)
               a(1) = ( -0.5000  0.0000  0.5000 )  
               a(2) = (  0.0000  0.5000  0.5000 )  
               a(3) = ( -0.5000  0.5000  0.0000 )  

     reciprocal axes: (cart. coord. in units 2 pi/alat)
               b(1) = ( -1.0000 -1.0000  1.0000 )  
               b(2) = (  1.0000  1.0000  1.0000 )  
               b(3) = ( -1.0000  1.0000 -1.0000 )  


     Atoms inside the unit cell: 

     Cartesian axes

     site n.  atom      mass           positions (alat units)
        1     Na  22.9900   tau(    1) = (    0.00000    0.00000    0.00000  )

     Computing dynamical matrix for 
                    q = (   0.0000000   0.3333333   0.0000000 )

      8 Sym.Ops. (no q -> -q+G )


     G cutoff =  571.9534  (    896 G-vectors)     FFT grid: ( 36, 36, 36)
     G cutoff =  285.9767  (    316 G-vectors)  smooth grid: ( 24, 24, 24)

     number of k points=  8400  Marzari-Vanderbilt smearing, width (Ry)=  0.0200

     PseudoPot. # 1 for Na read from file:
     /home/s1333534/quantum_espresso/qe-6.1/pseudo/Na_pbe_v1.uspp.F.UPF
     MD5 check sum: 76a99c7e9422403d3e93cbc85ab7bccb
     Pseudo is Ultrasoft, Zval =  9.0
     Generated by new atomic code, or converted to UPF format
     Using radial grid of  819 points,  5 beta functions with: 
                l(1) =   0
                l(2) =   0
                l(3) =   1
                l(4) =   1
                l(5) =   2
     Q(r) pseudized with  8 coefficients,  rinner =    1.250   1.250   1.250
                                                       1.250   1.250

     Mode symmetry, C_4v (4mm)  point group:


     Atomic displacements:
     There are   2 irreducible representations

     Representation     1      1 modes -A_1  G_1 D_1  To be done

     Representation     2      2 modes -E    G_5 D_5  To be done



     Alpha used in Ewald sum =   2.8000
     PHONON       : 27m12.82s CPU    30m 2.85s WALL



     Representation #  1 mode #   1

     Self-consistent Calculation

      iter #   1 total cpu time :  1815.4 secs   av.it.:   5.7
      thresh= 1.000E-02 alpha_mix =  0.700 |ddv_scf|^2 =  2.064E-02

      iter #   2 total cpu time :  1827.7 secs   av.it.:   6.7
      thresh= 1.000E-02 alpha_mix =  0.700 |ddv_scf|^2 =  1.499E+00

      iter #   3 total cpu time :  1840.1 secs   av.it.:   6.7
      thresh= 1.000E-02 alpha_mix =  0.700 |ddv_scf|^2 =  3.500E-06

      iter #   4 total cpu time :  1853.2 secs   av.it.:   7.3
      thresh= 1.871E-04 alpha_mix =  0.700 |ddv_scf|^2 =  1.395E-07

      iter #   5 total cpu time :  1866.1 secs   av.it.:   7.3
      thresh= 3.735E-05 alpha_mix =  0.700 |ddv_scf|^2 =  2.533E-09

      iter #   6 total cpu time :  1879.5 secs   av.it.:   7.5
      thresh= 5.033E-06 alpha_mix =  0.700 |ddv_scf|^2 =  5.024E-11

      iter #   7 total cpu time :  1893.1 secs   av.it.:   7.8
      thresh= 7.088E-07 alpha_mix =  0.700 |ddv_scf|^2 =  7.247E-12

      iter #   8 total cpu time :  1906.1 secs   av.it.:   7.2
      thresh= 2.692E-07 alpha_mix =  0.700 |ddv_scf|^2 =  1.465E-10

      iter #   9 total cpu time :  1916.9 secs   av.it.:   5.3
      thresh= 1.210E-06 alpha_mix =  0.700 |ddv_scf|^2 =  1.635E-14

      iter #  10 total cpu time :  1930.8 secs   av.it.:   8.0
      thresh= 1.279E-08 alpha_mix =  0.700 |ddv_scf|^2 =  4.602E-14

      iter #  11 total cpu time :  1943.6 secs   av.it.:   6.9
      thresh= 2.145E-08 alpha_mix =  0.700 |ddv_scf|^2 =  1.253E-15

      iter #  12 total cpu time :  1956.1 secs   av.it.:   6.9
      thresh= 3.539E-09 alpha_mix =  0.700 |ddv_scf|^2 =  7.179E-18

     End of self-consistent calculation

     Convergence has been achieved 


     Representation #  2 modes #   2  3

     Self-consistent Calculation

      iter #   1 total cpu time :  1981.1 secs   av.it.:   5.6
      thresh= 1.000E-02 alpha_mix =  0.700 |ddv_scf|^2 =  3.819E-06

      iter #   2 total cpu time :  2010.4 secs   av.it.:   8.4
      thresh= 1.954E-04 alpha_mix =  0.700 |ddv_scf|^2 =  6.625E-08

      iter #   3 total cpu time :  2039.9 secs   av.it.:   8.6
      thresh= 2.574E-05 alpha_mix =  0.700 |ddv_scf|^2 =  1.266E-09

      iter #   4 total cpu time :  2068.2 secs   av.it.:   8.2
      thresh= 3.558E-06 alpha_mix =  0.700 |ddv_scf|^2 =  3.650E-12

      iter #   5 total cpu time :  2097.1 secs   av.it.:   8.4
      thresh= 1.911E-07 alpha_mix =  0.700 |ddv_scf|^2 =  8.786E-15

      iter #   6 total cpu time :  2125.8 secs   av.it.:   8.1
      thresh= 9.373E-09 alpha_mix =  0.700 |ddv_scf|^2 =  2.462E-16

      iter #   7 total cpu time :  2154.2 secs   av.it.:   8.2
      thresh= 1.569E-09 alpha_mix =  0.700 |ddv_scf|^2 =  1.961E-19

     End of self-consistent calculation

     Convergence has been achieved 

     Number of q in the star =    6
     List of q in the star:
          1   0.000000000   0.333333333   0.000000000
          2   0.333333333   0.000000000   0.000000000
          3   0.000000000   0.000000000   0.333333333
          4   0.000000000  -0.333333333   0.000000000
          5  -0.333333333   0.000000000   0.000000000
          6   0.000000000   0.000000000  -0.333333333

     Diagonalizing the dynamical matrix

     q = (    0.000000000   0.333333333   0.000000000 ) 

 **************************************************************************
     freq (    1) =       2.074495 [THz] =      69.197690 [cm-1]
     freq (    2) =       2.074495 [THz] =      69.197690 [cm-1]
     freq (    3) =       3.568736 [THz] =     119.040226 [cm-1]
 **************************************************************************

     Mode symmetry, C_4v (4mm)  point group:

     freq (  1 -  2) =         69.2  [cm-1]   --> E    G_5 D_5       
     freq (  3 -  3) =        119.0  [cm-1]   --> A_1  G_1 D_1       

     Calculation of q =   -0.1666667   0.5000000  -0.1666667

   Info: using nr1, nr2, nr3 values from input

   Info: using nr1, nr2, nr3 values from input

     Parallelization info
     --------------------
     sticks:   dense  smooth     PW     G-vecs:    dense   smooth      PW
     Min          48      23      9                  894      312      76
     Max          49      24     10                  898      316      79
     Sum         769     379    151                14331     5029    1243



     bravais-lattice index     =            2
     lattice parameter (alat)  =       8.4001  a.u.
     unit-cell volume          =     148.1821 (a.u.)^3
     number of atoms/cell      =            1
     number of atomic types    =            1
     number of electrons       =         9.00
     number of Kohn-Sham states=            9
     kinetic-energy cutoff     =      40.0000  Ry
     charge density cutoff     =     320.0000  Ry
     Exchange-correlation      = SLA  PW   PBE  PBE ( 1  4  3  4 0 0)

     celldm(1)=   8.400115  celldm(2)=   0.000000  celldm(3)=   0.000000
     celldm(4)=   0.000000  celldm(5)=   0.000000  celldm(6)=   0.000000

     crystal axes: (cart. coord. in units of alat)
               a(1) = (  -0.500000   0.000000   0.500000 )  
               a(2) = (   0.000000   0.500000   0.500000 )  
               a(3) = (  -0.500000   0.500000   0.000000 )  

     reciprocal axes: (cart. coord. in units 2 pi/alat)
               b(1) = ( -1.000000 -1.000000  1.000000 )  
               b(2) = (  1.000000  1.000000  1.000000 )  
               b(3) = ( -1.000000  1.000000 -1.000000 )  


     PseudoPot. # 1 for Na read from file:
     /home/s1333534/quantum_espresso/qe-6.1/pseudo/Na_pbe_v1.uspp.F.UPF
     MD5 check sum: 76a99c7e9422403d3e93cbc85ab7bccb
     Pseudo is Ultrasoft, Zval =  9.0
     Generated by new atomic code, or converted to UPF format
     Using radial grid of  819 points,  5 beta functions with: 
                l(1) =   0
                l(2) =   0
                l(3) =   1
                l(4) =   1
                l(5) =   2
     Q(r) pseudized with  8 coefficients,  rinner =    1.250   1.250   1.250
                                                       1.250   1.250

     atomic species   valence    mass     pseudopotential
        Na             9.00    22.99000     Na( 1.00)

     48 Sym. Ops., with inversion, found



   Cartesian axes

     site n.     atom                  positions (alat units)
         1           Na  tau(   1) = (   0.0000000   0.0000000   0.0000000  )

     number of k points= 32800  Marzari-Vanderbilt smearing, width (Ry)=  0.0200

     Number of k-points >= 100: set verbosity='high' to print them.

     Dense  grid:    14331 G-vectors     FFT dimensions: (  36,  36,  36)

     Smooth grid:     5029 G-vectors     FFT dimensions: (  24,  24,  24)

     Estimated max dynamical RAM per process >       0.49MB

     Estimated total allocated dynamical RAM >      31.49MB

     The potential is recalculated from file :
     ./_ph0/na.fcc.save/charge-density.dat

     Starting wfc are    5 atomic +    4 random wfc

     Band Structure Calculation
     Davidson diagonalization with overlap

     ethr =  1.11E-10,  avg # of iterations = 16.4

     total cpu time spent up to now is      883.2 secs

     End of band structure calculation

     Number of k-points >= 100: set verbosity='high' to print the bands.

     the Fermi energy is     4.5382 ev

     Writing output data file na.fcc.save

                                                                                

     bravais-lattice index     =            2
     lattice parameter (alat)  =       8.4001  a.u.
     unit-cell volume          =     148.1821 (a.u.)^3
     number of atoms/cell      =            1
     number of atomic types    =            1
     kinetic-energy cut-off    =      40.0000  Ry
     charge density cut-off    =     320.0000  Ry
     convergence threshold     =      1.0E-16
     beta                      =       0.7000
     number of iterations used =            4
     Exchange-correlation      = SLA  PW   PBE  PBE ( 1  4  3  4 0 0)


     celldm(1)=    8.40011  celldm(2)=    0.00000  celldm(3)=    0.00000
     celldm(4)=    0.00000  celldm(5)=    0.00000  celldm(6)=    0.00000

     crystal axes: (cart. coord. in units of alat)
               a(1) = ( -0.5000  0.0000  0.5000 )  
               a(2) = (  0.0000  0.5000  0.5000 )  
               a(3) = ( -0.5000  0.5000  0.0000 )  

     reciprocal axes: (cart. coord. in units 2 pi/alat)
               b(1) = ( -1.0000 -1.0000  1.0000 )  
               b(2) = (  1.0000  1.0000  1.0000 )  
               b(3) = ( -1.0000  1.0000 -1.0000 )  


     Atoms inside the unit cell: 

     Cartesian axes

     site n.  atom      mass           positions (alat units)
        1     Na  22.9900   tau(    1) = (    0.00000    0.00000    0.00000  )

     Computing dynamical matrix for 
                    q = (  -0.1666667   0.5000000  -0.1666667 )

      2 Sym.Ops. (no q -> -q+G )


     G cutoff =  571.9534  (    896 G-vectors)     FFT grid: ( 36, 36, 36)
     G cutoff =  285.9767  (    316 G-vectors)  smooth grid: ( 24, 24, 24)

     number of k points= 32800  Marzari-Vanderbilt smearing, width (Ry)=  0.0200

     PseudoPot. # 1 for Na read from file:
     /home/s1333534/quantum_espresso/qe-6.1/pseudo/Na_pbe_v1.uspp.F.UPF
     MD5 check sum: 76a99c7e9422403d3e93cbc85ab7bccb
     Pseudo is Ultrasoft, Zval =  9.0
     Generated by new atomic code, or converted to UPF format
     Using radial grid of  819 points,  5 beta functions with: 
                l(1) =   0
                l(2) =   0
                l(3) =   1
                l(4) =   1
                l(5) =   2
     Q(r) pseudized with  8 coefficients,  rinner =    1.250   1.250   1.250
                                                       1.250   1.250

     Mode symmetry, C_s (m)     point group:


     Atomic displacements:
     There are   3 irreducible representations

     Representation     1      1 modes -A'  To be done

     Representation     2      1 modes -A'  To be done

     Representation     3      1 modes -A''  To be done



     Alpha used in Ewald sum =   2.8000
     PHONON       : 40m 6.18s CPU    44m 3.17s WALL



     Representation #  1 mode #   1

     Self-consistent Calculation

      iter #   1 total cpu time :  2694.1 secs   av.it.:   5.9
      thresh= 1.000E-02 alpha_mix =  0.700 |ddv_scf|^2 =  9.149E-04

      iter #   2 total cpu time :  2744.7 secs   av.it.:   6.9
      thresh= 3.025E-03 alpha_mix =  0.700 |ddv_scf|^2 =  6.225E-03

      iter #   3 total cpu time :  2790.2 secs   av.it.:   5.9
      thresh= 7.890E-03 alpha_mix =  0.700 |ddv_scf|^2 =  9.203E-07

      iter #   4 total cpu time :  2844.9 secs   av.it.:   7.8
      thresh= 9.593E-05 alpha_mix =  0.700 |ddv_scf|^2 =  5.808E-09

      iter #   5 total cpu time :  2903.5 secs   av.it.:   8.4
      thresh= 7.621E-06 alpha_mix =  0.700 |ddv_scf|^2 =  1.049E-09

      iter #   6 total cpu time :  2958.7 secs   av.it.:   7.9
      thresh= 3.239E-06 alpha_mix =  0.700 |ddv_scf|^2 =  1.797E-11

      iter #   7 total cpu time :  3013.6 secs   av.it.:   7.8
      thresh= 4.239E-07 alpha_mix =  0.700 |ddv_scf|^2 =  2.255E-11

      iter #   8 total cpu time :  3062.4 secs   av.it.:   6.6
      thresh= 4.748E-07 alpha_mix =  0.700 |ddv_scf|^2 =  3.345E-12

      iter #   9 total cpu time :  3116.0 secs   av.it.:   7.4
      thresh= 1.829E-07 alpha_mix =  0.700 |ddv_scf|^2 =  4.915E-13

      iter #  10 total cpu time :  3166.8 secs   av.it.:   7.1
      thresh= 7.010E-08 alpha_mix =  0.700 |ddv_scf|^2 =  4.583E-15

      iter #  11 total cpu time :  3224.6 secs   av.it.:   8.4
      thresh= 6.770E-09 alpha_mix =  0.700 |ddv_scf|^2 =  4.905E-16

      iter #  12 total cpu time :  3279.7 secs   av.it.:   7.9
      thresh= 2.215E-09 alpha_mix =  0.700 |ddv_scf|^2 =  3.513E-17

     End of self-consistent calculation

     Convergence has been achieved 


     Representation #  2 mode #   2

     Self-consistent Calculation

      iter #   1 total cpu time :  3331.2 secs   av.it.:   5.8
      thresh= 1.000E-02 alpha_mix =  0.700 |ddv_scf|^2 =  1.544E-04

      iter #   2 total cpu time :  3384.3 secs   av.it.:   7.4
      thresh= 1.242E-03 alpha_mix =  0.700 |ddv_scf|^2 =  9.475E-04

      iter #   3 total cpu time :  3429.2 secs   av.it.:   5.9
      thresh= 3.078E-03 alpha_mix =  0.700 |ddv_scf|^2 =  2.354E-07

      iter #   4 total cpu time :  3486.0 secs   av.it.:   8.1
      thresh= 4.852E-05 alpha_mix =  0.700 |ddv_scf|^2 =  6.353E-09

      iter #   5 total cpu time :  3542.5 secs   av.it.:   8.1
      thresh= 7.971E-06 alpha_mix =  0.700 |ddv_scf|^2 =  3.253E-10

      iter #   6 total cpu time :  3598.7 secs   av.it.:   8.2
      thresh= 1.804E-06 alpha_mix =  0.700 |ddv_scf|^2 =  1.758E-11

      iter #   7 total cpu time :  3653.1 secs   av.it.:   7.7
      thresh= 4.193E-07 alpha_mix =  0.700 |ddv_scf|^2 =  8.015E-13

      iter #   8 total cpu time :  3707.3 secs   av.it.:   7.6
      thresh= 8.953E-08 alpha_mix =  0.700 |ddv_scf|^2 =  5.638E-13

      iter #   9 total cpu time :  3755.6 secs   av.it.:   6.6
      thresh= 7.509E-08 alpha_mix =  0.700 |ddv_scf|^2 =  3.093E-14

      iter #  10 total cpu time :  3806.7 secs   av.it.:   7.0
      thresh= 1.759E-08 alpha_mix =  0.700 |ddv_scf|^2 =  1.777E-14

      iter #  11 total cpu time :  3855.0 secs   av.it.:   6.6
      thresh= 1.333E-08 alpha_mix =  0.700 |ddv_scf|^2 =  2.390E-16

      iter #  12 total cpu time :  3909.9 secs   av.it.:   7.8
      thresh= 1.546E-09 alpha_mix =  0.700 |ddv_scf|^2 =  3.085E-18

     End of self-consistent calculation

     Convergence has been achieved 


     Representation #  3 mode #   3

     Self-consistent Calculation

      iter #   1 total cpu time :  3959.3 secs   av.it.:   5.5
      thresh= 1.000E-02 alpha_mix =  0.700 |ddv_scf|^2 =  1.626E-05

      iter #   2 total cpu time :  4013.5 secs   av.it.:   7.7
      thresh= 4.032E-04 alpha_mix =  0.700 |ddv_scf|^2 =  2.518E-07

      iter #   3 total cpu time :  4070.0 secs   av.it.:   8.0
      thresh= 5.018E-05 alpha_mix =  0.700 |ddv_scf|^2 =  7.316E-09

      iter #   4 total cpu time :  4123.3 secs   av.it.:   7.6
      thresh= 8.554E-06 alpha_mix =  0.700 |ddv_scf|^2 =  2.247E-11

      iter #   5 total cpu time :  4178.2 secs   av.it.:   7.8
      thresh= 4.741E-07 alpha_mix =  0.700 |ddv_scf|^2 =  3.101E-14

      iter #   6 total cpu time :  4231.2 secs   av.it.:   7.5
      thresh= 1.761E-08 alpha_mix =  0.700 |ddv_scf|^2 =  1.390E-15

      iter #   7 total cpu time :  4284.5 secs   av.it.:   7.6
      thresh= 3.728E-09 alpha_mix =  0.700 |ddv_scf|^2 =  1.038E-18

     End of self-consistent calculation

     Convergence has been achieved 

     Number of q in the star =   24
     List of q in the star:
          1  -0.166666667   0.500000000  -0.166666667
          2   0.166666667   0.500000000   0.166666667
          3  -0.166666667   0.500000000   0.166666667
          4   0.166666667   0.500000000  -0.166666667
          5   0.500000000  -0.166666667   0.166666667
          6   0.166666667  -0.166666667   0.500000000
          7  -0.166666667  -0.500000000  -0.166666667
          8   0.166666667  -0.500000000  -0.166666667
          9  -0.166666667  -0.500000000   0.166666667
         10   0.500000000  -0.166666667  -0.166666667
         11  -0.500000000  -0.166666667   0.166666667
         12   0.500000000   0.166666667   0.166666667
         13  -0.166666667   0.166666667  -0.500000000
         14  -0.166666667  -0.166666667   0.500000000
         15   0.166666667   0.166666667   0.500000000
         16   0.166666667  -0.166666667  -0.500000000
         17  -0.500000000   0.166666667  -0.166666667
         18  -0.500000000  -0.166666667  -0.166666667
         19   0.166666667  -0.500000000   0.166666667
         20   0.500000000   0.166666667  -0.166666667
         21   0.166666667   0.166666667  -0.500000000
         22  -0.166666667  -0.166666667  -0.500000000
         23  -0.500000000   0.166666667   0.166666667
         24  -0.166666667   0.166666667   0.500000000

     Diagonalizing the dynamical matrix

     q = (   -0.166666667   0.500000000  -0.166666667 ) 

 **************************************************************************
     freq (    1) =       2.802219 [THz] =      93.471950 [cm-1]
     freq (    2) =       2.935855 [THz] =      97.929598 [cm-1]
     freq (    3) =       5.800982 [THz] =     193.499922 [cm-1]
 **************************************************************************

     Mode symmetry, C_s (m)     point group:

     freq (  1 -  1) =         93.5  [cm-1]   --> A''                
     freq (  2 -  2) =         97.9  [cm-1]   --> A'                 
     freq (  3 -  3) =        193.5  [cm-1]   --> A'                 

     Calculation of q =    0.6666667  -0.3333333   0.6666667

   Info: using nr1, nr2, nr3 values from input

   Info: using nr1, nr2, nr3 values from input

     Parallelization info
     --------------------
     sticks:   dense  smooth     PW     G-vecs:    dense   smooth      PW
     Min          48      23     10                  894      312      87
     Max          49      24     11                  898      316      90
     Sum         769     379    163                14331     5029    1411



     bravais-lattice index     =            2
     lattice parameter (alat)  =       8.4001  a.u.
     unit-cell volume          =     148.1821 (a.u.)^3
     number of atoms/cell      =            1
     number of atomic types    =            1
     number of electrons       =         9.00
     number of Kohn-Sham states=            9
     kinetic-energy cutoff     =      40.0000  Ry
     charge density cutoff     =     320.0000  Ry
     Exchange-correlation      = SLA  PW   PBE  PBE ( 1  4  3  4 0 0)

     celldm(1)=   8.400115  celldm(2)=   0.000000  celldm(3)=   0.000000
     celldm(4)=   0.000000  celldm(5)=   0.000000  celldm(6)=   0.000000

     crystal axes: (cart. coord. in units of alat)
               a(1) = (  -0.500000   0.000000   0.500000 )  
               a(2) = (   0.000000   0.500000   0.500000 )  
               a(3) = (  -0.500000   0.500000   0.000000 )  

     reciprocal axes: (cart. coord. in units 2 pi/alat)
               b(1) = ( -1.000000 -1.000000  1.000000 )  
               b(2) = (  1.000000  1.000000  1.000000 )  
               b(3) = ( -1.000000  1.000000 -1.000000 )  


     PseudoPot. # 1 for Na read from file:
     /home/s1333534/quantum_espresso/qe-6.1/pseudo/Na_pbe_v1.uspp.F.UPF
     MD5 check sum: 76a99c7e9422403d3e93cbc85ab7bccb
     Pseudo is Ultrasoft, Zval =  9.0
     Generated by new atomic code, or converted to UPF format
     Using radial grid of  819 points,  5 beta functions with: 
                l(1) =   0
                l(2) =   0
                l(3) =   1
                l(4) =   1
                l(5) =   2
     Q(r) pseudized with  8 coefficients,  rinner =    1.250   1.250   1.250
                                                       1.250   1.250

     atomic species   valence    mass     pseudopotential
        Na             9.00    22.99000     Na( 1.00)

     48 Sym. Ops., with inversion, found



   Cartesian axes

     site n.     atom                  positions (alat units)
         1           Na  tau(   1) = (   0.0000000   0.0000000   0.0000000  )

     number of k points= 32800  Marzari-Vanderbilt smearing, width (Ry)=  0.0200

     Number of k-points >= 100: set verbosity='high' to print them.

     Dense  grid:    14331 G-vectors     FFT dimensions: (  36,  36,  36)

     Smooth grid:     5029 G-vectors     FFT dimensions: (  24,  24,  24)

     Estimated max dynamical RAM per process >       0.49MB

     Estimated total allocated dynamical RAM >      31.49MB

     The potential is recalculated from file :
     ./_ph0/na.fcc.save/charge-density.dat

     Starting wfc are    5 atomic +    4 random wfc

     Band Structure Calculation
     Davidson diagonalization with overlap

     ethr =  1.11E-10,  avg # of iterations = 16.4

     total cpu time spent up to now is     1358.3 secs

     End of band structure calculation

     Number of k-points >= 100: set verbosity='high' to print the bands.

     the Fermi energy is     4.5382 ev

     Writing output data file na.fcc.save

                                                                                

     bravais-lattice index     =            2
     lattice parameter (alat)  =       8.4001  a.u.
     unit-cell volume          =     148.1821 (a.u.)^3
     number of atoms/cell      =            1
     number of atomic types    =            1
     kinetic-energy cut-off    =      40.0000  Ry
     charge density cut-off    =     320.0000  Ry
     convergence threshold     =      1.0E-16
     beta                      =       0.7000
     number of iterations used =            4
     Exchange-correlation      = SLA  PW   PBE  PBE ( 1  4  3  4 0 0)


     celldm(1)=    8.40011  celldm(2)=    0.00000  celldm(3)=    0.00000
     celldm(4)=    0.00000  celldm(5)=    0.00000  celldm(6)=    0.00000

     crystal axes: (cart. coord. in units of alat)
               a(1) = ( -0.5000  0.0000  0.5000 )  
               a(2) = (  0.0000  0.5000  0.5000 )  
               a(3) = ( -0.5000  0.5000  0.0000 )  

     reciprocal axes: (cart. coord. in units 2 pi/alat)
               b(1) = ( -1.0000 -1.0000  1.0000 )  
               b(2) = (  1.0000  1.0000  1.0000 )  
               b(3) = ( -1.0000  1.0000 -1.0000 )  


     Atoms inside the unit cell: 

     Cartesian axes

     site n.  atom      mass           positions (alat units)
        1     Na  22.9900   tau(    1) = (    0.00000    0.00000    0.00000  )

     Computing dynamical matrix for 
                    q = (   0.6666667  -0.3333333   0.6666667 )

      2 Sym.Ops. (no q -> -q+G )


     G cutoff =  571.9534  (    896 G-vectors)     FFT grid: ( 36, 36, 36)
     G cutoff =  285.9767  (    316 G-vectors)  smooth grid: ( 24, 24, 24)

     number of k points= 32800  Marzari-Vanderbilt smearing, width (Ry)=  0.0200

     PseudoPot. # 1 for Na read from file:
     /home/s1333534/quantum_espresso/qe-6.1/pseudo/Na_pbe_v1.uspp.F.UPF
     MD5 check sum: 76a99c7e9422403d3e93cbc85ab7bccb
     Pseudo is Ultrasoft, Zval =  9.0
     Generated by new atomic code, or converted to UPF format
     Using radial grid of  819 points,  5 beta functions with: 
                l(1) =   0
                l(2) =   0
                l(3) =   1
                l(4) =   1
                l(5) =   2
     Q(r) pseudized with  8 coefficients,  rinner =    1.250   1.250   1.250
                                                       1.250   1.250

     Mode symmetry, C_s (m)     point group:


     Atomic displacements:
     There are   3 irreducible representations

     Representation     1      1 modes -A'  To be done

     Representation     2      1 modes -A'  To be done

     Representation     3      1 modes -A''  To be done



     Alpha used in Ewald sum =   2.8000
     PHONON       :     1h12m CPU        1h19m WALL



     Representation #  1 mode #   1

     Self-consistent Calculation

      iter #   1 total cpu time :  4842.3 secs   av.it.:   5.9
      thresh= 1.000E-02 alpha_mix =  0.700 |ddv_scf|^2 =  1.127E-04

      iter #   2 total cpu time :  4899.8 secs   av.it.:   7.4
      thresh= 1.062E-03 alpha_mix =  0.700 |ddv_scf|^2 =  7.032E-05

      iter #   3 total cpu time :  4955.2 secs   av.it.:   7.1
      thresh= 8.385E-04 alpha_mix =  0.700 |ddv_scf|^2 =  1.301E-07

      iter #   4 total cpu time :  5016.9 secs   av.it.:   8.2
      thresh= 3.607E-05 alpha_mix =  0.700 |ddv_scf|^2 =  9.742E-09

      iter #   5 total cpu time :  5077.2 secs   av.it.:   8.0
      thresh= 9.870E-06 alpha_mix =  0.700 |ddv_scf|^2 =  5.086E-10

      iter #   6 total cpu time :  5137.2 secs   av.it.:   7.9
      thresh= 2.255E-06 alpha_mix =  0.700 |ddv_scf|^2 =  9.382E-12

      iter #   7 total cpu time :  5198.6 secs   av.it.:   8.1
      thresh= 3.063E-07 alpha_mix =  0.700 |ddv_scf|^2 =  3.271E-13

      iter #   8 total cpu time :  5260.1 secs   av.it.:   8.2
      thresh= 5.720E-08 alpha_mix =  0.700 |ddv_scf|^2 =  2.429E-14

      iter #   9 total cpu time :  5319.5 secs   av.it.:   7.9
      thresh= 1.558E-08 alpha_mix =  0.700 |ddv_scf|^2 =  2.259E-15

      iter #  10 total cpu time :  5377.6 secs   av.it.:   7.4
      thresh= 4.753E-09 alpha_mix =  0.700 |ddv_scf|^2 =  5.470E-17

     End of self-consistent calculation

     Convergence has been achieved 


     Representation #  2 mode #   2

     Self-consistent Calculation

      iter #   1 total cpu time :  5433.3 secs   av.it.:   5.8
      thresh= 1.000E-02 alpha_mix =  0.700 |ddv_scf|^2 =  5.836E-05

      iter #   2 total cpu time :  5491.7 secs   av.it.:   7.6
      thresh= 7.640E-04 alpha_mix =  0.700 |ddv_scf|^2 =  2.286E-05

      iter #   3 total cpu time :  5548.0 secs   av.it.:   7.3
      thresh= 4.782E-04 alpha_mix =  0.700 |ddv_scf|^2 =  5.498E-07

      iter #   4 total cpu time :  5606.2 secs   av.it.:   7.6
      thresh= 7.415E-05 alpha_mix =  0.700 |ddv_scf|^2 =  1.373E-08

      iter #   5 total cpu time :  5666.6 secs   av.it.:   8.1
      thresh= 1.172E-05 alpha_mix =  0.700 |ddv_scf|^2 =  3.525E-10

      iter #   6 total cpu time :  5727.2 secs   av.it.:   8.1
      thresh= 1.878E-06 alpha_mix =  0.700 |ddv_scf|^2 =  2.891E-11

      iter #   7 total cpu time :  5788.0 secs   av.it.:   8.1
      thresh= 5.377E-07 alpha_mix =  0.700 |ddv_scf|^2 =  1.108E-12

      iter #   8 total cpu time :  5849.4 secs   av.it.:   8.2
      thresh= 1.053E-07 alpha_mix =  0.700 |ddv_scf|^2 =  3.270E-14

      iter #   9 total cpu time :  5909.4 secs   av.it.:   7.8
      thresh= 1.808E-08 alpha_mix =  0.700 |ddv_scf|^2 =  7.257E-15

      iter #  10 total cpu time :  5967.3 secs   av.it.:   7.5
      thresh= 8.519E-09 alpha_mix =  0.700 |ddv_scf|^2 =  1.201E-16

      iter #  11 total cpu time :  6029.5 secs   av.it.:   8.1
      thresh= 1.096E-09 alpha_mix =  0.700 |ddv_scf|^2 =  2.445E-18

     End of self-consistent calculation

     Convergence has been achieved 


     Representation #  3 mode #   3

     Self-consistent Calculation

      iter #   1 total cpu time :  6082.7 secs   av.it.:   5.5
      thresh= 1.000E-02 alpha_mix =  0.700 |ddv_scf|^2 =  1.623E-05

      iter #   2 total cpu time :  6141.1 secs   av.it.:   7.7
      thresh= 4.029E-04 alpha_mix =  0.700 |ddv_scf|^2 =  2.551E-07

      iter #   3 total cpu time :  6200.8 secs   av.it.:   8.0
      thresh= 5.051E-05 alpha_mix =  0.700 |ddv_scf|^2 =  7.042E-09

      iter #   4 total cpu time :  6257.4 secs   av.it.:   7.6
      thresh= 8.392E-06 alpha_mix =  0.700 |ddv_scf|^2 =  2.228E-11

      iter #   5 total cpu time :  6316.6 secs   av.it.:   7.8
      thresh= 4.720E-07 alpha_mix =  0.700 |ddv_scf|^2 =  3.203E-14

      iter #   6 total cpu time :  6373.9 secs   av.it.:   7.5
      thresh= 1.790E-08 alpha_mix =  0.700 |ddv_scf|^2 =  1.352E-15

      iter #   7 total cpu time :  6431.7 secs   av.it.:   7.6
      thresh= 3.677E-09 alpha_mix =  0.700 |ddv_scf|^2 =  9.630E-19

     End of self-consistent calculation

     Convergence has been achieved 

     Number of q in the star =   24
     List of q in the star:
          1   0.666666667  -0.333333333   0.666666667
          2  -0.666666667  -0.333333333  -0.666666667
          3   0.666666667  -0.333333333  -0.666666667
          4  -0.666666667  -0.333333333   0.666666667
          5  -0.333333333   0.666666667  -0.666666667
          6  -0.666666667   0.666666667  -0.333333333
          7   0.666666667   0.333333333   0.666666667
          8  -0.666666667   0.333333333   0.666666667
          9   0.666666667   0.333333333  -0.666666667
         10  -0.333333333   0.666666667   0.666666667
         11   0.333333333   0.666666667  -0.666666667
         12  -0.333333333  -0.666666667  -0.666666667
         13   0.666666667  -0.666666667   0.333333333
         14   0.666666667   0.666666667  -0.333333333
         15  -0.666666667  -0.666666667  -0.333333333
         16  -0.666666667   0.666666667   0.333333333
         17   0.333333333  -0.666666667   0.666666667
         18   0.333333333   0.666666667   0.666666667
         19  -0.666666667   0.333333333  -0.666666667
         20  -0.333333333  -0.666666667   0.666666667
         21  -0.666666667  -0.666666667   0.333333333
         22   0.666666667   0.666666667   0.333333333
         23   0.333333333  -0.666666667  -0.666666667
         24   0.666666667  -0.666666667  -0.333333333

     Diagonalizing the dynamical matrix

     q = (    0.666666667  -0.333333333   0.666666667 ) 

 **************************************************************************
     freq (    1) =       2.908776 [THz] =      97.026334 [cm-1]
     freq (    2) =       3.845996 [THz] =     128.288629 [cm-1]
     freq (    3) =       7.191413 [THz] =     239.879723 [cm-1]
 **************************************************************************

     Mode symmetry, C_s (m)     point group:

     freq (  1 -  1) =         97.0  [cm-1]   --> A''                
     freq (  2 -  2) =        128.3  [cm-1]   --> A'                 
     freq (  3 -  3) =        239.9  [cm-1]   --> A'                 

     Calculation of q =    0.5000000  -0.1666667   0.5000000

   Info: using nr1, nr2, nr3 values from input

   Info: using nr1, nr2, nr3 values from input

     Parallelization info
     --------------------
     sticks:   dense  smooth     PW     G-vecs:    dense   smooth      PW
     Min          48      23      9                  894      312      76
     Max          49      24     10                  898      316      79
     Sum         769     379    151                14331     5029    1243



     bravais-lattice index     =            2
     lattice parameter (alat)  =       8.4001  a.u.
     unit-cell volume          =     148.1821 (a.u.)^3
     number of atoms/cell      =            1
     number of atomic types    =            1
     number of electrons       =         9.00
     number of Kohn-Sham states=            9
     kinetic-energy cutoff     =      40.0000  Ry
     charge density cutoff     =     320.0000  Ry
     Exchange-correlation      = SLA  PW   PBE  PBE ( 1  4  3  4 0 0)

     celldm(1)=   8.400115  celldm(2)=   0.000000  celldm(3)=   0.000000
     celldm(4)=   0.000000  celldm(5)=   0.000000  celldm(6)=   0.000000

     crystal axes: (cart. coord. in units of alat)
               a(1) = (  -0.500000   0.000000   0.500000 )  
               a(2) = (   0.000000   0.500000   0.500000 )  
               a(3) = (  -0.500000   0.500000   0.000000 )  

     reciprocal axes: (cart. coord. in units 2 pi/alat)
               b(1) = ( -1.000000 -1.000000  1.000000 )  
               b(2) = (  1.000000  1.000000  1.000000 )  
               b(3) = ( -1.000000  1.000000 -1.000000 )  


     PseudoPot. # 1 for Na read from file:
     /home/s1333534/quantum_espresso/qe-6.1/pseudo/Na_pbe_v1.uspp.F.UPF
     MD5 check sum: 76a99c7e9422403d3e93cbc85ab7bccb
     Pseudo is Ultrasoft, Zval =  9.0
     Generated by new atomic code, or converted to UPF format
     Using radial grid of  819 points,  5 beta functions with: 
                l(1) =   0
                l(2) =   0
                l(3) =   1
                l(4) =   1
                l(5) =   2
     Q(r) pseudized with  8 coefficients,  rinner =    1.250   1.250   1.250
                                                       1.250   1.250

     atomic species   valence    mass     pseudopotential
        Na             9.00    22.99000     Na( 1.00)

     48 Sym. Ops., with inversion, found



   Cartesian axes

     site n.     atom                  positions (alat units)
         1           Na  tau(   1) = (   0.0000000   0.0000000   0.0000000  )

     number of k points= 32800  Marzari-Vanderbilt smearing, width (Ry)=  0.0200

     Number of k-points >= 100: set verbosity='high' to print them.

     Dense  grid:    14331 G-vectors     FFT dimensions: (  36,  36,  36)

     Smooth grid:     5029 G-vectors     FFT dimensions: (  24,  24,  24)

     Estimated max dynamical RAM per process >       0.49MB

     Estimated total allocated dynamical RAM >      31.49MB

     The potential is recalculated from file :
     ./_ph0/na.fcc.save/charge-density.dat

     Starting wfc are    5 atomic +    4 random wfc

     Band Structure Calculation
     Davidson diagonalization with overlap

     ethr =  1.11E-10,  avg # of iterations = 16.4

     total cpu time spent up to now is     1820.2 secs

     End of band structure calculation

     Number of k-points >= 100: set verbosity='high' to print the bands.

     the Fermi energy is     4.5382 ev

     Writing output data file na.fcc.save

                                                                                

     bravais-lattice index     =            2
     lattice parameter (alat)  =       8.4001  a.u.
     unit-cell volume          =     148.1821 (a.u.)^3
     number of atoms/cell      =            1
     number of atomic types    =            1
     kinetic-energy cut-off    =      40.0000  Ry
     charge density cut-off    =     320.0000  Ry
     convergence threshold     =      1.0E-16
     beta                      =       0.7000
     number of iterations used =            4
     Exchange-correlation      = SLA  PW   PBE  PBE ( 1  4  3  4 0 0)


     celldm(1)=    8.40011  celldm(2)=    0.00000  celldm(3)=    0.00000
     celldm(4)=    0.00000  celldm(5)=    0.00000  celldm(6)=    0.00000

     crystal axes: (cart. coord. in units of alat)
               a(1) = ( -0.5000  0.0000  0.5000 )  
               a(2) = (  0.0000  0.5000  0.5000 )  
               a(3) = ( -0.5000  0.5000  0.0000 )  

     reciprocal axes: (cart. coord. in units 2 pi/alat)
               b(1) = ( -1.0000 -1.0000  1.0000 )  
               b(2) = (  1.0000  1.0000  1.0000 )  
               b(3) = ( -1.0000  1.0000 -1.0000 )  


     Atoms inside the unit cell: 

     Cartesian axes

     site n.  atom      mass           positions (alat units)
        1     Na  22.9900   tau(    1) = (    0.00000    0.00000    0.00000  )

     Computing dynamical matrix for 
                    q = (   0.5000000  -0.1666667   0.5000000 )

      2 Sym.Ops. (no q -> -q+G )


     G cutoff =  571.9534  (    896 G-vectors)     FFT grid: ( 36, 36, 36)
     G cutoff =  285.9767  (    316 G-vectors)  smooth grid: ( 24, 24, 24)

     number of k points= 32800  Marzari-Vanderbilt smearing, width (Ry)=  0.0200

     PseudoPot. # 1 for Na read from file:
     /home/s1333534/quantum_espresso/qe-6.1/pseudo/Na_pbe_v1.uspp.F.UPF
     MD5 check sum: 76a99c7e9422403d3e93cbc85ab7bccb
     Pseudo is Ultrasoft, Zval =  9.0
     Generated by new atomic code, or converted to UPF format
     Using radial grid of  819 points,  5 beta functions with: 
                l(1) =   0
                l(2) =   0
                l(3) =   1
                l(4) =   1
                l(5) =   2
     Q(r) pseudized with  8 coefficients,  rinner =    1.250   1.250   1.250
                                                       1.250   1.250

     Mode symmetry, C_s (m)     point group:


     Atomic displacements:
     There are   3 irreducible representations

     Representation     1      1 modes -A'  To be done

     Representation     2      1 modes -A'  To be done

     Representation     3      1 modes -A''  To be done



     Alpha used in Ewald sum =   2.8000
     PHONON       :     1h44m CPU        1h55m WALL



     Representation #  1 mode #   1

     Self-consistent Calculation

      iter #   1 total cpu time :  6965.5 secs   av.it.:   5.8
      thresh= 1.000E-02 alpha_mix =  0.700 |ddv_scf|^2 =  8.802E-05

      iter #   2 total cpu time :  7019.7 secs   av.it.:   7.5
      thresh= 9.382E-04 alpha_mix =  0.700 |ddv_scf|^2 =  9.512E-05

      iter #   3 total cpu time :  7070.6 secs   av.it.:   6.9
[...]

      iter #   4 total cpu time : 16923.0 secs   av.it.:   8.1
      thresh= 2.151E-05 alpha_mix =  0.700 |ddv_scf|^2 =  9.381E-10

      iter #   5 total cpu time : 16982.1 secs   av.it.:   7.8
      thresh= 3.063E-06 alpha_mix =  0.700 |ddv_scf|^2 =  3.064E-11

      iter #   6 total cpu time : 17040.0 secs   av.it.:   7.5
      thresh= 5.536E-07 alpha_mix =  0.700 |ddv_scf|^2 =  4.877E-14

      iter #   7 total cpu time : 17099.2 secs   av.it.:   7.9
      thresh= 2.208E-08 alpha_mix =  0.700 |ddv_scf|^2 =  3.517E-15

      iter #   8 total cpu time : 17158.6 secs   av.it.:   8.0
      thresh= 5.930E-09 alpha_mix =  0.700 |ddv_scf|^2 =  1.333E-17

     End of self-consistent calculation

     Convergence has been achieved 

     Number of q in the star =   24
     List of q in the star:
          1   0.500000000  -0.166666667   0.833333333
          2   0.833333333   0.166666667   0.500000000
          3   0.500000000   0.166666667   0.833333333
          4  -0.833333333  -0.166666667   0.500000000
          5  -0.833333333  -0.166666667  -0.500000000
          6  -0.500000000  -0.166666667  -0.833333333
          7   0.833333333  -0.166666667   0.500000000
          8  -0.500000000  -0.166666667   0.833333333
          9  -0.833333333   0.166666667   0.500000000
         10   0.833333333   0.166666667  -0.500000000
         11   0.833333333  -0.166666667  -0.500000000
         12   0.500000000   0.166666667  -0.833333333
         13  -0.500000000   0.166666667   0.833333333
         14  -0.500000000   0.166666667  -0.833333333
         15  -0.833333333   0.166666667  -0.500000000
         16   0.833333333  -0.500000000   0.166666667
         17   0.833333333   0.500000000  -0.166666667
         18  -0.833333333  -0.500000000  -0.166666667
         19  -0.833333333   0.500000000   0.166666667
         20   0.166666667  -0.500000000   0.833333333
         21  -0.166666667   0.500000000   0.833333333
         22   0.166666667   0.500000000  -0.833333333
         23  -0.166666667  -0.500000000  -0.833333333
         24  -0.500000000   0.833333333   0.166666667

     Diagonalizing the dynamical matrix

     q = (    0.500000000  -0.166666667   0.833333333 ) 

 **************************************************************************
     freq (    1) =       3.746092 [THz] =     124.956177 [cm-1]
     freq (    2) =       5.474465 [THz] =     182.608511 [cm-1]
     freq (    3) =       6.712333 [THz] =     223.899335 [cm-1]
 **************************************************************************

     Mode symmetry, C_2  (2)    point group:

     freq (  1 -  1) =        125.0  [cm-1]   --> B                  
     freq (  2 -  2) =        182.6  [cm-1]   --> A                  
     freq (  3 -  3) =        223.9  [cm-1]   --> B                  

     Calculation of q =   -0.3333333  -1.0000000   0.0000000

   Info: using nr1, nr2, nr3 values from input

   Info: using nr1, nr2, nr3 values from input

     Parallelization info
     --------------------
     sticks:   dense  smooth     PW     G-vecs:    dense   smooth      PW
     Min          48      23     10                  894      312      87
     Max          49      24     11                  898      316      90
     Sum         769     379    163                14331     5029    1411



     bravais-lattice index     =            2
     lattice parameter (alat)  =       8.4001  a.u.
     unit-cell volume          =     148.1821 (a.u.)^3
     number of atoms/cell      =            1
     number of atomic types    =            1
     number of electrons       =         9.00
     number of Kohn-Sham states=            9
     kinetic-energy cutoff     =      40.0000  Ry
     charge density cutoff     =     320.0000  Ry
     Exchange-correlation      = SLA  PW   PBE  PBE ( 1  4  3  4 0 0)

     celldm(1)=   8.400115  celldm(2)=   0.000000  celldm(3)=   0.000000
     celldm(4)=   0.000000  celldm(5)=   0.000000  celldm(6)=   0.000000

     crystal axes: (cart. coord. in units of alat)
               a(1) = (  -0.500000   0.000000   0.500000 )  
               a(2) = (   0.000000   0.500000   0.500000 )  
               a(3) = (  -0.500000   0.500000   0.000000 )  

     reciprocal axes: (cart. coord. in units 2 pi/alat)
               b(1) = ( -1.000000 -1.000000  1.000000 )  
               b(2) = (  1.000000  1.000000  1.000000 )  
               b(3) = ( -1.000000  1.000000 -1.000000 )  


     PseudoPot. # 1 for Na read from file:
     /home/s1333534/quantum_espresso/qe-6.1/pseudo/Na_pbe_v1.uspp.F.UPF
     MD5 check sum: 76a99c7e9422403d3e93cbc85ab7bccb
     Pseudo is Ultrasoft, Zval =  9.0
     Generated by new atomic code, or converted to UPF format
     Using radial grid of  819 points,  5 beta functions with: 
                l(1) =   0
                l(2) =   0
                l(3) =   1
                l(4) =   1
                l(5) =   2
     Q(r) pseudized with  8 coefficients,  rinner =    1.250   1.250   1.250
                                                       1.250   1.250

     atomic species   valence    mass     pseudopotential
        Na             9.00    22.99000     Na( 1.00)

     48 Sym. Ops., with inversion, found



   Cartesian axes

     site n.     atom                  positions (alat units)
         1           Na  tau(   1) = (   0.0000000   0.0000000   0.0000000  )

     number of k points= 16000  Marzari-Vanderbilt smearing, width (Ry)=  0.0200

     Number of k-points >= 100: set verbosity='high' to print them.

     Dense  grid:    14331 G-vectors     FFT dimensions: (  36,  36,  36)

     Smooth grid:     5029 G-vectors     FFT dimensions: (  24,  24,  24)

     Estimated max dynamical RAM per process >       0.49MB

     Estimated total allocated dynamical RAM >      31.49MB

     The potential is recalculated from file :
     ./_ph0/na.fcc.save/charge-density.dat

     Starting wfc are    5 atomic +    4 random wfc

     Band Structure Calculation
     Davidson diagonalization with overlap

     ethr =  1.11E-10,  avg # of iterations = 16.4

     total cpu time spent up to now is     4175.8 secs

     End of band structure calculation

     Number of k-points >= 100: set verbosity='high' to print the bands.

     the Fermi energy is     4.5382 ev

     Writing output data file na.fcc.save

                                                                                

     bravais-lattice index     =            2
     lattice parameter (alat)  =       8.4001  a.u.
     unit-cell volume          =     148.1821 (a.u.)^3
     number of atoms/cell      =            1
     number of atomic types    =            1
     kinetic-energy cut-off    =      40.0000  Ry
     charge density cut-off    =     320.0000  Ry
     convergence threshold     =      1.0E-16
     beta                      =       0.7000
     number of iterations used =            4
     Exchange-correlation      = SLA  PW   PBE  PBE ( 1  4  3  4 0 0)


     celldm(1)=    8.40011  celldm(2)=    0.00000  celldm(3)=    0.00000
     celldm(4)=    0.00000  celldm(5)=    0.00000  celldm(6)=    0.00000

     crystal axes: (cart. coord. in units of alat)
               a(1) = ( -0.5000  0.0000  0.5000 )  
               a(2) = (  0.0000  0.5000  0.5000 )  
               a(3) = ( -0.5000  0.5000  0.0000 )  

     reciprocal axes: (cart. coord. in units 2 pi/alat)
               b(1) = ( -1.0000 -1.0000  1.0000 )  
               b(2) = (  1.0000  1.0000  1.0000 )  
               b(3) = ( -1.0000  1.0000 -1.0000 )  


     Atoms inside the unit cell: 

     Cartesian axes

     site n.  atom      mass           positions (alat units)
        1     Na  22.9900   tau(    1) = (    0.00000    0.00000    0.00000  )

     Computing dynamical matrix for 
                    q = (  -0.3333333  -1.0000000   0.0000000 )

      4 Sym.Ops. (no q -> -q+G )


     G cutoff =  571.9534  (    896 G-vectors)     FFT grid: ( 36, 36, 36)
     G cutoff =  285.9767  (    316 G-vectors)  smooth grid: ( 24, 24, 24)

     number of k points= 16000  Marzari-Vanderbilt smearing, width (Ry)=  0.0200

     PseudoPot. # 1 for Na read from file:
     /home/s1333534/quantum_espresso/qe-6.1/pseudo/Na_pbe_v1.uspp.F.UPF
     MD5 check sum: 76a99c7e9422403d3e93cbc85ab7bccb
     Pseudo is Ultrasoft, Zval =  9.0
     Generated by new atomic code, or converted to UPF format
     Using radial grid of  819 points,  5 beta functions with: 
                l(1) =   0
                l(2) =   0
                l(3) =   1
                l(4) =   1
                l(5) =   2
     Q(r) pseudized with  8 coefficients,  rinner =    1.250   1.250   1.250
                                                       1.250   1.250

     Mode symmetry, C_2v (mm2)  point group:


     Atomic displacements:
     There are   3 irreducible representations

     Representation     1      1 modes -A_1  D_1  S_1  To be done

     Representation     2      1 modes -B_1  D_3  S_3  To be done

     Representation     3      1 modes -B_2  D_4  S_4  To be done



     Alpha used in Ewald sum =   2.8000
     PHONON       :     4h23m CPU        4h50m WALL



     Representation #  1 mode #   1

     Self-consistent Calculation

      iter #   1 total cpu time : 17435.3 secs   av.it.:   5.7
      thresh= 1.000E-02 alpha_mix =  0.700 |ddv_scf|^2 =  2.546E-05

      iter #   2 total cpu time : 17465.4 secs   av.it.:   7.8
      thresh= 5.046E-04 alpha_mix =  0.700 |ddv_scf|^2 =  8.173E-07

      iter #   3 total cpu time : 17494.7 secs   av.it.:   7.7
      thresh= 9.041E-05 alpha_mix =  0.700 |ddv_scf|^2 =  2.330E-08

      iter #   4 total cpu time : 17524.4 secs   av.it.:   8.1
      thresh= 1.526E-05 alpha_mix =  0.700 |ddv_scf|^2 =  8.375E-10

      iter #   5 total cpu time : 17554.6 secs   av.it.:   8.0
      thresh= 2.894E-06 alpha_mix =  0.700 |ddv_scf|^2 =  6.690E-11

      iter #   6 total cpu time : 17585.2 secs   av.it.:   8.1
      thresh= 8.179E-07 alpha_mix =  0.700 |ddv_scf|^2 =  3.838E-12

      iter #   7 total cpu time : 17615.5 secs   av.it.:   7.8
      thresh= 1.959E-07 alpha_mix =  0.700 |ddv_scf|^2 =  1.296E-13

      iter #   8 total cpu time : 17645.2 secs   av.it.:   7.8
      thresh= 3.600E-08 alpha_mix =  0.700 |ddv_scf|^2 =  3.716E-16

      iter #   9 total cpu time : 17675.6 secs   av.it.:   8.0
      thresh= 1.928E-09 alpha_mix =  0.700 |ddv_scf|^2 =  3.086E-17

     End of self-consistent calculation

     Convergence has been achieved 


     Representation #  2 mode #   2

     Self-consistent Calculation

      iter #   1 total cpu time : 17702.5 secs   av.it.:   5.6
      thresh= 1.000E-02 alpha_mix =  0.700 |ddv_scf|^2 =  2.801E-05

      iter #   2 total cpu time : 17731.8 secs   av.it.:   7.7
      thresh= 5.292E-04 alpha_mix =  0.700 |ddv_scf|^2 =  4.324E-07

      iter #   3 total cpu time : 17761.5 secs   av.it.:   7.7
      thresh= 6.575E-05 alpha_mix =  0.700 |ddv_scf|^2 =  2.202E-08

      iter #   4 total cpu time : 17791.5 secs   av.it.:   8.0
      thresh= 1.484E-05 alpha_mix =  0.700 |ddv_scf|^2 =  1.949E-10

      iter #   5 total cpu time : 17819.5 secs   av.it.:   7.3
      thresh= 1.396E-06 alpha_mix =  0.700 |ddv_scf|^2 =  1.327E-13

      iter #   6 total cpu time : 17848.4 secs   av.it.:   7.7
      thresh= 3.642E-08 alpha_mix =  0.700 |ddv_scf|^2 =  4.625E-15

      iter #   7 total cpu time : 17877.6 secs   av.it.:   7.7
      thresh= 6.801E-09 alpha_mix =  0.700 |ddv_scf|^2 =  3.465E-17

     End of self-consistent calculation

     Convergence has been achieved 


     Representation #  3 mode #   3

     Self-consistent Calculation

      iter #   1 total cpu time : 17904.9 secs   av.it.:   5.7
      thresh= 1.000E-02 alpha_mix =  0.700 |ddv_scf|^2 =  5.576E-05

      iter #   2 total cpu time : 17933.7 secs   av.it.:   7.5
      thresh= 7.467E-04 alpha_mix =  0.700 |ddv_scf|^2 =  4.592E-06

      iter #   3 total cpu time : 17962.3 secs   av.it.:   7.4
      thresh= 2.143E-04 alpha_mix =  0.700 |ddv_scf|^2 =  4.509E-08

      iter #   4 total cpu time : 17992.6 secs   av.it.:   8.0
      thresh= 2.123E-05 alpha_mix =  0.700 |ddv_scf|^2 =  1.787E-10

      iter #   5 total cpu time : 18020.9 secs   av.it.:   7.3
      thresh= 1.337E-06 alpha_mix =  0.700 |ddv_scf|^2 =  1.898E-13

      iter #   6 total cpu time : 18049.9 secs   av.it.:   7.6
      thresh= 4.356E-08 alpha_mix =  0.700 |ddv_scf|^2 =  5.400E-15

      iter #   7 total cpu time : 18077.2 secs   av.it.:   7.2
      thresh= 7.348E-09 alpha_mix =  0.700 |ddv_scf|^2 =  7.247E-18

     End of self-consistent calculation

     Convergence has been achieved 

     Number of q in the star =   12
     List of q in the star:
          1  -0.333333333  -1.000000000   0.000000000
          2   0.000000000  -1.000000000  -0.333333333
          3   0.000000000  -1.000000000   0.333333333
          4   0.333333333  -1.000000000   0.000000000
          5  -1.000000000   0.000000000  -0.333333333
          6   1.000000000   0.000000000   0.333333333
          7   0.000000000   0.333333333   1.000000000
          8   0.000000000  -0.333333333  -1.000000000
          9  -1.000000000  -0.333333333   0.000000000
         10   1.000000000   0.333333333   0.000000000
         11  -0.333333333   0.000000000   1.000000000
         12   0.333333333   0.000000000   1.000000000

     Diagonalizing the dynamical matrix

     q = (   -0.333333333  -1.000000000   0.000000000 ) 

 **************************************************************************
     freq (    1) =       4.409871 [THz] =     147.097479 [cm-1]
     freq (    2) =       5.355229 [THz] =     178.631217 [cm-1]
     freq (    3) =       6.879891 [THz] =     229.488457 [cm-1]
 **************************************************************************

     Mode symmetry, C_2v (mm2)  point group:

     freq (  1 -  1) =        147.1  [cm-1]   --> A_1  D_1  S_1      
     freq (  2 -  2) =        178.6  [cm-1]   --> B_1  D_3  S_3      
     freq (  3 -  3) =        229.5  [cm-1]   --> B_2  D_4  S_4      

     init_run     :      2.67s CPU      2.84s WALL (      15 calls)
     electrons    :   3121.63s CPU   3354.50s WALL (      15 calls)

     Called by init_run:
     wfcinit      :      0.00s CPU      0.01s WALL (      15 calls)
     potinit      :      0.39s CPU      0.40s WALL (      15 calls)

     Called by electrons:
     c_bands      :   3120.49s CPU   3353.34s WALL (      15 calls)
     v_of_rho     :      0.13s CPU      0.14s WALL (      16 calls)
     newd         :      0.11s CPU      0.12s WALL (      16 calls)

     Called by c_bands:
     init_us_2    :     62.53s CPU     69.33s WALL ( 1253094 calls)
     cegterg      :   2516.79s CPU   2729.51s WALL (   81770 calls)

     Called by sum_band:

     Called by *egterg:
     h_psi        :   9147.16s CPU  10101.22s WALL (11345533 calls)
     s_psi        :    279.20s CPU    314.36s WALL (22277489 calls)
     g_psi        :      7.63s CPU      8.41s WALL ( 1232113 calls)
     cdiaghg      :    782.87s CPU    843.31s WALL ( 1305539 calls)

     Called by h_psi:
     h_psi:pot    :   9070.73s CPU  10014.50s WALL (11345533 calls)
     h_psi:calbec :    654.47s CPU    718.62s WALL (11345533 calls)
     vloc_psi     :   8141.58s CPU   8991.70s WALL (11345533 calls)
     add_vuspsi   :    149.82s CPU    168.55s WALL (11345533 calls)

     General routines
     calbec       :   1215.79s CPU   1339.25s WALL (24320916 calls)
     fft          :      3.18s CPU      3.77s WALL (    6406 calls)
     ffts         :     11.79s CPU     13.08s WALL (  112692 calls)
     fftw         :   8905.24s CPU   9879.93s WALL (******** calls)
     interpolate  :      0.56s CPU      0.78s WALL (     878 calls)
     davcio       :    107.46s CPU    170.93s WALL ( 5075062 calls)

     Parallel routines
     fft_scatter  :   4533.64s CPU   5022.92s WALL (******** calls)

     PHONON       :     4h33m CPU        5h 1m WALL

     INITIALIZATION: 
     phq_setup    :      0.55s CPU      0.59s WALL (      16 calls)
     phq_init     :    193.61s CPU    207.01s WALL (      16 calls)

     phq_init     :    193.61s CPU    207.01s WALL (      16 calls)
     init_vloc    :      0.11s CPU      0.11s WALL (      16 calls)
     init_us_1    :      1.27s CPU      1.38s WALL (      16 calls)
     newd         :      0.11s CPU      0.12s WALL (      16 calls)
     dvanqq       :      0.41s CPU      0.42s WALL (      16 calls)
     drho         :    146.00s CPU    156.55s WALL (      16 calls)

     DYNAMICAL MATRIX:
     dynmat0      :     32.18s CPU     33.60s WALL (      16 calls)
     phqscf       :  12208.25s CPU  13637.34s WALL (      16 calls)
     dynmatrix    :      0.09s CPU      0.10s WALL (      16 calls)

     phqscf       :  12208.25s CPU  13637.34s WALL (      16 calls)
     solve_linter :  12157.88s CPU  13583.43s WALL (      40 calls)
     drhodv       :     50.15s CPU     53.52s WALL (      40 calls)

     dynmat0      :     32.18s CPU     33.60s WALL (      16 calls)
     dynmat_us    :     32.13s CPU     33.54s WALL (      16 calls)
     d2ionq       :      0.01s CPU      0.01s WALL (      16 calls)

     dynmat_us    :     32.13s CPU     33.54s WALL (      16 calls)
     addusdynmat  :      0.00s CPU      0.00s WALL (      16 calls)

     phqscf       :  12208.25s CPU  13637.34s WALL (      16 calls)
     solve_linter :  12157.88s CPU  13583.43s WALL (      40 calls)

     solve_linter :  12157.88s CPU  13583.43s WALL (      40 calls)
     dvqpsi_us    :    240.91s CPU    262.60s WALL (  110718 calls)
     ortho        :    177.91s CPU    193.87s WALL (  973732 calls)
     cgsolve      :   9700.72s CPU  10770.43s WALL (  973732 calls)
     incdrhoscf   :    885.94s CPU   1040.50s WALL (  973732 calls)
     addusddens   :      2.99s CPU      3.10s WALL (     385 calls)
     vpsifft      :    718.46s CPU    799.52s WALL (  863014 calls)
     dv_of_drho   :      2.39s CPU      2.75s WALL (     399 calls)
     mix_pot      :      0.57s CPU      2.10s WALL (     345 calls)
     ef_shift     :      0.03s CPU      0.10s WALL (       7 calls)
     localdos     :      0.16s CPU      0.16s WALL (       1 calls)
     psymdvscf    :     18.52s CPU     19.05s WALL (     345 calls)
     newdq        :      3.09s CPU      3.15s WALL (     345 calls)
     adddvscf     :     47.57s CPU     52.55s WALL (  863014 calls)
     drhodvus     :      0.05s CPU      0.05s WALL (      40 calls)

     dvqpsi_us    :    240.91s CPU    262.60s WALL (  110718 calls)
     dvqpsi_us_on :     49.35s CPU     52.62s WALL (  110718 calls)

     cgsolve      :   9700.72s CPU  10770.43s WALL (  973732 calls)
     ch_psi       :   9057.09s CPU  10050.47s WALL ( 9958224 calls)

     ch_psi       :   9057.09s CPU  10050.47s WALL ( 9958224 calls)
     h_psi        :   9147.16s CPU  10101.22s WALL (11345533 calls)
     last         :   1093.77s CPU   1217.36s WALL ( 9958224 calls)

     h_psi        :   9147.16s CPU  10101.22s WALL (11345533 calls)
     add_vuspsi   :    149.82s CPU    168.55s WALL (11345533 calls)

     incdrhoscf   :    885.94s CPU   1040.50s WALL (  973732 calls)
     addusdbec    :     87.20s CPU     96.08s WALL ( 1084450 calls)

     drhodvus     :      0.05s CPU      0.05s WALL (      40 calls)

      General routines
     calbec       :   1215.79s CPU   1339.25s WALL (24320916 calls)
     fft          :      3.18s CPU      3.77s WALL (    6406 calls)
     ffts         :     11.79s CPU     13.08s WALL (  112692 calls)
     fftw         :   8905.24s CPU   9879.93s WALL (******** calls)
     davcio       :    107.46s CPU    170.93s WALL ( 5075062 calls)
     write_rec    :      1.46s CPU      3.21s WALL (     385 calls)


     PHONON       :     4h33m CPU        5h 1m WALL


   This run was terminated on:  10: 1:18  29Jan2018            

=------------------------------------------------------------------------------=
   JOB DONE.
=------------------------------------------------------------------------------=
