
     Program PHONON v.6.1 (svn rev. 13369) starts on 21Dec2017 at 12:18:34 

     This program is part of the open-source Quantum ESPRESSO suite
     for quantum simulation of materials; please cite
         "P. Giannozzi et al., J. Phys.:Condens. Matter 21 395502 (2009);
          URL http://www.quantum-espresso.org", 
     in publications or presentations arising from this work. More details at
     http://www.quantum-espresso.org/quote

     Parallel version (MPI), running on     4 processors
     R & G space division:  proc/nbgrp/npool/nimage =       4

     Reading data from directory:
     ./na.fcc.save

   Info: using nr1, nr2, nr3 values from input

   Info: using nr1, nr2, nr3 values from input

     IMPORTANT: XC functional enforced from input :
     Exchange-correlation      = SLA  PW   PBE  PBE ( 1  4  3  4 0 0)
     Any further DFT definition will be discarded
     Please, verify this is what you really want


     Parallelization info
     --------------------
     sticks:   dense  smooth     PW     G-vecs:    dense   smooth      PW
     Min         214     108     37                 4215     1489     309
     Max         215     109     38                 4218     1491     312
     Sum         859     433    151                16865     5961    1243



     Dynamical matrices for ( 8, 8, 8)  uniform grid of q-points
     (  29q-points):
       N         xq(1)         xq(2)         xq(3) 
       1   0.000000000   0.000000000   0.000000000
       2  -0.125000000   0.125000000  -0.125000000
       3  -0.250000000   0.250000000  -0.250000000
       4  -0.375000000   0.375000000  -0.375000000
       5   0.500000000  -0.500000000   0.500000000
       6   0.000000000   0.250000000   0.000000000
       7  -0.125000000   0.375000000  -0.125000000
       8  -0.250000000   0.500000000  -0.250000000
       9   0.625000000  -0.375000000   0.625000000
      10   0.500000000  -0.250000000   0.500000000
      11   0.375000000  -0.125000000   0.375000000
      12   0.250000000   0.000000000   0.250000000
      13   0.000000000   0.500000000   0.000000000
      14  -0.125000000   0.625000000  -0.125000000
      15   0.750000000  -0.250000000   0.750000000
      16   0.625000000  -0.125000000   0.625000000
      17   0.500000000   0.000000000   0.500000000
      18   0.000000000   0.750000000   0.000000000
      19   0.875000000  -0.125000000   0.875000000
      20   0.750000000   0.000000000   0.750000000
      21   0.000000000  -1.000000000   0.000000000
      22  -0.250000000   0.500000000   0.000000000
      23   0.625000000  -0.375000000   0.875000000
      24   0.500000000  -0.250000000   0.750000000
      25   0.750000000  -0.250000000   1.000000000
      26   0.625000000  -0.125000000   0.875000000
      27   0.500000000   0.000000000   0.750000000
      28  -0.250000000  -1.000000000   0.000000000
      29  -0.500000000  -1.000000000   0.000000000

     Calculation of q =    0.0000000   0.0000000   0.0000000

                                                                                

     bravais-lattice index     =            2
     lattice parameter (alat)  =       8.8683  a.u.
     unit-cell volume          =     174.3635 (a.u.)^3
     number of atoms/cell      =            1
     number of atomic types    =            1
     kinetic-energy cut-off    =      40.0000  Ry
     charge density cut-off    =     320.0000  Ry
     convergence threshold     =      1.0E-12
     beta                      =       0.7000
     number of iterations used =            4
     Exchange-correlation      = SLA  PW   PBE  PBE ( 1  4  3  4 0 0)


     celldm(1)=    8.86826  celldm(2)=    0.00000  celldm(3)=    0.00000
     celldm(4)=    0.00000  celldm(5)=    0.00000  celldm(6)=    0.00000

     crystal axes: (cart. coord. in units of alat)
               a(1) = ( -0.5000  0.0000  0.5000 )  
               a(2) = (  0.0000  0.5000  0.5000 )  
               a(3) = ( -0.5000  0.5000  0.0000 )  

     reciprocal axes: (cart. coord. in units 2 pi/alat)
               b(1) = ( -1.0000 -1.0000  1.0000 )  
               b(2) = (  1.0000  1.0000  1.0000 )  
               b(3) = ( -1.0000  1.0000 -1.0000 )  


     Atoms inside the unit cell: 

     Cartesian axes

     site n.  atom      mass           positions (alat units)
        1     Na  22.9900   tau(    1) = (    0.00000    0.00000    0.00000  )

     Computing dynamical matrix for 
                    q = (   0.0000000   0.0000000   0.0000000 )

     49 Sym.Ops. (with q -> -q+G )


     G cutoff =  637.4810  (   4218 G-vectors)     FFT grid: ( 36, 36, 36)
     G cutoff =  318.7405  (   1491 G-vectors)  smooth grid: ( 25, 25, 25)

     number of k points=   280  Marzari-Vanderbilt smearing, width (Ry)=  0.0200

     PseudoPot. # 1 for Na read from file:
     /home/s1333534/quantum_espresso/qe-6.1/pseudo/Na_pbe_v1.uspp.F.UPF
     MD5 check sum: 76a99c7e9422403d3e93cbc85ab7bccb
     Pseudo is Ultrasoft, Zval =  9.0
     Generated by new atomic code, or converted to UPF format
     Using radial grid of  819 points,  5 beta functions with: 
                l(1) =   0
                l(2) =   0
                l(3) =   1
                l(4) =   1
                l(5) =   2
     Q(r) pseudized with  8 coefficients,  rinner =    1.250   1.250   1.250
                                                       1.250   1.250

     Mode symmetry, O_h (m-3m)  point group:


     Atomic displacements:
     There are   1 irreducible representations

     Representation     1      3 modes -T_1u G_15  G_4-  To be done



     Alpha used in Ewald sum =   2.8000
     PHONON       :     1.79s CPU         1.89s WALL



     Representation #  1 modes #   1  2  3

     Self-consistent Calculation

     Pert. #  1: Fermi energy shift (Ry) =     8.6165E-25     1.0971E-37
     Pert. #  2: Fermi energy shift (Ry) =     1.7233E-26    -8.6203E-38
     Pert. #  3: Fermi energy shift (Ry) =     2.5849E-26     3.1347E-38

      iter #   1 total cpu time :     7.1 secs   av.it.:   5.4
      thresh= 1.000E-02 alpha_mix =  0.700 |ddv_scf|^2 =  2.501E-06

     Pert. #  1: Fermi energy shift (Ry) =    -6.8932E-25    -2.4489E-40
     Pert. #  2: Fermi energy shift (Ry) =     1.0340E-24    -3.6734E-40
     Pert. #  3: Fermi energy shift (Ry) =     3.4466E-26    -7.3468E-40

      iter #   2 total cpu time :    13.1 secs   av.it.:   8.4
      thresh= 1.582E-04 alpha_mix =  0.700 |ddv_scf|^2 =  4.874E-08

     Pert. #  1: Fermi energy shift (Ry) =     5.5145E-25     7.6530E-40
     Pert. #  2: Fermi energy shift (Ry) =    -3.5328E-25    -1.6837E-40
     Pert. #  3: Fermi energy shift (Ry) =     2.4988E-25    -1.9898E-40

      iter #   3 total cpu time :    19.1 secs   av.it.:   8.5
      thresh= 2.208E-05 alpha_mix =  0.700 |ddv_scf|^2 =  5.483E-10

     Pert. #  1: Fermi energy shift (Ry) =     3.4466E-25     1.5306E-41
     Pert. #  2: Fermi energy shift (Ry) =     1.8956E-25     3.8265E-42
     Pert. #  3: Fermi energy shift (Ry) =    -6.7208E-25    -7.6530E-42

      iter #   4 total cpu time :    24.9 secs   av.it.:   7.9
      thresh= 2.342E-06 alpha_mix =  0.700 |ddv_scf|^2 =  2.014E-12

     Pert. #  1: Fermi energy shift (Ry) =     2.0680E-25    -3.5395E-41
     Pert. #  2: Fermi energy shift (Ry) =    -1.7233E-26     4.9744E-41
     Pert. #  3: Fermi energy shift (Ry) =    -1.2925E-25    -4.4005E-41

      iter #   5 total cpu time :    30.8 secs   av.it.:   8.2
      thresh= 1.419E-07 alpha_mix =  0.700 |ddv_scf|^2 =  7.397E-15

     End of self-consistent calculation

     Convergence has been achieved 

     Number of q in the star =    1
     List of q in the star:
          1   0.000000000   0.000000000   0.000000000

     Diagonalizing the dynamical matrix

     q = (    0.000000000   0.000000000   0.000000000 ) 

 **************************************************************************
     freq (    1) =       0.349980 [THz] =      11.674092 [cm-1]
     freq (    2) =       0.349980 [THz] =      11.674092 [cm-1]
     freq (    3) =       0.349980 [THz] =      11.674092 [cm-1]
 **************************************************************************

     Mode symmetry, O_h (m-3m)  point group:

     freq (  1 -  3) =         11.7  [cm-1]   --> T_1u G_15  G_4- I  

     Calculation of q =   -0.1250000   0.1250000  -0.1250000

   Info: using nr1, nr2, nr3 values from input

   Info: using nr1, nr2, nr3 values from input

     Parallelization info
     --------------------
     sticks:   dense  smooth     PW     G-vecs:    dense   smooth      PW
     Min         214     108     37                 4215     1489     309
     Max         215     109     38                 4218     1491     312
     Sum         859     433    151                16865     5961    1243



     bravais-lattice index     =            2
     lattice parameter (alat)  =       8.8683  a.u.
     unit-cell volume          =     174.3635 (a.u.)^3
     number of atoms/cell      =            1
     number of atomic types    =            1
     number of electrons       =         9.00
     number of Kohn-Sham states=            9
     kinetic-energy cutoff     =      40.0000  Ry
     charge density cutoff     =     320.0000  Ry
     Exchange-correlation      = SLA  PW   PBE  PBE ( 1  4  3  4 0 0)

     celldm(1)=   8.868262  celldm(2)=   0.000000  celldm(3)=   0.000000
     celldm(4)=   0.000000  celldm(5)=   0.000000  celldm(6)=   0.000000

     crystal axes: (cart. coord. in units of alat)
               a(1) = (  -0.500000   0.000000   0.500000 )  
               a(2) = (   0.000000   0.500000   0.500000 )  
               a(3) = (  -0.500000   0.500000   0.000000 )  

     reciprocal axes: (cart. coord. in units 2 pi/alat)
               b(1) = ( -1.000000 -1.000000  1.000000 )  
               b(2) = (  1.000000  1.000000  1.000000 )  
               b(3) = ( -1.000000  1.000000 -1.000000 )  


     PseudoPot. # 1 for Na read from file:
     /home/s1333534/quantum_espresso/qe-6.1/pseudo/Na_pbe_v1.uspp.F.UPF
     MD5 check sum: 76a99c7e9422403d3e93cbc85ab7bccb
     Pseudo is Ultrasoft, Zval =  9.0
     Generated by new atomic code, or converted to UPF format
     Using radial grid of  819 points,  5 beta functions with: 
                l(1) =   0
                l(2) =   0
                l(3) =   1
                l(4) =   1
                l(5) =   2
     Q(r) pseudized with  8 coefficients,  rinner =    1.250   1.250   1.250
                                                       1.250   1.250

     atomic species   valence    mass     pseudopotential
        Na             9.00    22.99000     Na( 1.00)

     48 Sym. Ops., with inversion, found



   Cartesian axes

     site n.     atom                  positions (alat units)
         1           Na  tau(   1) = (   0.0000000   0.0000000   0.0000000  )

     number of k points=  4060  Marzari-Vanderbilt smearing, width (Ry)=  0.0200

     Number of k-points >= 100: set verbosity='high' to print them.

     Dense  grid:    16865 G-vectors     FFT dimensions: (  36,  36,  36)

     Smooth grid:     5961 G-vectors     FFT dimensions: (  25,  25,  25)

     Estimated max dynamical RAM per process >       1.59MB

     Estimated total allocated dynamical RAM >       6.38MB

     The potential is recalculated from file :
     ./_ph0/na.fcc.save/charge-density.dat

     Starting wfc are    5 atomic +    4 random wfc

     Band Structure Calculation
     Davidson diagonalization with overlap

     ethr =  1.11E-10,  avg # of iterations = 17.5

     total cpu time spent up to now is       75.0 secs

     End of band structure calculation

     Number of k-points >= 100: set verbosity='high' to print the bands.

     the Fermi energy is     3.4374 ev

     Writing output data file na.fcc.save

                                                                                

     bravais-lattice index     =            2
     lattice parameter (alat)  =       8.8683  a.u.
     unit-cell volume          =     174.3635 (a.u.)^3
     number of atoms/cell      =            1
     number of atomic types    =            1
     kinetic-energy cut-off    =      40.0000  Ry
     charge density cut-off    =     320.0000  Ry
     convergence threshold     =      1.0E-12
     beta                      =       0.7000
     number of iterations used =            4
     Exchange-correlation      = SLA  PW   PBE  PBE ( 1  4  3  4 0 0)


     celldm(1)=    8.86826  celldm(2)=    0.00000  celldm(3)=    0.00000
     celldm(4)=    0.00000  celldm(5)=    0.00000  celldm(6)=    0.00000

     crystal axes: (cart. coord. in units of alat)
               a(1) = ( -0.5000  0.0000  0.5000 )  
               a(2) = (  0.0000  0.5000  0.5000 )  
               a(3) = ( -0.5000  0.5000  0.0000 )  

     reciprocal axes: (cart. coord. in units 2 pi/alat)
               b(1) = ( -1.0000 -1.0000  1.0000 )  
               b(2) = (  1.0000  1.0000  1.0000 )  
               b(3) = ( -1.0000  1.0000 -1.0000 )  


     Atoms inside the unit cell: 

     Cartesian axes

     site n.  atom      mass           positions (alat units)
        1     Na  22.9900   tau(    1) = (    0.00000    0.00000    0.00000  )

     Computing dynamical matrix for 
                    q = (  -0.1250000   0.1250000  -0.1250000 )

      6 Sym.Ops. (no q -> -q+G )


     G cutoff =  637.4810  (   4218 G-vectors)     FFT grid: ( 36, 36, 36)
     G cutoff =  318.7405  (   1491 G-vectors)  smooth grid: ( 25, 25, 25)

     number of k points=  4060  Marzari-Vanderbilt smearing, width (Ry)=  0.0200

     PseudoPot. # 1 for Na read from file:
     /home/s1333534/quantum_espresso/qe-6.1/pseudo/Na_pbe_v1.uspp.F.UPF
     MD5 check sum: 76a99c7e9422403d3e93cbc85ab7bccb
     Pseudo is Ultrasoft, Zval =  9.0
     Generated by new atomic code, or converted to UPF format
     Using radial grid of  819 points,  5 beta functions with: 
                l(1) =   0
                l(2) =   0
                l(3) =   1
                l(4) =   1
                l(5) =   2
     Q(r) pseudized with  8 coefficients,  rinner =    1.250   1.250   1.250
                                                       1.250   1.250

     Mode symmetry, C_3v (3m)   point group:


     Atomic displacements:
     There are   2 irreducible representations

     Representation     1      1 modes -A_1  L_1  To be done

     Representation     2      2 modes -E    L_3  To be done



     Alpha used in Ewald sum =   2.8000
     PHONON       :  1m46.49s CPU     1m54.87s WALL



     Representation #  1 mode #   1

     Self-consistent Calculation

      iter #   1 total cpu time :   127.0 secs   av.it.:   5.7
      thresh= 1.000E-02 alpha_mix =  0.700 |ddv_scf|^2 =  4.117E-01

      iter #   2 total cpu time :   139.8 secs   av.it.:   7.2
      thresh= 1.000E-02 alpha_mix =  0.700 |ddv_scf|^2 =  1.984E+02

      iter #   3 total cpu time :   152.8 secs   av.it.:   7.2
      thresh= 1.000E-02 alpha_mix =  0.700 |ddv_scf|^2 =  5.835E-04

      iter #   4 total cpu time :   162.3 secs   av.it.:   4.9
      thresh= 2.416E-03 alpha_mix =  0.700 |ddv_scf|^2 =  4.912E-07

      iter #   5 total cpu time :   174.6 secs   av.it.:   7.1
      thresh= 7.008E-05 alpha_mix =  0.700 |ddv_scf|^2 =  7.696E-09

      iter #   6 total cpu time :   187.3 secs   av.it.:   7.2
      thresh= 8.773E-06 alpha_mix =  0.700 |ddv_scf|^2 =  1.596E-07

      iter #   7 total cpu time :   194.7 secs   av.it.:   3.2
      thresh= 3.996E-05 alpha_mix =  0.700 |ddv_scf|^2 =  1.054E-09

      iter #   8 total cpu time :   206.5 secs   av.it.:   6.7
      thresh= 3.247E-06 alpha_mix =  0.700 |ddv_scf|^2 =  2.091E-11

      iter #   9 total cpu time :   219.0 secs   av.it.:   7.2
      thresh= 4.573E-07 alpha_mix =  0.700 |ddv_scf|^2 =  2.274E-13

     End of self-consistent calculation

     Convergence has been achieved 


     Representation #  2 modes #   2  3

     Self-consistent Calculation

      iter #   1 total cpu time :   243.4 secs   av.it.:   5.5
      thresh= 1.000E-02 alpha_mix =  0.700 |ddv_scf|^2 =  5.689E-06

      iter #   2 total cpu time :   271.4 secs   av.it.:   8.3
      thresh= 2.385E-04 alpha_mix =  0.700 |ddv_scf|^2 =  1.091E-07

      iter #   3 total cpu time :   299.4 secs   av.it.:   8.4
      thresh= 3.303E-05 alpha_mix =  0.700 |ddv_scf|^2 =  1.356E-09

      iter #   4 total cpu time :   326.9 secs   av.it.:   8.0
      thresh= 3.682E-06 alpha_mix =  0.700 |ddv_scf|^2 =  4.960E-12

      iter #   5 total cpu time :   354.8 secs   av.it.:   8.2
      thresh= 2.227E-07 alpha_mix =  0.700 |ddv_scf|^2 =  1.639E-14

     End of self-consistent calculation

     Convergence has been achieved 

     Number of q in the star =    8
     List of q in the star:
          1  -0.125000000   0.125000000  -0.125000000
          2   0.125000000  -0.125000000  -0.125000000
          3   0.125000000  -0.125000000   0.125000000
          4  -0.125000000   0.125000000   0.125000000
          5   0.125000000   0.125000000  -0.125000000
          6  -0.125000000  -0.125000000  -0.125000000
          7  -0.125000000  -0.125000000   0.125000000
          8   0.125000000   0.125000000   0.125000000

     Diagonalizing the dynamical matrix

     q = (   -0.125000000   0.125000000  -0.125000000 ) 

 **************************************************************************
     freq (    1) =       0.706323 [THz] =      23.560391 [cm-1]
     freq (    2) =       0.706323 [THz] =      23.560391 [cm-1]
     freq (    3) =       2.618859 [THz] =      87.355718 [cm-1]
 **************************************************************************

     Mode symmetry, C_3v (3m)   point group:

     freq (  1 -  2) =         23.6  [cm-1]   --> E    L_3           
     freq (  3 -  3) =         87.4  [cm-1]   --> A_1  L_1           

     Calculation of q =   -0.2500000   0.2500000  -0.2500000

   Info: using nr1, nr2, nr3 values from input

   Info: using nr1, nr2, nr3 values from input

     Parallelization info
     --------------------
     sticks:   dense  smooth     PW     G-vecs:    dense   smooth      PW
     Min         214     108     40                 4215     1489     340
     Max         215     109     41                 4218     1492     342
     Sum         859     433    163                16865     5961    1363



     bravais-lattice index     =            2
     lattice parameter (alat)  =       8.8683  a.u.
     unit-cell volume          =     174.3635 (a.u.)^3
     number of atoms/cell      =            1
     number of atomic types    =            1
     number of electrons       =         9.00
     number of Kohn-Sham states=            9
     kinetic-energy cutoff     =      40.0000  Ry
     charge density cutoff     =     320.0000  Ry
     Exchange-correlation      = SLA  PW   PBE  PBE ( 1  4  3  4 0 0)

     celldm(1)=   8.868262  celldm(2)=   0.000000  celldm(3)=   0.000000
     celldm(4)=   0.000000  celldm(5)=   0.000000  celldm(6)=   0.000000

     crystal axes: (cart. coord. in units of alat)
               a(1) = (  -0.500000   0.000000   0.500000 )  
               a(2) = (   0.000000   0.500000   0.500000 )  
               a(3) = (  -0.500000   0.500000   0.000000 )  

     reciprocal axes: (cart. coord. in units 2 pi/alat)
               b(1) = ( -1.000000 -1.000000  1.000000 )  
               b(2) = (  1.000000  1.000000  1.000000 )  
               b(3) = ( -1.000000  1.000000 -1.000000 )  


     PseudoPot. # 1 for Na read from file:
     /home/s1333534/quantum_espresso/qe-6.1/pseudo/Na_pbe_v1.uspp.F.UPF
     MD5 check sum: 76a99c7e9422403d3e93cbc85ab7bccb
     Pseudo is Ultrasoft, Zval =  9.0
     Generated by new atomic code, or converted to UPF format
     Using radial grid of  819 points,  5 beta functions with: 
                l(1) =   0
                l(2) =   0
                l(3) =   1
                l(4) =   1
                l(5) =   2
     Q(r) pseudized with  8 coefficients,  rinner =    1.250   1.250   1.250
                                                       1.250   1.250

     atomic species   valence    mass     pseudopotential
        Na             9.00    22.99000     Na( 1.00)

     48 Sym. Ops., with inversion, found



   Cartesian axes

     site n.     atom                  positions (alat units)
         1           Na  tau(   1) = (   0.0000000   0.0000000   0.0000000  )

     number of k points=  4060  Marzari-Vanderbilt smearing, width (Ry)=  0.0200

     Number of k-points >= 100: set verbosity='high' to print them.

     Dense  grid:    16865 G-vectors     FFT dimensions: (  36,  36,  36)

     Smooth grid:     5961 G-vectors     FFT dimensions: (  25,  25,  25)

     Estimated max dynamical RAM per process >       1.59MB

     Estimated total allocated dynamical RAM >       6.38MB

     The potential is recalculated from file :
     ./_ph0/na.fcc.save/charge-density.dat

     Starting wfc are    5 atomic +    4 random wfc

     Band Structure Calculation
     Davidson diagonalization with overlap

     ethr =  1.11E-10,  avg # of iterations = 17.5

     total cpu time spent up to now is      152.5 secs

     End of band structure calculation

     Number of k-points >= 100: set verbosity='high' to print the bands.

     the Fermi energy is     3.4374 ev

     Writing output data file na.fcc.save

                                                                                

     bravais-lattice index     =            2
     lattice parameter (alat)  =       8.8683  a.u.
     unit-cell volume          =     174.3635 (a.u.)^3
     number of atoms/cell      =            1
     number of atomic types    =            1
     kinetic-energy cut-off    =      40.0000  Ry
     charge density cut-off    =     320.0000  Ry
     convergence threshold     =      1.0E-12
     beta                      =       0.7000
     number of iterations used =            4
     Exchange-correlation      = SLA  PW   PBE  PBE ( 1  4  3  4 0 0)


     celldm(1)=    8.86826  celldm(2)=    0.00000  celldm(3)=    0.00000
     celldm(4)=    0.00000  celldm(5)=    0.00000  celldm(6)=    0.00000

     crystal axes: (cart. coord. in units of alat)
               a(1) = ( -0.5000  0.0000  0.5000 )  
               a(2) = (  0.0000  0.5000  0.5000 )  
               a(3) = ( -0.5000  0.5000  0.0000 )  

     reciprocal axes: (cart. coord. in units 2 pi/alat)
               b(1) = ( -1.0000 -1.0000  1.0000 )  
               b(2) = (  1.0000  1.0000  1.0000 )  
               b(3) = ( -1.0000  1.0000 -1.0000 )  


     Atoms inside the unit cell: 

     Cartesian axes

     site n.  atom      mass           positions (alat units)
        1     Na  22.9900   tau(    1) = (    0.00000    0.00000    0.00000  )

     Computing dynamical matrix for 
                    q = (  -0.2500000   0.2500000  -0.2500000 )

      6 Sym.Ops. (no q -> -q+G )


     G cutoff =  637.4810  (   4218 G-vectors)     FFT grid: ( 36, 36, 36)
     G cutoff =  318.7405  (   1491 G-vectors)  smooth grid: ( 25, 25, 25)

     number of k points=  4060  Marzari-Vanderbilt smearing, width (Ry)=  0.0200

     PseudoPot. # 1 for Na read from file:
     /home/s1333534/quantum_espresso/qe-6.1/pseudo/Na_pbe_v1.uspp.F.UPF
     MD5 check sum: 76a99c7e9422403d3e93cbc85ab7bccb
     Pseudo is Ultrasoft, Zval =  9.0
     Generated by new atomic code, or converted to UPF format
     Using radial grid of  819 points,  5 beta functions with: 
                l(1) =   0
                l(2) =   0
                l(3) =   1
                l(4) =   1
                l(5) =   2
     Q(r) pseudized with  8 coefficients,  rinner =    1.250   1.250   1.250
                                                       1.250   1.250

     Mode symmetry, C_3v (3m)   point group:


     Atomic displacements:
     There are   2 irreducible representations

     Representation     1      1 modes -A_1  L_1  To be done

     Representation     2      2 modes -E    L_3  To be done



     Alpha used in Ewald sum =   2.8000
     PHONON       :  6m40.75s CPU     7m19.05s WALL



     Representation #  1 mode #   1

     Self-consistent Calculation

      iter #   1 total cpu time :   451.4 secs   av.it.:   5.7
      thresh= 1.000E-02 alpha_mix =  0.700 |ddv_scf|^2 =  6.547E-03

      iter #   2 total cpu time :   462.9 secs   av.it.:   6.2
      thresh= 8.092E-03 alpha_mix =  0.700 |ddv_scf|^2 =  1.526E-01

      iter #   3 total cpu time :   474.8 secs   av.it.:   6.0
      thresh= 1.000E-02 alpha_mix =  0.700 |ddv_scf|^2 =  5.113E-06

      iter #   4 total cpu time :   487.4 secs   av.it.:   7.2
      thresh= 2.261E-04 alpha_mix =  0.700 |ddv_scf|^2 =  1.829E-08

      iter #   5 total cpu time :   501.2 secs   av.it.:   8.0
      thresh= 1.352E-05 alpha_mix =  0.700 |ddv_scf|^2 =  3.271E-09

      iter #   6 total cpu time :   514.4 secs   av.it.:   7.5
      thresh= 5.719E-06 alpha_mix =  0.700 |ddv_scf|^2 =  3.787E-11

      iter #   7 total cpu time :   527.8 secs   av.it.:   7.7
      thresh= 6.154E-07 alpha_mix =  0.700 |ddv_scf|^2 =  7.002E-12

      iter #   8 total cpu time :   540.5 secs   av.it.:   7.1
      thresh= 2.646E-07 alpha_mix =  0.700 |ddv_scf|^2 =  4.618E-11

      iter #   9 total cpu time :   551.4 secs   av.it.:   5.8
      thresh= 6.796E-07 alpha_mix =  0.700 |ddv_scf|^2 =  2.997E-12

      iter #  10 total cpu time :   563.7 secs   av.it.:   7.0
      thresh= 1.731E-07 alpha_mix =  0.700 |ddv_scf|^2 =  4.944E-14

     End of self-consistent calculation

     Convergence has been achieved 


     Representation #  2 modes #   2  3

     Self-consistent Calculation

      iter #   1 total cpu time :   588.6 secs   av.it.:   5.6
      thresh= 1.000E-02 alpha_mix =  0.700 |ddv_scf|^2 =  5.829E-06

      iter #   2 total cpu time :   618.0 secs   av.it.:   8.3
      thresh= 2.414E-04 alpha_mix =  0.700 |ddv_scf|^2 =  1.080E-07

      iter #   3 total cpu time :   646.9 secs   av.it.:   8.4
      thresh= 3.286E-05 alpha_mix =  0.700 |ddv_scf|^2 =  1.634E-09

      iter #   4 total cpu time :   674.6 secs   av.it.:   8.0
      thresh= 4.042E-06 alpha_mix =  0.700 |ddv_scf|^2 =  5.994E-12

      iter #   5 total cpu time :   702.7 secs   av.it.:   8.3
      thresh= 2.448E-07 alpha_mix =  0.700 |ddv_scf|^2 =  1.598E-14

     End of self-consistent calculation

     Convergence has been achieved 

     Number of q in the star =    8
     List of q in the star:
          1  -0.250000000   0.250000000  -0.250000000
          2   0.250000000  -0.250000000  -0.250000000
          3   0.250000000  -0.250000000   0.250000000
          4  -0.250000000   0.250000000   0.250000000
          5   0.250000000   0.250000000  -0.250000000
          6  -0.250000000  -0.250000000  -0.250000000
          7  -0.250000000  -0.250000000   0.250000000
          8   0.250000000   0.250000000   0.250000000

     Diagonalizing the dynamical matrix

     q = (   -0.250000000   0.250000000  -0.250000000 ) 

 **************************************************************************
     freq (    1) =       1.382683 [THz] =      46.121327 [cm-1]
     freq (    2) =       1.382683 [THz] =      46.121327 [cm-1]
     freq (    3) =       4.451305 [THz] =     148.479553 [cm-1]
 **************************************************************************

     Mode symmetry, C_3v (3m)   point group:

     freq (  1 -  2) =         46.1  [cm-1]   --> E    L_3           
     freq (  3 -  3) =        148.5  [cm-1]   --> A_1  L_1           

     Calculation of q =   -0.3750000   0.3750000  -0.3750000

   Info: using nr1, nr2, nr3 values from input

   Info: using nr1, nr2, nr3 values from input

     Parallelization info
     --------------------
     sticks:   dense  smooth     PW     G-vecs:    dense   smooth      PW
     Min         214     108     40                 4215     1489     351
     Max         215     109     41                 4218     1492     354
     Sum         859     433    163                16865     5961    1411



     bravais-lattice index     =            2
     lattice parameter (alat)  =       8.8683  a.u.
     unit-cell volume          =     174.3635 (a.u.)^3
     number of atoms/cell      =            1
     number of atomic types    =            1
     number of electrons       =         9.00
     number of Kohn-Sham states=            9
     kinetic-energy cutoff     =      40.0000  Ry
     charge density cutoff     =     320.0000  Ry
     Exchange-correlation      = SLA  PW   PBE  PBE ( 1  4  3  4 0 0)

     celldm(1)=   8.868262  celldm(2)=   0.000000  celldm(3)=   0.000000
     celldm(4)=   0.000000  celldm(5)=   0.000000  celldm(6)=   0.000000

     crystal axes: (cart. coord. in units of alat)
               a(1) = (  -0.500000   0.000000   0.500000 )  
               a(2) = (   0.000000   0.500000   0.500000 )  
               a(3) = (  -0.500000   0.500000   0.000000 )  

     reciprocal axes: (cart. coord. in units 2 pi/alat)
               b(1) = ( -1.000000 -1.000000  1.000000 )  
               b(2) = (  1.000000  1.000000  1.000000 )  
               b(3) = ( -1.000000  1.000000 -1.000000 )  


     PseudoPot. # 1 for Na read from file:
     /home/s1333534/quantum_espresso/qe-6.1/pseudo/Na_pbe_v1.uspp.F.UPF
     MD5 check sum: 76a99c7e9422403d3e93cbc85ab7bccb
     Pseudo is Ultrasoft, Zval =  9.0
     Generated by new atomic code, or converted to UPF format
     Using radial grid of  819 points,  5 beta functions with: 
                l(1) =   0
                l(2) =   0
                l(3) =   1
                l(4) =   1
                l(5) =   2
     Q(r) pseudized with  8 coefficients,  rinner =    1.250   1.250   1.250
                                                       1.250   1.250

     atomic species   valence    mass     pseudopotential
        Na             9.00    22.99000     Na( 1.00)

     48 Sym. Ops., with inversion, found



   Cartesian axes

     site n.     atom                  positions (alat units)
         1           Na  tau(   1) = (   0.0000000   0.0000000   0.0000000  )

     number of k points=  4060  Marzari-Vanderbilt smearing, width (Ry)=  0.0200

     Number of k-points >= 100: set verbosity='high' to print them.

     Dense  grid:    16865 G-vectors     FFT dimensions: (  36,  36,  36)

     Smooth grid:     5961 G-vectors     FFT dimensions: (  25,  25,  25)

     Estimated max dynamical RAM per process >       1.59MB

     Estimated total allocated dynamical RAM >       6.38MB

     The potential is recalculated from file :
     ./_ph0/na.fcc.save/charge-density.dat

     Starting wfc are    5 atomic +    4 random wfc

     Band Structure Calculation
     Davidson diagonalization with overlap

     ethr =  1.11E-10,  avg # of iterations = 17.5

     total cpu time spent up to now is      230.0 secs

     End of band structure calculation

     Number of k-points >= 100: set verbosity='high' to print the bands.

     the Fermi energy is     3.4374 ev

     Writing output data file na.fcc.save

                                                                                

     bravais-lattice index     =            2
     lattice parameter (alat)  =       8.8683  a.u.
     unit-cell volume          =     174.3635 (a.u.)^3
     number of atoms/cell      =            1
     number of atomic types    =            1
     kinetic-energy cut-off    =      40.0000  Ry
     charge density cut-off    =     320.0000  Ry
     convergence threshold     =      1.0E-12
     beta                      =       0.7000
     number of iterations used =            4
     Exchange-correlation      = SLA  PW   PBE  PBE ( 1  4  3  4 0 0)


     celldm(1)=    8.86826  celldm(2)=    0.00000  celldm(3)=    0.00000
     celldm(4)=    0.00000  celldm(5)=    0.00000  celldm(6)=    0.00000

     crystal axes: (cart. coord. in units of alat)
               a(1) = ( -0.5000  0.0000  0.5000 )  
               a(2) = (  0.0000  0.5000  0.5000 )  
               a(3) = ( -0.5000  0.5000  0.0000 )  

     reciprocal axes: (cart. coord. in units 2 pi/alat)
               b(1) = ( -1.0000 -1.0000  1.0000 )  
               b(2) = (  1.0000  1.0000  1.0000 )  
               b(3) = ( -1.0000  1.0000 -1.0000 )  


     Atoms inside the unit cell: 

     Cartesian axes

     site n.  atom      mass           positions (alat units)
        1     Na  22.9900   tau(    1) = (    0.00000    0.00000    0.00000  )

     Computing dynamical matrix for 
                    q = (  -0.3750000   0.3750000  -0.3750000 )

      6 Sym.Ops. (no q -> -q+G )


     G cutoff =  637.4810  (   4218 G-vectors)     FFT grid: ( 36, 36, 36)
     G cutoff =  318.7405  (   1491 G-vectors)  smooth grid: ( 25, 25, 25)

     number of k points=  4060  Marzari-Vanderbilt smearing, width (Ry)=  0.0200

     PseudoPot. # 1 for Na read from file:
     /home/s1333534/quantum_espresso/qe-6.1/pseudo/Na_pbe_v1.uspp.F.UPF
     MD5 check sum: 76a99c7e9422403d3e93cbc85ab7bccb
     Pseudo is Ultrasoft, Zval =  9.0
     Generated by new atomic code, or converted to UPF format
     Using radial grid of  819 points,  5 beta functions with: 
                l(1) =   0
                l(2) =   0
                l(3) =   1
                l(4) =   1
                l(5) =   2
     Q(r) pseudized with  8 coefficients,  rinner =    1.250   1.250   1.250
                                                       1.250   1.250

     Mode symmetry, C_3v (3m)   point group:


     Atomic displacements:
     There are   2 irreducible representations

     Representation     1      1 modes -A_1  L_1  To be done

     Representation     2      2 modes -E    L_3  To be done



     Alpha used in Ewald sum =   2.8000
     PHONON       : 11m56.54s CPU    13m 7.80s WALL



     Representation #  1 mode #   1

     Self-consistent Calculation

      iter #   1 total cpu time :   800.2 secs   av.it.:   5.8
      thresh= 1.000E-02 alpha_mix =  0.700 |ddv_scf|^2 =  6.691E-04

      iter #   2 total cpu time :   812.2 secs   av.it.:   6.6
      thresh= 2.587E-03 alpha_mix =  0.700 |ddv_scf|^2 =  2.001E-03

      iter #   3 total cpu time :   823.8 secs   av.it.:   6.0
      thresh= 4.473E-03 alpha_mix =  0.700 |ddv_scf|^2 =  8.517E-07

      iter #   4 total cpu time :   837.1 secs   av.it.:   7.7
      thresh= 9.229E-05 alpha_mix =  0.700 |ddv_scf|^2 =  2.111E-08

      iter #   5 total cpu time :   851.0 secs   av.it.:   8.1
      thresh= 1.453E-05 alpha_mix =  0.700 |ddv_scf|^2 =  8.523E-10

      iter #   6 total cpu time :   864.6 secs   av.it.:   7.9
      thresh= 2.919E-06 alpha_mix =  0.700 |ddv_scf|^2 =  3.428E-11

      iter #   7 total cpu time :   877.7 secs   av.it.:   7.5
      thresh= 5.855E-07 alpha_mix =  0.700 |ddv_scf|^2 =  1.975E-12

      iter #   8 total cpu time :   891.4 secs   av.it.:   7.7
      thresh= 1.405E-07 alpha_mix =  0.700 |ddv_scf|^2 =  1.121E-14

     End of self-consistent calculation

     Convergence has been achieved 


     Representation #  2 modes #   2  3

     Self-consistent Calculation

      iter #   1 total cpu time :   916.4 secs   av.it.:   5.6
      thresh= 1.000E-02 alpha_mix =  0.700 |ddv_scf|^2 =  5.964E-06

      iter #   2 total cpu time :   945.2 secs   av.it.:   8.3
      thresh= 2.442E-04 alpha_mix =  0.700 |ddv_scf|^2 =  1.071E-07

      iter #   3 total cpu time :   973.9 secs   av.it.:   8.4
      thresh= 3.273E-05 alpha_mix =  0.700 |ddv_scf|^2 =  1.878E-09

      iter #   4 total cpu time :  1001.6 secs   av.it.:   8.0
      thresh= 4.334E-06 alpha_mix =  0.700 |ddv_scf|^2 =  6.911E-12

      iter #   5 total cpu time :  1030.0 secs   av.it.:   8.3
      thresh= 2.629E-07 alpha_mix =  0.700 |ddv_scf|^2 =  1.588E-14

     End of self-consistent calculation

     Convergence has been achieved 

     Number of q in the star =    8
     List of q in the star:
          1  -0.375000000   0.375000000  -0.375000000
          2   0.375000000  -0.375000000  -0.375000000
          3   0.375000000  -0.375000000   0.375000000
          4  -0.375000000   0.375000000   0.375000000
          5   0.375000000   0.375000000  -0.375000000
          6  -0.375000000  -0.375000000  -0.375000000
          7  -0.375000000  -0.375000000   0.375000000
          8   0.375000000   0.375000000   0.375000000

     Diagonalizing the dynamical matrix

     q = (   -0.375000000   0.375000000  -0.375000000 ) 

 **************************************************************************
     freq (    1) =       1.856927 [THz] =      61.940419 [cm-1]
     freq (    2) =       1.856927 [THz] =      61.940419 [cm-1]
     freq (    3) =       5.823841 [THz] =     194.262416 [cm-1]
 **************************************************************************

     Mode symmetry, C_3v (3m)   point group:

     freq (  1 -  2) =         61.9  [cm-1]   --> E    L_3           
     freq (  3 -  3) =        194.3  [cm-1]   --> A_1  L_1           

     Calculation of q =    0.5000000  -0.5000000   0.5000000

   Info: using nr1, nr2, nr3 values from input

   Info: using nr1, nr2, nr3 values from input

     Parallelization info
     --------------------
     sticks:   dense  smooth     PW     G-vecs:    dense   smooth      PW
     Min         214     108     40                 4215     1489     362
     Max         215     109     41                 4218     1492     366
     Sum         859     433    163                16865     5961    1459



     bravais-lattice index     =            2
     lattice parameter (alat)  =       8.8683  a.u.
     unit-cell volume          =     174.3635 (a.u.)^3
     number of atoms/cell      =            1
     number of atomic types    =            1
     number of electrons       =         9.00
     number of Kohn-Sham states=            9
     kinetic-energy cutoff     =      40.0000  Ry
     charge density cutoff     =     320.0000  Ry
     Exchange-correlation      = SLA  PW   PBE  PBE ( 1  4  3  4 0 0)

     celldm(1)=   8.868262  celldm(2)=   0.000000  celldm(3)=   0.000000
     celldm(4)=   0.000000  celldm(5)=   0.000000  celldm(6)=   0.000000

     crystal axes: (cart. coord. in units of alat)
               a(1) = (  -0.500000   0.000000   0.500000 )  
               a(2) = (   0.000000   0.500000   0.500000 )  
               a(3) = (  -0.500000   0.500000   0.000000 )  

     reciprocal axes: (cart. coord. in units 2 pi/alat)
               b(1) = ( -1.000000 -1.000000  1.000000 )  
               b(2) = (  1.000000  1.000000  1.000000 )  
               b(3) = ( -1.000000  1.000000 -1.000000 )  


     PseudoPot. # 1 for Na read from file:
     /home/s1333534/quantum_espresso/qe-6.1/pseudo/Na_pbe_v1.uspp.F.UPF
     MD5 check sum: 76a99c7e9422403d3e93cbc85ab7bccb
     Pseudo is Ultrasoft, Zval =  9.0
     Generated by new atomic code, or converted to UPF format
     Using radial grid of  819 points,  5 beta functions with: 
                l(1) =   0
                l(2) =   0
                l(3) =   1
                l(4) =   1
                l(5) =   2
     Q(r) pseudized with  8 coefficients,  rinner =    1.250   1.250   1.250
                                                       1.250   1.250

     atomic species   valence    mass     pseudopotential
        Na             9.00    22.99000     Na( 1.00)

     48 Sym. Ops., with inversion, found



   Cartesian axes

     site n.     atom                  positions (alat units)
         1           Na  tau(   1) = (   0.0000000   0.0000000   0.0000000  )

     number of k points=  2030  Marzari-Vanderbilt smearing, width (Ry)=  0.0200

     Number of k-points >= 100: set verbosity='high' to print them.

     Dense  grid:    16865 G-vectors     FFT dimensions: (  36,  36,  36)

     Smooth grid:     5961 G-vectors     FFT dimensions: (  25,  25,  25)

     Estimated max dynamical RAM per process >       1.59MB

     Estimated total allocated dynamical RAM >       6.38MB

     The potential is recalculated from file :
     ./_ph0/na.fcc.save/charge-density.dat

     Starting wfc are    5 atomic +    4 random wfc

     Band Structure Calculation
     Davidson diagonalization with overlap

     ethr =  1.11E-10,  avg # of iterations = 17.4

     total cpu time spent up to now is      270.3 secs

     End of band structure calculation

     Number of k-points >= 100: set verbosity='high' to print the bands.

     the Fermi energy is     3.4374 ev

     Writing output data file na.fcc.save

                                                                                

     bravais-lattice index     =            2
     lattice parameter (alat)  =       8.8683  a.u.
     unit-cell volume          =     174.3635 (a.u.)^3
     number of atoms/cell      =            1
     number of atomic types    =            1
     kinetic-energy cut-off    =      40.0000  Ry
     charge density cut-off    =     320.0000  Ry
     convergence threshold     =      1.0E-12
     beta                      =       0.7000
     number of iterations used =            4
     Exchange-correlation      = SLA  PW   PBE  PBE ( 1  4  3  4 0 0)


     celldm(1)=    8.86826  celldm(2)=    0.00000  celldm(3)=    0.00000
     celldm(4)=    0.00000  celldm(5)=    0.00000  celldm(6)=    0.00000

     crystal axes: (cart. coord. in units of alat)
               a(1) = ( -0.5000  0.0000  0.5000 )  
               a(2) = (  0.0000  0.5000  0.5000 )  
               a(3) = ( -0.5000  0.5000  0.0000 )  

     reciprocal axes: (cart. coord. in units 2 pi/alat)
               b(1) = ( -1.0000 -1.0000  1.0000 )  
               b(2) = (  1.0000  1.0000  1.0000 )  
               b(3) = ( -1.0000  1.0000 -1.0000 )  


     Atoms inside the unit cell: 

     Cartesian axes

     site n.  atom      mass           positions (alat units)
        1     Na  22.9900   tau(    1) = (    0.00000    0.00000    0.00000  )

     Computing dynamical matrix for 
                    q = (   0.5000000  -0.5000000   0.5000000 )

     13 Sym.Ops. (with q -> -q+G )


     G cutoff =  637.4810  (   4218 G-vectors)     FFT grid: ( 36, 36, 36)
     G cutoff =  318.7405  (   1491 G-vectors)  smooth grid: ( 25, 25, 25)

     number of k points=  2030  Marzari-Vanderbilt smearing, width (Ry)=  0.0200

     PseudoPot. # 1 for Na read from file:
     /home/s1333534/quantum_espresso/qe-6.1/pseudo/Na_pbe_v1.uspp.F.UPF
     MD5 check sum: 76a99c7e9422403d3e93cbc85ab7bccb
     Pseudo is Ultrasoft, Zval =  9.0
     Generated by new atomic code, or converted to UPF format
     Using radial grid of  819 points,  5 beta functions with: 
                l(1) =   0
                l(2) =   0
                l(3) =   1
                l(4) =   1
                l(5) =   2
     Q(r) pseudized with  8 coefficients,  rinner =    1.250   1.250   1.250
                                                       1.250   1.250

     Mode symmetry, D_3d (-3m)  point group:


     Atomic displacements:
     There are   2 irreducible representations

     Representation     1      1 modes -A_2u L_2'  To be done

     Representation     2      2 modes -E_u  L_3'  To be done



     Alpha used in Ewald sum =   2.8000
     PHONON       : 16m13.80s CPU    17m52.68s WALL



     Representation #  1 mode #   1

     Self-consistent Calculation

      iter #   1 total cpu time :  1079.0 secs   av.it.:   5.8
      thresh= 1.000E-02 alpha_mix =  0.700 |ddv_scf|^2 =  2.552E-04

      iter #   2 total cpu time :  1085.1 secs   av.it.:   6.7
      thresh= 1.598E-03 alpha_mix =  0.700 |ddv_scf|^2 =  1.465E-04

      iter #   3 total cpu time :  1091.1 secs   av.it.:   6.6
      thresh= 1.210E-03 alpha_mix =  0.700 |ddv_scf|^2 =  1.529E-07

      iter #   4 total cpu time :  1097.8 secs   av.it.:   7.7
      thresh= 3.911E-05 alpha_mix =  0.700 |ddv_scf|^2 =  5.728E-10

      iter #   5 total cpu time :  1103.9 secs   av.it.:   6.7
      thresh= 2.393E-06 alpha_mix =  0.700 |ddv_scf|^2 =  1.390E-11

      iter #   6 total cpu time :  1109.9 secs   av.it.:   6.3
      thresh= 3.728E-07 alpha_mix =  0.700 |ddv_scf|^2 =  2.819E-14

     End of self-consistent calculation

     Convergence has been achieved 


     Representation #  2 modes #   2  3

     Self-consistent Calculation

      iter #   1 total cpu time :  1122.0 secs   av.it.:   5.5
      thresh= 1.000E-02 alpha_mix =  0.700 |ddv_scf|^2 =  6.016E-06

      iter #   2 total cpu time :  1136.0 secs   av.it.:   8.2
      thresh= 2.453E-04 alpha_mix =  0.700 |ddv_scf|^2 =  1.071E-07

      iter #   3 total cpu time :  1150.8 secs   av.it.:   8.3
      thresh= 3.272E-05 alpha_mix =  0.700 |ddv_scf|^2 =  1.975E-09

      iter #   4 total cpu time :  1164.1 secs   av.it.:   7.7
      thresh= 4.444E-06 alpha_mix =  0.700 |ddv_scf|^2 =  7.220E-12

      iter #   5 total cpu time :  1178.0 secs   av.it.:   8.0
      thresh= 2.687E-07 alpha_mix =  0.700 |ddv_scf|^2 =  1.597E-14

     End of self-consistent calculation

     Convergence has been achieved 

     Number of q in the star =    4
     List of q in the star:
          1   0.500000000  -0.500000000   0.500000000
          2   0.500000000   0.500000000   0.500000000
          3  -0.500000000   0.500000000   0.500000000
          4   0.500000000   0.500000000  -0.500000000

     Diagonalizing the dynamical matrix

     q = (    0.500000000  -0.500000000   0.500000000 ) 

 **************************************************************************
     freq (    1) =       2.079123 [THz] =      69.352090 [cm-1]
     freq (    2) =       2.079123 [THz] =      69.352090 [cm-1]
     freq (    3) =       6.336971 [THz] =     211.378598 [cm-1]
 **************************************************************************

     Mode symmetry, D_3d (-3m)  point group:

     freq (  1 -  2) =         69.4  [cm-1]   --> E_u  L_3'          
     freq (  3 -  3) =        211.4  [cm-1]   --> A_2u L_2'          

     Calculation of q =    0.0000000   0.2500000   0.0000000

   Info: using nr1, nr2, nr3 values from input

   Info: using nr1, nr2, nr3 values from input

     Parallelization info
     --------------------
     sticks:   dense  smooth     PW     G-vecs:    dense   smooth      PW
     Min         214     108     37                 4215     1489     309
     Max         215     109     38                 4218     1491     312
     Sum         859     433    151                16865     5961    1243



     bravais-lattice index     =            2
     lattice parameter (alat)  =       8.8683  a.u.
     unit-cell volume          =     174.3635 (a.u.)^3
     number of atoms/cell      =            1
     number of atomic types    =            1
     number of electrons       =         9.00
     number of Kohn-Sham states=            9
     kinetic-energy cutoff     =      40.0000  Ry
     charge density cutoff     =     320.0000  Ry
     Exchange-correlation      = SLA  PW   PBE  PBE ( 1  4  3  4 0 0)

     celldm(1)=   8.868262  celldm(2)=   0.000000  celldm(3)=   0.000000
     celldm(4)=   0.000000  celldm(5)=   0.000000  celldm(6)=   0.000000

     crystal axes: (cart. coord. in units of alat)
               a(1) = (  -0.500000   0.000000   0.500000 )  
               a(2) = (   0.000000   0.500000   0.500000 )  
               a(3) = (  -0.500000   0.500000   0.000000 )  

     reciprocal axes: (cart. coord. in units 2 pi/alat)
               b(1) = ( -1.000000 -1.000000  1.000000 )  
               b(2) = (  1.000000  1.000000  1.000000 )  
               b(3) = ( -1.000000  1.000000 -1.000000 )  


     PseudoPot. # 1 for Na read from file:
     /home/s1333534/quantum_espresso/qe-6.1/pseudo/Na_pbe_v1.uspp.F.UPF
     MD5 check sum: 76a99c7e9422403d3e93cbc85ab7bccb
     Pseudo is Ultrasoft, Zval =  9.0
     Generated by new atomic code, or converted to UPF format
     Using radial grid of  819 points,  5 beta functions with: 
                l(1) =   0
                l(2) =   0
                l(3) =   1
                l(4) =   1
                l(5) =   2
     Q(r) pseudized with  8 coefficients,  rinner =    1.250   1.250   1.250
                                                       1.250   1.250

     atomic species   valence    mass     pseudopotential
        Na             9.00    22.99000     Na( 1.00)

     48 Sym. Ops., with inversion, found



   Cartesian axes

     site n.     atom                  positions (alat units)
         1           Na  tau(   1) = (   0.0000000   0.0000000   0.0000000  )

     number of k points=  2940  Marzari-Vanderbilt smearing, width (Ry)=  0.0200

     Number of k-points >= 100: set verbosity='high' to print them.

     Dense  grid:    16865 G-vectors     FFT dimensions: (  36,  36,  36)

     Smooth grid:     5961 G-vectors     FFT dimensions: (  25,  25,  25)

     Estimated max dynamical RAM per process >       1.59MB

     Estimated total allocated dynamical RAM >       6.38MB

     The potential is recalculated from file :
     ./_ph0/na.fcc.save/charge-density.dat

     Starting wfc are    5 atomic +    4 random wfc

     Band Structure Calculation
     Davidson diagonalization with overlap

     ethr =  1.11E-10,  avg # of iterations = 17.4

     total cpu time spent up to now is      325.2 secs

     End of band structure calculation

     Number of k-points >= 100: set verbosity='high' to print the bands.

     the Fermi energy is     3.4374 ev

     Writing output data file na.fcc.save

                                                                                

     bravais-lattice index     =            2
     lattice parameter (alat)  =       8.8683  a.u.
     unit-cell volume          =     174.3635 (a.u.)^3
     number of atoms/cell      =            1
     number of atomic types    =            1
     kinetic-energy cut-off    =      40.0000  Ry
     charge density cut-off    =     320.0000  Ry
     convergence threshold     =      1.0E-12
     beta                      =       0.7000
     number of iterations used =            4
     Exchange-correlation      = SLA  PW   PBE  PBE ( 1  4  3  4 0 0)


     celldm(1)=    8.86826  celldm(2)=    0.00000  celldm(3)=    0.00000
     celldm(4)=    0.00000  celldm(5)=    0.00000  celldm(6)=    0.00000

     crystal axes: (cart. coord. in units of alat)
               a(1) = ( -0.5000  0.0000  0.5000 )  
               a(2) = (  0.0000  0.5000  0.5000 )  
               a(3) = ( -0.5000  0.5000  0.0000 )  

     reciprocal axes: (cart. coord. in units 2 pi/alat)
               b(1) = ( -1.0000 -1.0000  1.0000 )  
               b(2) = (  1.0000  1.0000  1.0000 )  
               b(3) = ( -1.0000  1.0000 -1.0000 )  


     Atoms inside the unit cell: 

     Cartesian axes

     site n.  atom      mass           positions (alat units)
        1     Na  22.9900   tau(    1) = (    0.00000    0.00000    0.00000  )

     Computing dynamical matrix for 
                    q = (   0.0000000   0.2500000   0.0000000 )

      8 Sym.Ops. (no q -> -q+G )


     G cutoff =  637.4810  (   4218 G-vectors)     FFT grid: ( 36, 36, 36)
     G cutoff =  318.7405  (   1491 G-vectors)  smooth grid: ( 25, 25, 25)

     number of k points=  2940  Marzari-Vanderbilt smearing, width (Ry)=  0.0200

     PseudoPot. # 1 for Na read from file:
     /home/s1333534/quantum_espresso/qe-6.1/pseudo/Na_pbe_v1.uspp.F.UPF
     MD5 check sum: 76a99c7e9422403d3e93cbc85ab7bccb
     Pseudo is Ultrasoft, Zval =  9.0
     Generated by new atomic code, or converted to UPF format
     Using radial grid of  819 points,  5 beta functions with: 
                l(1) =   0
                l(2) =   0
                l(3) =   1
                l(4) =   1
                l(5) =   2
     Q(r) pseudized with  8 coefficients,  rinner =    1.250   1.250   1.250
                                                       1.250   1.250

     Mode symmetry, C_4v (4mm)  point group:


     Atomic displacements:
     There are   2 irreducible representations

     Representation     1      1 modes -A_1  G_1 D_1  To be done

     Representation     2      2 modes -E    G_5 D_5  To be done



     Alpha used in Ewald sum =   2.8000
     PHONON       : 18m44.69s CPU    20m38.21s WALL



     Representation #  1 mode #   1

     Self-consistent Calculation

      iter #   1 total cpu time :  1247.0 secs   av.it.:   5.7
      thresh= 1.000E-02 alpha_mix =  0.700 |ddv_scf|^2 =  1.837E-01

      iter #   2 total cpu time :  1256.0 secs   av.it.:   7.0
      thresh= 1.000E-02 alpha_mix =  0.700 |ddv_scf|^2 =  5.142E+01

      iter #   3 total cpu time :  1265.0 secs   av.it.:   7.0
      thresh= 1.000E-02 alpha_mix =  0.700 |ddv_scf|^2 =  4.588E-05

      iter #   4 total cpu time :  1273.5 secs   av.it.:   6.3
      thresh= 6.773E-04 alpha_mix =  0.700 |ddv_scf|^2 =  3.860E-07

      iter #   5 total cpu time :  1282.7 secs   av.it.:   7.1
      thresh= 6.213E-05 alpha_mix =  0.700 |ddv_scf|^2 =  7.635E-09

      iter #   6 total cpu time :  1291.7 secs   av.it.:   7.0
      thresh= 8.738E-06 alpha_mix =  0.700 |ddv_scf|^2 =  2.631E-07

      iter #   7 total cpu time :  1298.1 secs   av.it.:   4.3
      thresh= 5.129E-05 alpha_mix =  0.700 |ddv_scf|^2 =  2.074E-10

      iter #   8 total cpu time :  1307.9 secs   av.it.:   7.5
      thresh= 1.440E-06 alpha_mix =  0.700 |ddv_scf|^2 =  1.012E-11

      iter #   9 total cpu time :  1317.1 secs   av.it.:   7.5
      thresh= 3.182E-07 alpha_mix =  0.700 |ddv_scf|^2 =  2.192E-13

     End of self-consistent calculation

     Convergence has been achieved 


     Representation #  2 modes #   2  3

     Self-consistent Calculation

      iter #   1 total cpu time :  1334.6 secs   av.it.:   5.5
      thresh= 1.000E-02 alpha_mix =  0.700 |ddv_scf|^2 =  5.877E-06

      iter #   2 total cpu time :  1355.1 secs   av.it.:   8.3
      thresh= 2.424E-04 alpha_mix =  0.700 |ddv_scf|^2 =  1.062E-07

      iter #   3 total cpu time :  1375.9 secs   av.it.:   8.4
      thresh= 3.258E-05 alpha_mix =  0.700 |ddv_scf|^2 =  1.826E-09

      iter #   4 total cpu time :  1395.4 secs   av.it.:   7.9
      thresh= 4.274E-06 alpha_mix =  0.700 |ddv_scf|^2 =  6.391E-12

      iter #   5 total cpu time :  1415.5 secs   av.it.:   8.2
      thresh= 2.528E-07 alpha_mix =  0.700 |ddv_scf|^2 =  1.454E-14

     End of self-consistent calculation

     Convergence has been achieved 

     Number of q in the star =    6
     List of q in the star:
          1   0.000000000   0.250000000   0.000000000
          2   0.000000000  -0.250000000   0.000000000
          3   0.250000000   0.000000000   0.000000000
          4   0.000000000   0.000000000   0.250000000
          5   0.000000000   0.000000000  -0.250000000
          6  -0.250000000   0.000000000   0.000000000

     Diagonalizing the dynamical matrix

     q = (    0.000000000   0.250000000   0.000000000 ) 

 **************************************************************************
     freq (    1) =       1.395924 [THz] =      46.563021 [cm-1]
     freq (    2) =       1.395924 [THz] =      46.563021 [cm-1]
     freq (    3) =       2.481976 [THz] =      82.789819 [cm-1]
 **************************************************************************

     Mode symmetry, C_4v (4mm)  point group:

     freq (  1 -  2) =         46.6  [cm-1]   --> E    G_5 D_5       
     freq (  3 -  3) =         82.8  [cm-1]   --> A_1  G_1 D_1       

     Calculation of q =   -0.1250000   0.3750000  -0.1250000

   Info: using nr1, nr2, nr3 values from input

   Info: using nr1, nr2, nr3 values from input

     Parallelization info
     --------------------
     sticks:   dense  smooth     PW     G-vecs:    dense   smooth      PW
     Min         214     108     40                 4215     1489     340
     Max         215     109     41                 4218     1492     342
     Sum         859     433    163                16865     5961    1363



     bravais-lattice index     =            2
     lattice parameter (alat)  =       8.8683  a.u.
     unit-cell volume          =     174.3635 (a.u.)^3
     number of atoms/cell      =            1
     number of atomic types    =            1
     number of electrons       =         9.00
     number of Kohn-Sham states=            9
     kinetic-energy cutoff     =      40.0000  Ry
     charge density cutoff     =     320.0000  Ry
     Exchange-correlation      = SLA  PW   PBE  PBE ( 1  4  3  4 0 0)

     celldm(1)=   8.868262  celldm(2)=   0.000000  celldm(3)=   0.000000
     celldm(4)=   0.000000  celldm(5)=   0.000000  celldm(6)=   0.000000

     crystal axes: (cart. coord. in units of alat)
               a(1) = (  -0.500000   0.000000   0.500000 )  
               a(2) = (   0.000000   0.500000   0.500000 )  
               a(3) = (  -0.500000   0.500000   0.000000 )  

     reciprocal axes: (cart. coord. in units 2 pi/alat)
               b(1) = ( -1.000000 -1.000000  1.000000 )  
               b(2) = (  1.000000  1.000000  1.000000 )  
               b(3) = ( -1.000000  1.000000 -1.000000 )  


     PseudoPot. # 1 for Na read from file:
     /home/s1333534/quantum_espresso/qe-6.1/pseudo/Na_pbe_v1.uspp.F.UPF
     MD5 check sum: 76a99c7e9422403d3e93cbc85ab7bccb
     Pseudo is Ultrasoft, Zval =  9.0
     Generated by new atomic code, or converted to UPF format
     Using radial grid of  819 points,  5 beta functions with: 
                l(1) =   0
                l(2) =   0
                l(3) =   1
                l(4) =   1
                l(5) =   2
     Q(r) pseudized with  8 coefficients,  rinner =    1.250   1.250   1.250
                                                       1.250   1.250

     atomic species   valence    mass     pseudopotential
        Na             9.00    22.99000     Na( 1.00)

     48 Sym. Ops., with inversion, found



   Cartesian axes

     site n.     atom                  positions (alat units)
         1           Na  tau(   1) = (   0.0000000   0.0000000   0.0000000  )

     number of k points= 11368  Marzari-Vanderbilt smearing, width (Ry)=  0.0200

     Number of k-points >= 100: set verbosity='high' to print them.

     Dense  grid:    16865 G-vectors     FFT dimensions: (  36,  36,  36)

     Smooth grid:     5961 G-vectors     FFT dimensions: (  25,  25,  25)

     Estimated max dynamical RAM per process >       1.59MB

     Estimated total allocated dynamical RAM >       6.38MB

     The potential is recalculated from file :
     ./_ph0/na.fcc.save/charge-density.dat

     Starting wfc are    5 atomic +    4 random wfc

     Band Structure Calculation
     Davidson diagonalization with overlap

     ethr =  1.11E-10,  avg # of iterations = 17.4

     total cpu time spent up to now is      536.2 secs

     End of band structure calculation

     Number of k-points >= 100: set verbosity='high' to print the bands.

     the Fermi energy is     3.4374 ev

     Writing output data file na.fcc.save

                                                                                

     bravais-lattice index     =            2
     lattice parameter (alat)  =       8.8683  a.u.
     unit-cell volume          =     174.3635 (a.u.)^3
     number of atoms/cell      =            1
     number of atomic types    =            1
     kinetic-energy cut-off    =      40.0000  Ry
     charge density cut-off    =     320.0000  Ry
     convergence threshold     =      1.0E-12
     beta                      =       0.7000
     number of iterations used =            4
     Exchange-correlation      = SLA  PW   PBE  PBE ( 1  4  3  4 0 0)


     celldm(1)=    8.86826  celldm(2)=    0.00000  celldm(3)=    0.00000
     celldm(4)=    0.00000  celldm(5)=    0.00000  celldm(6)=    0.00000

     crystal axes: (cart. coord. in units of alat)
               a(1) = ( -0.5000  0.0000  0.5000 )  
               a(2) = (  0.0000  0.5000  0.5000 )  
               a(3) = ( -0.5000  0.5000  0.0000 )  

     reciprocal axes: (cart. coord. in units 2 pi/alat)
               b(1) = ( -1.0000 -1.0000  1.0000 )  
               b(2) = (  1.0000  1.0000  1.0000 )  
               b(3) = ( -1.0000  1.0000 -1.0000 )  


     Atoms inside the unit cell: 

     Cartesian axes

     site n.  atom      mass           positions (alat units)
        1     Na  22.9900   tau(    1) = (    0.00000    0.00000    0.00000  )

     Computing dynamical matrix for 
                    q = (  -0.1250000   0.3750000  -0.1250000 )

      2 Sym.Ops. (no q -> -q+G )


     G cutoff =  637.4810  (   4218 G-vectors)     FFT grid: ( 36, 36, 36)
     G cutoff =  318.7405  (   1491 G-vectors)  smooth grid: ( 25, 25, 25)

     number of k points= 11368  Marzari-Vanderbilt smearing, width (Ry)=  0.0200

     PseudoPot. # 1 for Na read from file:
     /home/s1333534/quantum_espresso/qe-6.1/pseudo/Na_pbe_v1.uspp.F.UPF
     MD5 check sum: 76a99c7e9422403d3e93cbc85ab7bccb
     Pseudo is Ultrasoft, Zval =  9.0
     Generated by new atomic code, or converted to UPF format
     Using radial grid of  819 points,  5 beta functions with: 
                l(1) =   0
                l(2) =   0
                l(3) =   1
                l(4) =   1
                l(5) =   2
     Q(r) pseudized with  8 coefficients,  rinner =    1.250   1.250   1.250
                                                       1.250   1.250

     Mode symmetry, C_s (m)     point group:


     Atomic displacements:
     There are   3 irreducible representations

     Representation     1      1 modes -A'  To be done

     Representation     2      1 modes -A'  To be done

     Representation     3      1 modes -A''  To be done



     Alpha used in Ewald sum =   2.8000
     PHONON       : 25m 0.90s CPU    27m29.52s WALL



     Representation #  1 mode #   1

     Self-consistent Calculation

      iter #   1 total cpu time :  1685.5 secs   av.it.:   5.8
      thresh= 1.000E-02 alpha_mix =  0.700 |ddv_scf|^2 =  7.447E-03

      iter #   2 total cpu time :  1717.9 secs   av.it.:   6.3
      thresh= 8.630E-03 alpha_mix =  0.700 |ddv_scf|^2 =  2.157E-01

      iter #   3 total cpu time :  1750.7 secs   av.it.:   6.1
      thresh= 1.000E-02 alpha_mix =  0.700 |ddv_scf|^2 =  4.647E-06

      iter #   4 total cpu time :  1787.7 secs   av.it.:   7.4
      thresh= 2.156E-04 alpha_mix =  0.700 |ddv_scf|^2 =  3.720E-08

      iter #   5 total cpu time :  1826.0 secs   av.it.:   7.7
      thresh= 1.929E-05 alpha_mix =  0.700 |ddv_scf|^2 =  2.738E-09

      iter #   6 total cpu time :  1863.6 secs   av.it.:   7.7
      thresh= 5.232E-06 alpha_mix =  0.700 |ddv_scf|^2 =  3.089E-10

      iter #   7 total cpu time :  1900.0 secs   av.it.:   7.2
      thresh= 1.758E-06 alpha_mix =  0.700 |ddv_scf|^2 =  3.607E-09

      iter #   8 total cpu time :  1930.4 secs   av.it.:   5.6
      thresh= 6.005E-06 alpha_mix =  0.700 |ddv_scf|^2 =  9.994E-13

     End of self-consistent calculation

     Convergence has been achieved 


     Representation #  2 mode #   2

     Self-consistent Calculation

      iter #   1 total cpu time :  1966.9 secs   av.it.:   5.7
      thresh= 1.000E-02 alpha_mix =  0.700 |ddv_scf|^2 =  1.149E-03

      iter #   2 total cpu time :  2001.9 secs   av.it.:   6.8
      thresh= 3.389E-03 alpha_mix =  0.700 |ddv_scf|^2 =  3.266E-02

      iter #   3 total cpu time :  2029.8 secs   av.it.:   5.1
      thresh= 1.000E-02 alpha_mix =  0.700 |ddv_scf|^2 =  5.232E-07

      iter #   4 total cpu time :  2068.7 secs   av.it.:   7.8
      thresh= 7.233E-05 alpha_mix =  0.700 |ddv_scf|^2 =  1.185E-08

      iter #   5 total cpu time :  2106.5 secs   av.it.:   7.8
      thresh= 1.089E-05 alpha_mix =  0.700 |ddv_scf|^2 =  7.184E-10

      iter #   6 total cpu time :  2145.1 secs   av.it.:   7.7
      thresh= 2.680E-06 alpha_mix =  0.700 |ddv_scf|^2 =  3.532E-10

      iter #   7 total cpu time :  2179.2 secs   av.it.:   6.7
      thresh= 1.879E-06 alpha_mix =  0.700 |ddv_scf|^2 =  9.427E-10

      iter #   8 total cpu time :  2212.5 secs   av.it.:   6.3
      thresh= 3.070E-06 alpha_mix =  0.700 |ddv_scf|^2 =  5.279E-11

      iter #   9 total cpu time :  2244.6 secs   av.it.:   6.0
      thresh= 7.266E-07 alpha_mix =  0.700 |ddv_scf|^2 =  1.191E-11

      iter #  10 total cpu time :  2280.7 secs   av.it.:   7.1
      thresh= 3.451E-07 alpha_mix =  0.700 |ddv_scf|^2 =  5.765E-14

     End of self-consistent calculation

     Convergence has been achieved 


     Representation #  3 mode #   3

     Self-consistent Calculation

      iter #   1 total cpu time :  2317.9 secs   av.it.:   5.5
      thresh= 1.000E-02 alpha_mix =  0.700 |ddv_scf|^2 =  2.455E-05

      iter #   2 total cpu time :  2355.5 secs   av.it.:   7.5
      thresh= 4.955E-04 alpha_mix =  0.700 |ddv_scf|^2 =  4.112E-07

      iter #   3 total cpu time :  2393.8 secs   av.it.:   7.7
      thresh= 6.412E-05 alpha_mix =  0.700 |ddv_scf|^2 =  1.015E-08

      iter #   4 total cpu time :  2430.4 secs   av.it.:   7.4
      thresh= 1.007E-05 alpha_mix =  0.700 |ddv_scf|^2 =  3.503E-11

      iter #   5 total cpu time :  2468.0 secs   av.it.:   7.6
      thresh= 5.919E-07 alpha_mix =  0.700 |ddv_scf|^2 =  5.448E-14

     End of self-consistent calculation

     Convergence has been achieved 

     Number of q in the star =   24
     List of q in the star:
          1  -0.125000000   0.375000000  -0.125000000
          2  -0.125000000   0.375000000   0.125000000
          3   0.125000000   0.375000000  -0.125000000
          4   0.125000000   0.375000000   0.125000000
          5   0.125000000  -0.375000000   0.125000000
          6   0.375000000  -0.125000000   0.125000000
          7   0.125000000  -0.125000000   0.375000000
          8  -0.125000000  -0.375000000  -0.125000000
          9   0.125000000  -0.375000000  -0.125000000
         10  -0.125000000  -0.375000000   0.125000000
         11   0.125000000  -0.125000000  -0.375000000
         12   0.375000000  -0.125000000  -0.125000000
         13  -0.375000000  -0.125000000   0.125000000
         14   0.375000000   0.125000000   0.125000000
         15  -0.125000000  -0.125000000   0.375000000
         16   0.125000000   0.125000000   0.375000000
         17  -0.375000000   0.125000000  -0.125000000
         18  -0.125000000   0.125000000  -0.375000000
         19  -0.375000000  -0.125000000  -0.125000000
         20   0.125000000   0.125000000  -0.375000000
         21   0.375000000   0.125000000  -0.125000000
         22  -0.125000000  -0.125000000  -0.375000000
         23  -0.375000000   0.125000000   0.125000000
         24  -0.125000000   0.125000000   0.375000000

     Diagonalizing the dynamical matrix

     q = (   -0.125000000   0.375000000  -0.125000000 ) 

 **************************************************************************
     freq (    1) =       2.000502 [THz] =      66.729562 [cm-1]
     freq (    2) =       2.152797 [THz] =      71.809566 [cm-1]
     freq (    3) =       4.307234 [THz] =     143.673876 [cm-1]
 **************************************************************************

     Mode symmetry, C_s (m)     point group:

     freq (  1 -  1) =         66.7  [cm-1]   --> A''                
     freq (  2 -  2) =         71.8  [cm-1]   --> A'                 
     freq (  3 -  3) =        143.7  [cm-1]   --> A'                 

     Calculation of q =   -0.2500000   0.5000000  -0.2500000

   Info: using nr1, nr2, nr3 values from input

   Info: using nr1, nr2, nr3 values from input

     Parallelization info
     --------------------
     sticks:   dense  smooth     PW     G-vecs:    dense   smooth      PW
     Min         214     108     40                 4215     1489     351
     Max         215     109     41                 4218     1492     354
     Sum         859     433    163                16865     5961    1411



     bravais-lattice index     =            2
     lattice parameter (alat)  =       8.8683  a.u.
     unit-cell volume          =     174.3635 (a.u.)^3
     number of atoms/cell      =            1
     number of atomic types    =            1
     number of electrons       =         9.00
     number of Kohn-Sham states=            9
     kinetic-energy cutoff     =      40.0000  Ry
     charge density cutoff     =     320.0000  Ry
     Exchange-correlation      = SLA  PW   PBE  PBE ( 1  4  3  4 0 0)

     celldm(1)=   8.868262  celldm(2)=   0.000000  celldm(3)=   0.000000
     celldm(4)=   0.000000  celldm(5)=   0.000000  celldm(6)=   0.000000

     crystal axes: (cart. coord. in units of alat)
               a(1) = (  -0.500000   0.000000   0.500000 )  
               a(2) = (   0.000000   0.500000   0.500000 )  
               a(3) = (  -0.500000   0.500000   0.000000 )  

     reciprocal axes: (cart. coord. in units 2 pi/alat)
               b(1) = ( -1.000000 -1.000000  1.000000 )  
               b(2) = (  1.000000  1.000000  1.000000 )  
               b(3) = ( -1.000000  1.000000 -1.000000 )  


     PseudoPot. # 1 for Na read from file:
     /home/s1333534/quantum_espresso/qe-6.1/pseudo/Na_pbe_v1.uspp.F.UPF
     MD5 check sum: 76a99c7e9422403d3e93cbc85ab7bccb
     Pseudo is Ultrasoft, Zval =  9.0
     Generated by new atomic code, or converted to UPF format
     Using radial grid of  819 points,  5 beta functions with: 
                l(1) =   0
                l(2) =   0
                l(3) =   1
                l(4) =   1
                l(5) =   2
     Q(r) pseudized with  8 coefficients,  rinner =    1.250   1.250   1.250
                                                       1.250   1.250

     atomic species   valence    mass     pseudopotential
        Na             9.00    22.99000     Na( 1.00)

     48 Sym. Ops., with inversion, found



   Cartesian axes

     site n.     atom                  positions (alat units)
         1           Na  tau(   1) = (   0.0000000   0.0000000   0.0000000  )

     number of k points= 11368  Marzari-Vanderbilt smearing, width (Ry)=  0.0200

     Number of k-points >= 100: set verbosity='high' to print them.

     Dense  grid:    16865 G-vectors     FFT dimensions: (  36,  36,  36)

     Smooth grid:     5961 G-vectors     FFT dimensions: (  25,  25,  25)

     Estimated max dynamical RAM per process >       1.59MB

     Estimated total allocated dynamical RAM >       6.38MB

     The potential is recalculated from file :
     ./_ph0/na.fcc.save/charge-density.dat

     Starting wfc are    5 atomic +    4 random wfc

     Band Structure Calculation
     Davidson diagonalization with overlap

     ethr =  1.11E-10,  avg # of iterations = 17.4

     total cpu time spent up to now is      752.7 secs

     End of band structure calculation

     Number of k-points >= 100: set verbosity='high' to print the bands.

     the Fermi energy is     3.4374 ev

     Writing output data file na.fcc.save

                                                                                

     bravais-lattice index     =            2
     lattice parameter (alat)  =       8.8683  a.u.
     unit-cell volume          =     174.3635 (a.u.)^3
     number of atoms/cell      =            1
     number of atomic types    =            1
     kinetic-energy cut-off    =      40.0000  Ry
     charge density cut-off    =     320.0000  Ry
     convergence threshold     =      1.0E-12
     beta                      =       0.7000
     number of iterations used =            4
     Exchange-correlation      = SLA  PW   PBE  PBE ( 1  4  3  4 0 0)


     celldm(1)=    8.86826  celldm(2)=    0.00000  celldm(3)=    0.00000
     celldm(4)=    0.00000  celldm(5)=    0.00000  celldm(6)=    0.00000

     crystal axes: (cart. coord. in units of alat)
               a(1) = ( -0.5000  0.0000  0.5000 )  
               a(2) = (  0.0000  0.5000  0.5000 )  
               a(3) = ( -0.5000  0.5000  0.0000 )  

     reciprocal axes: (cart. coord. in units 2 pi/alat)
               b(1) = ( -1.0000 -1.0000  1.0000 )  
               b(2) = (  1.0000  1.0000  1.0000 )  
               b(3) = ( -1.0000  1.0000 -1.0000 )  


     Atoms inside the unit cell: 

     Cartesian axes

     site n.  atom      mass           positions (alat units)
        1     Na  22.9900   tau(    1) = (    0.00000    0.00000    0.00000  )

     Computing dynamical matrix for 
                    q = (  -0.2500000   0.5000000  -0.2500000 )

      2 Sym.Ops. (no q -> -q+G )


     G cutoff =  637.4810  (   4218 G-vectors)     FFT grid: ( 36, 36, 36)
     G cutoff =  318.7405  (   1491 G-vectors)  smooth grid: ( 25, 25, 25)

     number of k points= 11368  Marzari-Vanderbilt smearing, width (Ry)=  0.0200

     PseudoPot. # 1 for Na read from file:
     /home/s1333534/quantum_espresso/qe-6.1/pseudo/Na_pbe_v1.uspp.F.UPF
     MD5 check sum: 76a99c7e9422403d3e93cbc85ab7bccb
     Pseudo is Ultrasoft, Zval =  9.0
     Generated by new atomic code, or converted to UPF format
     Using radial grid of  819 points,  5 beta functions with: 
                l(1) =   0
                l(2) =   0
                l(3) =   1
                l(4) =   1
                l(5) =   2
     Q(r) pseudized with  8 coefficients,  rinner =    1.250   1.250   1.250
                                                       1.250   1.250

     Mode symmetry, C_s (m)     point group:


     Atomic displacements:
     There are   3 irreducible representations

     Representation     1      1 modes -A'  To be done

     Representation     2      1 modes -A'  To be done

     Representation     3      1 modes -A''  To be done



     Alpha used in Ewald sum =   2.8000
     PHONON       : 40m44.42s CPU    45m 2.53s WALL



     Representation #  1 mode #   1

     Self-consistent Calculation

      iter #   1 total cpu time :  2739.1 secs   av.it.:   5.8
      thresh= 1.000E-02 alpha_mix =  0.700 |ddv_scf|^2 =  7.240E-04

      iter #   2 total cpu time :  2774.4 secs   av.it.:   6.8
      thresh= 2.691E-03 alpha_mix =  0.700 |ddv_scf|^2 =  3.060E-03

      iter #   3 total cpu time :  2805.1 secs   av.it.:   5.9
      thresh= 5.532E-03 alpha_mix =  0.700 |ddv_scf|^2 =  7.079E-07

      iter #   4 total cpu time :  2843.6 secs   av.it.:   7.8
      thresh= 8.414E-05 alpha_mix =  0.700 |ddv_scf|^2 =  9.188E-09

      iter #   5 total cpu time :  2884.4 secs   av.it.:   8.3
      thresh= 9.586E-06 alpha_mix =  0.700 |ddv_scf|^2 =  1.176E-09

      iter #   6 total cpu time :  2922.7 secs   av.it.:   7.8
      thresh= 3.429E-06 alpha_mix =  0.700 |ddv_scf|^2 =  5.088E-11

      iter #   7 total cpu time :  2960.8 secs   av.it.:   7.8
      thresh= 7.133E-07 alpha_mix =  0.700 |ddv_scf|^2 =  1.336E-11

      iter #   8 total cpu time :  2996.4 secs   av.it.:   7.0
      thresh= 3.655E-07 alpha_mix =  0.700 |ddv_scf|^2 =  1.623E-11

      iter #   9 total cpu time :  3029.3 secs   av.it.:   6.4
      thresh= 4.029E-07 alpha_mix =  0.700 |ddv_scf|^2 =  6.532E-13

     End of self-consistent calculation

     Convergence has been achieved 


     Representation #  2 mode #   2

     Self-consistent Calculation

      iter #   1 total cpu time :  3067.2 secs   av.it.:   5.8
      thresh= 1.000E-02 alpha_mix =  0.700 |ddv_scf|^2 =  2.098E-04

      iter #   2 total cpu time :  3103.9 secs   av.it.:   7.3
      thresh= 1.448E-03 alpha_mix =  0.700 |ddv_scf|^2 =  7.855E-04

      iter #   3 total cpu time :  3134.8 secs   av.it.:   5.9
      thresh= 2.803E-03 alpha_mix =  0.700 |ddv_scf|^2 =  5.356E-07

      iter #   4 total cpu time :  3173.7 secs   av.it.:   7.8
      thresh= 7.318E-05 alpha_mix =  0.700 |ddv_scf|^2 =  1.350E-08

      iter #   5 total cpu time :  3212.7 secs   av.it.:   8.1
      thresh= 1.162E-05 alpha_mix =  0.700 |ddv_scf|^2 =  6.465E-10

      iter #   6 total cpu time :  3252.3 secs   av.it.:   8.0
      thresh= 2.543E-06 alpha_mix =  0.700 |ddv_scf|^2 =  5.977E-11

      iter #   7 total cpu time :  3289.9 secs   av.it.:   7.7
      thresh= 7.731E-07 alpha_mix =  0.700 |ddv_scf|^2 =  6.767E-13

     End of self-consistent calculation

     Convergence has been achieved 


     Representation #  3 mode #   3

     Self-consistent Calculation

      iter #   1 total cpu time :  3326.2 secs   av.it.:   5.5
      thresh= 1.000E-02 alpha_mix =  0.700 |ddv_scf|^2 =  2.520E-05

      iter #   2 total cpu time :  3363.0 secs   av.it.:   7.5
      thresh= 5.020E-04 alpha_mix =  0.700 |ddv_scf|^2 =  4.056E-07

      iter #   3 total cpu time :  3401.6 secs   av.it.:   7.8
      thresh= 6.369E-05 alpha_mix =  0.700 |ddv_scf|^2 =  1.175E-08

      iter #   4 total cpu time :  3438.8 secs   av.it.:   7.4
      thresh= 1.084E-05 alpha_mix =  0.700 |ddv_scf|^2 =  4.167E-11

      iter #   5 total cpu time :  3476.3 secs   av.it.:   7.6
      thresh= 6.455E-07 alpha_mix =  0.700 |ddv_scf|^2 =  5.545E-14

     End of self-consistent calculation

     Convergence has been achieved 

     Number of q in the star =   24
     List of q in the star:
          1  -0.250000000   0.500000000  -0.250000000
          2  -0.250000000   0.500000000   0.250000000
          3   0.250000000   0.500000000  -0.250000000
          4   0.250000000   0.500000000   0.250000000
          5   0.250000000  -0.500000000   0.250000000
          6   0.500000000  -0.250000000   0.250000000
          7   0.250000000  -0.250000000   0.500000000
          8  -0.250000000  -0.500000000  -0.250000000
          9   0.250000000  -0.500000000  -0.250000000
         10  -0.250000000  -0.500000000   0.250000000
         11   0.250000000  -0.250000000  -0.500000000
         12   0.500000000  -0.250000000  -0.250000000
         13  -0.500000000  -0.250000000   0.250000000
         14   0.500000000   0.250000000   0.250000000
         15  -0.250000000  -0.250000000   0.500000000
         16   0.250000000   0.250000000   0.500000000
         17  -0.500000000   0.250000000  -0.250000000
         18  -0.250000000   0.250000000  -0.500000000
         19  -0.500000000  -0.250000000  -0.250000000
         20   0.250000000   0.250000000  -0.500000000
         21   0.500000000   0.250000000  -0.250000000
         22  -0.250000000  -0.250000000  -0.500000000
         23  -0.500000000   0.250000000   0.250000000
         24  -0.250000000   0.250000000   0.500000000

     Diagonalizing the dynamical matrix

     q = (   -0.250000000   0.500000000  -0.250000000 ) 

 **************************************************************************
     freq (    1) =       2.342585 [THz] =      78.140238 [cm-1]
     freq (    2) =       2.588397 [THz] =      86.339625 [cm-1]
     freq (    3) =       5.613813 [THz] =     187.256656 [cm-1]
 **************************************************************************

     Mode symmetry, C_s (m)     point group:

     freq (  1 -  1) =         78.1  [cm-1]   --> A''                
     freq (  2 -  2) =         86.3  [cm-1]   --> A'                 
     freq (  3 -  3) =        187.3  [cm-1]   --> A'                 

     Calculation of q =    0.6250000  -0.3750000   0.6250000

   Info: using nr1, nr2, nr3 values from input

   Info: using nr1, nr2, nr3 values from input

     Parallelization info
     --------------------
     sticks:   dense  smooth     PW     G-vecs:    dense   smooth      PW
     Min         214     108     42                 4215     1489     367
     Max         215     109     43                 4218     1492     368
     Sum         859     433    169                16865     5961    1471



     bravais-lattice index     =            2
     lattice parameter (alat)  =       8.8683  a.u.
     unit-cell volume          =     174.3635 (a.u.)^3
     number of atoms/cell      =            1
     number of atomic types    =            1
     number of electrons       =         9.00
     number of Kohn-Sham states=            9
     kinetic-energy cutoff     =      40.0000  Ry
     charge density cutoff     =     320.0000  Ry
     Exchange-correlation      = SLA  PW   PBE  PBE ( 1  4  3  4 0 0)

     celldm(1)=   8.868262  celldm(2)=   0.000000  celldm(3)=   0.000000
     celldm(4)=   0.000000  celldm(5)=   0.000000  celldm(6)=   0.000000

     crystal axes: (cart. coord. in units of alat)
               a(1) = (  -0.500000   0.000000   0.500000 )  
               a(2) = (   0.000000   0.500000   0.500000 )  
               a(3) = (  -0.500000   0.500000   0.000000 )  

[...]

     PseudoPot. # 1 for Na read from file:
     /home/s1333534/quantum_espresso/qe-6.1/pseudo/Na_pbe_v1.uspp.F.UPF
     MD5 check sum: 76a99c7e9422403d3e93cbc85ab7bccb
     Pseudo is Ultrasoft, Zval =  9.0
     Generated by new atomic code, or converted to UPF format
     Using radial grid of  819 points,  5 beta functions with: 
                l(1) =   0
                l(2) =   0
                l(3) =   1
                l(4) =   1
                l(5) =   2
     Q(r) pseudized with  8 coefficients,  rinner =    1.250   1.250   1.250
                                                       1.250   1.250

     Mode symmetry, C_2v (mm2)  point group:


     Atomic displacements:
     There are   3 irreducible representations

     Representation     1      1 modes -A_1  D_1  S_1  To be done

     Representation     2      1 modes -B_1  D_3  S_3  To be done

     Representation     3      1 modes -B_2  D_4  S_4  To be done



     Alpha used in Ewald sum =   2.8000
     PHONON       :     5h 8m CPU        5h42m WALL



     Representation #  1 mode #   1

     Self-consistent Calculation

      iter #   1 total cpu time : 20579.6 secs   av.it.:   5.6
      thresh= 1.000E-02 alpha_mix =  0.700 |ddv_scf|^2 =  3.672E-05

      iter #   2 total cpu time : 20597.7 secs   av.it.:   7.6
      thresh= 6.059E-04 alpha_mix =  0.700 |ddv_scf|^2 =  1.042E-06

      iter #   3 total cpu time : 20616.4 secs   av.it.:   7.6
      thresh= 1.021E-04 alpha_mix =  0.700 |ddv_scf|^2 =  4.364E-08

      iter #   4 total cpu time : 20634.8 secs   av.it.:   7.8
      thresh= 2.089E-05 alpha_mix =  0.700 |ddv_scf|^2 =  2.436E-09

      iter #   5 total cpu time : 20653.3 secs   av.it.:   7.8
      thresh= 4.936E-06 alpha_mix =  0.700 |ddv_scf|^2 =  1.075E-10

      iter #   6 total cpu time : 20672.3 secs   av.it.:   7.9
      thresh= 1.037E-06 alpha_mix =  0.700 |ddv_scf|^2 =  8.254E-12

      iter #   7 total cpu time : 20690.6 secs   av.it.:   7.7
      thresh= 2.873E-07 alpha_mix =  0.700 |ddv_scf|^2 =  2.373E-13

     End of self-consistent calculation

     Convergence has been achieved 


     Representation #  2 mode #   2

     Self-consistent Calculation

      iter #   1 total cpu time : 20708.1 secs   av.it.:   5.6
      thresh= 1.000E-02 alpha_mix =  0.700 |ddv_scf|^2 =  3.788E-05

      iter #   2 total cpu time : 20726.1 secs   av.it.:   7.5
      thresh= 6.155E-04 alpha_mix =  0.700 |ddv_scf|^2 =  4.749E-07

      iter #   3 total cpu time : 20744.6 secs   av.it.:   7.7
      thresh= 6.891E-05 alpha_mix =  0.700 |ddv_scf|^2 =  3.146E-08

      iter #   4 total cpu time : 20762.9 secs   av.it.:   7.7
      thresh= 1.774E-05 alpha_mix =  0.700 |ddv_scf|^2 =  3.673E-10

      iter #   5 total cpu time : 20780.3 secs   av.it.:   7.2
      thresh= 1.916E-06 alpha_mix =  0.700 |ddv_scf|^2 =  3.670E-13

     End of self-consistent calculation

     Convergence has been achieved 


     Representation #  3 mode #   3

     Self-consistent Calculation

      iter #   1 total cpu time : 20797.5 secs   av.it.:   5.7
      thresh= 1.000E-02 alpha_mix =  0.700 |ddv_scf|^2 =  9.862E-05

      iter #   2 total cpu time : 20815.6 secs   av.it.:   7.2
      thresh= 9.931E-04 alpha_mix =  0.700 |ddv_scf|^2 =  1.142E-05

      iter #   3 total cpu time : 20832.9 secs   av.it.:   7.2
      thresh= 3.380E-04 alpha_mix =  0.700 |ddv_scf|^2 =  8.593E-08

      iter #   4 total cpu time : 20851.7 secs   av.it.:   7.9
      thresh= 2.931E-05 alpha_mix =  0.700 |ddv_scf|^2 =  3.115E-10

      iter #   5 total cpu time : 20868.7 secs   av.it.:   6.9
      thresh= 1.765E-06 alpha_mix =  0.700 |ddv_scf|^2 =  5.623E-13

     End of self-consistent calculation

     Convergence has been achieved 

     Number of q in the star =   12
     List of q in the star:
          1  -0.250000000  -1.000000000   0.000000000
          2   0.000000000  -1.000000000   0.250000000
          3   0.000000000  -1.000000000  -0.250000000
          4   0.250000000  -1.000000000   0.000000000
          5  -1.000000000   0.000000000  -0.250000000
          6   1.000000000   0.000000000   0.250000000
          7  -1.000000000  -0.250000000   0.000000000
          8   0.000000000  -0.250000000  -1.000000000
          9   0.000000000   0.250000000  -1.000000000
         10   1.000000000   0.250000000   0.000000000
         11  -0.250000000   0.000000000   1.000000000
         12   0.250000000   0.000000000   1.000000000

     Diagonalizing the dynamical matrix

     q = (   -0.250000000  -1.000000000   0.000000000 ) 

 **************************************************************************
     freq (    1) =       3.948258 [THz] =     131.699694 [cm-1]
     freq (    2) =       4.533334 [THz] =     151.215746 [cm-1]
     freq (    3) =       6.300779 [THz] =     210.171363 [cm-1]
 **************************************************************************

     Mode symmetry, C_2v (mm2)  point group:

     freq (  1 -  1) =        131.7  [cm-1]   --> A_1  D_1  S_1      
     freq (  2 -  2) =        151.2  [cm-1]   --> B_1  D_3  S_3      
     freq (  3 -  3) =        210.2  [cm-1]   --> B_2  D_4  S_4      

     Calculation of q =   -0.5000000  -1.0000000   0.0000000

   Info: using nr1, nr2, nr3 values from input

   Info: using nr1, nr2, nr3 values from input

     Parallelization info
     --------------------
     sticks:   dense  smooth     PW     G-vecs:    dense   smooth      PW
     Min         214     108     42                 4215     1489     367
     Max         215     109     43                 4218     1492     368
     Sum         859     433    169                16865     5961    1471



     bravais-lattice index     =            2
     lattice parameter (alat)  =       8.8683  a.u.
     unit-cell volume          =     174.3635 (a.u.)^3
     number of atoms/cell      =            1
     number of atomic types    =            1
     number of electrons       =         9.00
     number of Kohn-Sham states=            9
     kinetic-energy cutoff     =      40.0000  Ry
     charge density cutoff     =     320.0000  Ry
     Exchange-correlation      = SLA  PW   PBE  PBE ( 1  4  3  4 0 0)

     celldm(1)=   8.868262  celldm(2)=   0.000000  celldm(3)=   0.000000
     celldm(4)=   0.000000  celldm(5)=   0.000000  celldm(6)=   0.000000

     crystal axes: (cart. coord. in units of alat)
               a(1) = (  -0.500000   0.000000   0.500000 )  
               a(2) = (   0.000000   0.500000   0.500000 )  
               a(3) = (  -0.500000   0.500000   0.000000 )  

     reciprocal axes: (cart. coord. in units 2 pi/alat)
               b(1) = ( -1.000000 -1.000000  1.000000 )  
               b(2) = (  1.000000  1.000000  1.000000 )  
               b(3) = ( -1.000000  1.000000 -1.000000 )  


     PseudoPot. # 1 for Na read from file:
     /home/s1333534/quantum_espresso/qe-6.1/pseudo/Na_pbe_v1.uspp.F.UPF
     MD5 check sum: 76a99c7e9422403d3e93cbc85ab7bccb
     Pseudo is Ultrasoft, Zval =  9.0
     Generated by new atomic code, or converted to UPF format
     Using radial grid of  819 points,  5 beta functions with: 
                l(1) =   0
                l(2) =   0
                l(3) =   1
                l(4) =   1
                l(5) =   2
     Q(r) pseudized with  8 coefficients,  rinner =    1.250   1.250   1.250
                                                       1.250   1.250

     atomic species   valence    mass     pseudopotential
        Na             9.00    22.99000     Na( 1.00)

     48 Sym. Ops., with inversion, found



   Cartesian axes

     site n.     atom                  positions (alat units)
         1           Na  tau(   1) = (   0.0000000   0.0000000   0.0000000  )

     number of k points=  2744  Marzari-Vanderbilt smearing, width (Ry)=  0.0200

     Number of k-points >= 100: set verbosity='high' to print them.

     Dense  grid:    16865 G-vectors     FFT dimensions: (  36,  36,  36)

     Smooth grid:     5961 G-vectors     FFT dimensions: (  25,  25,  25)

     Estimated max dynamical RAM per process >       1.59MB

     Estimated total allocated dynamical RAM >       6.38MB

     The potential is recalculated from file :
     ./_ph0/na.fcc.save/charge-density.dat

     Starting wfc are    5 atomic +    4 random wfc

     Band Structure Calculation
     Davidson diagonalization with overlap

     ethr =  1.11E-10,  avg # of iterations = 17.4

     total cpu time spent up to now is     4589.0 secs

     End of band structure calculation

     Number of k-points >= 100: set verbosity='high' to print the bands.

     the Fermi energy is     3.4374 ev

     Writing output data file na.fcc.save

                                                                                

     bravais-lattice index     =            2
     lattice parameter (alat)  =       8.8683  a.u.
     unit-cell volume          =     174.3635 (a.u.)^3
     number of atoms/cell      =            1
     number of atomic types    =            1
     kinetic-energy cut-off    =      40.0000  Ry
     charge density cut-off    =     320.0000  Ry
     convergence threshold     =      1.0E-12
     beta                      =       0.7000
     number of iterations used =            4
     Exchange-correlation      = SLA  PW   PBE  PBE ( 1  4  3  4 0 0)


     celldm(1)=    8.86826  celldm(2)=    0.00000  celldm(3)=    0.00000
     celldm(4)=    0.00000  celldm(5)=    0.00000  celldm(6)=    0.00000

     crystal axes: (cart. coord. in units of alat)
               a(1) = ( -0.5000  0.0000  0.5000 )  
               a(2) = (  0.0000  0.5000  0.5000 )  
               a(3) = ( -0.5000  0.5000  0.0000 )  

     reciprocal axes: (cart. coord. in units 2 pi/alat)
               b(1) = ( -1.0000 -1.0000  1.0000 )  
               b(2) = (  1.0000  1.0000  1.0000 )  
               b(3) = ( -1.0000  1.0000 -1.0000 )  


     Atoms inside the unit cell: 

     Cartesian axes

     site n.  atom      mass           positions (alat units)
        1     Na  22.9900   tau(    1) = (    0.00000    0.00000    0.00000  )

     Computing dynamical matrix for 
                    q = (  -0.5000000  -1.0000000   0.0000000 )

      8 Sym.Ops. (no q -> -q+G )


     G cutoff =  637.4810  (   4218 G-vectors)     FFT grid: ( 36, 36, 36)
     G cutoff =  318.7405  (   1491 G-vectors)  smooth grid: ( 25, 25, 25)

     number of k points=  2744  Marzari-Vanderbilt smearing, width (Ry)=  0.0200

     PseudoPot. # 1 for Na read from file:
     /home/s1333534/quantum_espresso/qe-6.1/pseudo/Na_pbe_v1.uspp.F.UPF
     MD5 check sum: 76a99c7e9422403d3e93cbc85ab7bccb
     Pseudo is Ultrasoft, Zval =  9.0
     Generated by new atomic code, or converted to UPF format
     Using radial grid of  819 points,  5 beta functions with: 
                l(1) =   0
                l(2) =   0
                l(3) =   1
                l(4) =   1
                l(5) =   2
     Q(r) pseudized with  8 coefficients,  rinner =    1.250   1.250   1.250
                                                       1.250   1.250

     Mode symmetry, D_2d (-42m) point group:


     Atomic displacements:
     There are   2 irreducible representations

     Representation     1      1 modes -B_2  X_3  W_2  To be done

     Representation     2      2 modes -E    X_5  W_3  To be done



     Alpha used in Ewald sum =   2.8000
     PHONON       :     5h14m CPU        5h48m WALL



     Representation #  1 mode #   1

     Self-consistent Calculation

      iter #   1 total cpu time : 20934.6 secs   av.it.:   5.6
      thresh= 1.000E-02 alpha_mix =  0.700 |ddv_scf|^2 =  4.215E-05

      iter #   2 total cpu time : 20943.7 secs   av.it.:   7.6
      thresh= 6.492E-04 alpha_mix =  0.700 |ddv_scf|^2 =  1.385E-06

      iter #   3 total cpu time : 20952.7 secs   av.it.:   7.6
      thresh= 1.177E-04 alpha_mix =  0.700 |ddv_scf|^2 =  3.220E-08

      iter #   4 total cpu time : 20962.3 secs   av.it.:   7.9
      thresh= 1.794E-05 alpha_mix =  0.700 |ddv_scf|^2 =  6.088E-10

      iter #   5 total cpu time : 20971.0 secs   av.it.:   7.4
      thresh= 2.467E-06 alpha_mix =  0.700 |ddv_scf|^2 =  9.189E-13

     End of self-consistent calculation

     Convergence has been achieved 


     Representation #  2 modes #   2  3

     Self-consistent Calculation

      iter #   1 total cpu time : 20988.0 secs   av.it.:   5.7
      thresh= 1.000E-02 alpha_mix =  0.700 |ddv_scf|^2 =  1.532E-05

      iter #   2 total cpu time : 21007.8 secs   av.it.:   8.1
      thresh= 3.914E-04 alpha_mix =  0.700 |ddv_scf|^2 =  6.510E-07

      iter #   3 total cpu time : 21026.1 secs   av.it.:   7.8
      thresh= 8.069E-05 alpha_mix =  0.700 |ddv_scf|^2 =  1.408E-08

      iter #   4 total cpu time : 21045.5 secs   av.it.:   8.5
      thresh= 1.187E-05 alpha_mix =  0.700 |ddv_scf|^2 =  8.381E-11

      iter #   5 total cpu time : 21063.7 secs   av.it.:   7.5
      thresh= 9.155E-07 alpha_mix =  0.700 |ddv_scf|^2 =  6.067E-14

     End of self-consistent calculation

     Convergence has been achieved 

     Number of q in the star =    6
     List of q in the star:
          1  -0.500000000  -1.000000000   0.000000000
          2   0.000000000   1.000000000   0.500000000
          3   0.500000000  -1.000000000   0.000000000
          4   0.000000000   1.000000000  -0.500000000
          5  -1.000000000  -0.500000000   0.000000000
          6   0.000000000  -0.500000000  -1.000000000

     Diagonalizing the dynamical matrix

     q = (   -0.500000000  -1.000000000   0.000000000 ) 

 **************************************************************************
     freq (    1) =       4.286874 [THz] =     142.994711 [cm-1]
     freq (    2) =       5.382095 [THz] =     179.527355 [cm-1]
     freq (    3) =       5.382095 [THz] =     179.527355 [cm-1]
 **************************************************************************

     Mode symmetry, D_2d (-42m) point group:

     freq (  1 -  1) =        143.0  [cm-1]   --> B_2  X_3  W_2      
     freq (  2 -  3) =        179.5  [cm-1]   --> E    X_5  W_3      

     init_run     :      7.59s CPU      7.65s WALL (      28 calls)
     electrons    :   4097.19s CPU   4415.53s WALL (      28 calls)

     Called by init_run:
     wfcinit      :      0.00s CPU      0.00s WALL (      28 calls)
     potinit      :      0.29s CPU      0.30s WALL (      28 calls)

     Called by electrons:
     c_bands      :   4096.05s CPU   4414.38s WALL (      28 calls)
     v_of_rho     :      0.23s CPU      0.23s WALL (      29 calls)
     newd         :      0.30s CPU      0.31s WALL (      29 calls)

     Called by c_bands:
     init_us_2    :    293.15s CPU    271.19s WALL ( 3436664 calls)
     cegterg      :   3757.39s CPU   4035.11s WALL (  273676 calls)

     Called by sum_band:

     Called by *egterg:
     h_psi        :  12333.59s CPU  13572.30s WALL (28296067 calls)
     s_psi        :    424.96s CPU    466.05s WALL (54352352 calls)
     g_psi        :     19.15s CPU     32.54s WALL ( 4166430 calls)
     cdiaghg      :    942.90s CPU    898.04s WALL ( 4406334 calls)

     Called by h_psi:
     h_psi:pot    :  12256.08s CPU  13476.48s WALL (28296067 calls)
     h_psi:calbec :    319.39s CPU    392.55s WALL (28296067 calls)
     vloc_psi     :  11644.42s CPU  12723.99s WALL (28296067 calls)
     add_vuspsi   :    234.12s CPU    277.73s WALL (28296067 calls)

     General routines
     calbec       :    685.98s CPU    762.43s WALL (60278468 calls)
     fft          :      2.17s CPU      2.31s WALL (    9097 calls)
     ffts         :     22.20s CPU     23.80s WALL (  363588 calls)
     fftw         :  12631.08s CPU  13612.60s WALL (******** calls)
     interpolate  :      0.35s CPU      0.43s WALL (    1261 calls)
     davcio       :    102.52s CPU    408.26s WALL (13024941 calls)

     Parallel routines
     fft_scatter  :   3326.90s CPU   3838.37s WALL (******** calls)

     PHONON       :     5h16m CPU        5h51m WALL

     INITIALIZATION: 
     phq_setup    :      0.81s CPU      0.82s WALL (      29 calls)
     phq_init     :    333.57s CPU    354.43s WALL (      29 calls)

     phq_init     :    333.57s CPU    354.43s WALL (      29 calls)
     init_vloc    :      0.08s CPU      0.08s WALL (      29 calls)
     init_us_1    :      3.18s CPU      3.19s WALL (      29 calls)
     newd         :      0.30s CPU      0.31s WALL (      29 calls)
     dvanqq       :      1.17s CPU      1.18s WALL (      29 calls)
     drho         :    268.49s CPU    286.00s WALL (      29 calls)

     DYNAMICAL MATRIX:
     dynmat0      :     42.08s CPU     43.51s WALL (      29 calls)
     phqscf       :  14359.35s CPU  16113.65s WALL (      29 calls)
     dynmatrix    :      0.04s CPU      0.04s WALL (      29 calls)

     phqscf       :  14359.35s CPU  16113.65s WALL (      29 calls)
     solve_linter :  14289.42s CPU  16040.46s WALL (      76 calls)
     drhodv       :     69.85s CPU     73.06s WALL (      76 calls)

     dynmat0      :     42.08s CPU     43.51s WALL (      29 calls)
     dynmat_us    :     42.04s CPU     43.47s WALL (      29 calls)
     d2ionq       :      0.02s CPU      0.02s WALL (      29 calls)

     dynmat_us    :     42.04s CPU     43.47s WALL (      29 calls)
     addusdynmat  :      0.00s CPU      0.00s WALL (      29 calls)

     phqscf       :  14359.35s CPU  16113.65s WALL (      29 calls)
     solve_linter :  14289.42s CPU  16040.46s WALL (      76 calls)

     solve_linter :  14289.42s CPU  16040.46s WALL (      76 calls)
     dvqpsi_us    :    427.41s CPU    463.36s WALL (  360696 calls)
     ortho        :    140.15s CPU    160.83s WALL ( 2440228 calls)
     cgsolve      :  11090.79s CPU  12213.64s WALL ( 2440228 calls)
     incdrhoscf   :   1243.20s CPU   1387.83s WALL ( 2440228 calls)
     addusddens   :      9.29s CPU      9.35s WALL (     579 calls)
     vpsifft      :    964.91s CPU   1088.91s WALL ( 2079532 calls)
     dv_of_drho   :      2.54s CPU      2.62s WALL (     558 calls)
     mix_pot      :      0.36s CPU      1.64s WALL (     503 calls)
     ef_shift     :      0.01s CPU      0.02s WALL (       6 calls)
     localdos     :      0.14s CPU      0.15s WALL (       1 calls)
     psymdvscf    :      4.93s CPU      5.02s WALL (     460 calls)
     newdq        :      8.36s CPU      8.42s WALL (     503 calls)
     adddvscf     :     50.20s CPU     55.13s WALL ( 2079532 calls)
     drhodvus     :      0.02s CPU      0.02s WALL (      76 calls)

     dvqpsi_us    :    427.41s CPU    463.36s WALL (  360696 calls)
     dvqpsi_us_on :     83.27s CPU     79.00s WALL (  360696 calls)

     cgsolve      :  11090.79s CPU  12213.64s WALL ( 2440228 calls)
     ch_psi       :  10820.15s CPU  11940.33s WALL (23616057 calls)

     ch_psi       :  10820.15s CPU  11940.33s WALL (23616057 calls)
     h_psi        :  12333.59s CPU  13572.30s WALL (28296067 calls)
     last         :    795.27s CPU    887.27s WALL (23616057 calls)

     h_psi        :  12333.59s CPU  13572.30s WALL (28296067 calls)
     add_vuspsi   :    234.12s CPU    277.73s WALL (28296067 calls)

     incdrhoscf   :   1243.20s CPU   1387.83s WALL ( 2440228 calls)
     addusdbec    :     63.74s CPU     65.98s WALL ( 2800924 calls)

     drhodvus     :      0.02s CPU      0.02s WALL (      76 calls)

      General routines
     calbec       :    685.98s CPU    762.43s WALL (60278468 calls)
     fft          :      2.17s CPU      2.31s WALL (    9097 calls)
     ffts         :     22.20s CPU     23.80s WALL (  363588 calls)
     fftw         :  12631.08s CPU  13612.60s WALL (******** calls)
     davcio       :    102.52s CPU    408.26s WALL (13024941 calls)
     write_rec    :      0.42s CPU      1.98s WALL (     579 calls)


     PHONON       :     5h16m CPU        5h51m WALL


   This run was terminated on:  18: 9:38  21Dec2017            

=------------------------------------------------------------------------------=
   JOB DONE.
=------------------------------------------------------------------------------=
