
     Program PHONON v.5.2.0 starts on 19Dec2016 at 11:54:57 

     This program is part of the open-source Quantum ESPRESSO suite
     for quantum simulation of materials; please cite
         "P. Giannozzi et al., J. Phys.:Condens. Matter 21 395502 (2009);
          URL http://www.quantum-espresso.org", 
     in publications or presentations arising from this work. More details at
     http://www.quantum-espresso.org/quote

     Parallel version (MPI), running on   192 processors
     K-points division:     npool     =     192

     Reading data from directory:
     ./tmp/li-bcc.save

   Info: using nr1, nr2, nr3 values from input

   Info: using nr1, nr2, nr3 values from input

     IMPORTANT: XC functional enforced from input :
     Exchange-correlation      =  SLA  PW   PBX  PBC ( 1  4  3  4 0 0)
     Any further DFT definition will be discarded
     Please, verify this is what you really want

 
     G-vector sticks info
     --------------------
     sticks:   dense  smooth     PW     G-vecs:    dense   smooth      PW
     Sum        1001     487    159                19861     6963    1253
 


     Dynamical matrices for (10,10,10)  uniform grid of q-points
     (  47q-points):
       N         xq(1)         xq(2)         xq(3) 
       1   0.000000000   0.000000000   0.000000000
       2   0.000000000  -0.100000000   0.100000000
       3   0.000000000  -0.200000000   0.200000000
       4   0.000000000  -0.300000000   0.300000000
       5   0.000000000  -0.400000000   0.400000000
       6   0.000000000   0.500000000  -0.500000000
       7  -0.100000000  -0.100000000   0.200000000
       8  -0.100000000  -0.200000000   0.300000000
       9  -0.100000000  -0.300000000   0.400000000
      10  -0.100000000   0.600000000  -0.500000000
      11  -0.200000000  -0.200000000   0.400000000
      12  -0.200000000   0.700000000  -0.500000000
      13  -0.200000000   0.600000000  -0.400000000
      14  -0.300000000   0.700000000  -0.400000000
      15   0.000000000   0.000000000   0.200000000
      16   0.000000000  -0.100000000   0.300000000
      17   0.000000000  -0.200000000   0.400000000
      18   0.000000000  -0.300000000   0.500000000
      19   0.000000000   0.600000000  -0.400000000
      20  -0.100000000  -0.100000000   0.400000000
      21  -0.100000000  -0.200000000   0.500000000
      22  -0.100000000   0.700000000  -0.400000000
      23  -0.200000000   0.200000000   0.200000000
      24  -0.200000000   0.800000000  -0.400000000
      25  -0.200000000   0.700000000  -0.300000000
      26  -0.300000000   0.300000000   0.200000000
      27   0.600000000  -0.600000000   0.200000000
      28   0.600000000  -0.700000000   0.300000000
      29   0.500000000  -0.500000000   0.200000000
      30   0.500000000  -0.600000000   0.300000000
      31   0.400000000  -0.600000000   0.400000000
      32   0.000000000   0.000000000   0.400000000
      33   0.000000000  -0.100000000   0.500000000
      34   0.000000000  -0.200000000   0.600000000
      35   0.000000000   0.700000000  -0.300000000
      36  -0.100000000  -0.100000000   0.600000000
      37  -0.100000000   0.800000000  -0.300000000
      38  -0.200000000   0.800000000  -0.200000000
      39   0.600000000  -0.600000000   0.400000000
      40   0.500000000  -0.500000000   0.400000000
      41   0.000000000   0.000000000   0.600000000
      42   0.000000000  -0.100000000   0.700000000
      43   0.000000000   0.800000000  -0.200000000
      44  -0.100000000   0.900000000  -0.200000000
      45   0.000000000   0.000000000   0.800000000
      46   0.000000000   0.900000000  -0.100000000
      47   0.000000000   0.000000000  -1.000000000

     Calculation of q =    0.0000000  -0.1000000   0.1000000
 
     G-vector sticks info
     --------------------
     sticks:   dense  smooth     PW     G-vecs:    dense   smooth      PW
     Sum        1001     487    165                19861     6963    1289
 


     bravais-lattice index     =            3
     lattice parameter (alat)  =       6.0634  a.u.
     unit-cell volume          =     111.4587 (a.u.)^3
     number of atoms/cell      =            1
     number of atomic types    =            1
     number of electrons       =         3.00
     number of Kohn-Sham states=            6
     kinetic-energy cutoff     =      60.0000  Ry
     charge density cutoff     =     480.0000  Ry
     Exchange-correlation      =  SLA  PW   PBX  PBC ( 1  4  3  4 0 0)

     celldm(1)=   6.063379  celldm(2)=   0.000000  celldm(3)=   0.000000
     celldm(4)=   0.000000  celldm(5)=   0.000000  celldm(6)=   0.000000

     crystal axes: (cart. coord. in units of alat)
               a(1) = (   0.500000   0.500000   0.500000 )  
               a(2) = (  -0.500000   0.500000   0.500000 )  
               a(3) = (  -0.500000  -0.500000   0.500000 )  

     reciprocal axes: (cart. coord. in units 2 pi/alat)
               b(1) = (  1.000000  0.000000  1.000000 )  
               b(2) = ( -1.000000  1.000000  0.000000 )  
               b(3) = (  0.000000 -1.000000  1.000000 )  


     PseudoPot. # 1 for Li read from file:
     ../Li.pbe-s-gbrv14.UPF
     MD5 check sum: 7ca33c4f951f001da2db5c8738379802
     Pseudo is Ultrasoft, Zval =  3.0
     Generated by new atomic code, or converted to UPF format
     Using radial grid of  751 points,  5 beta functions with: 
                l(1) =   0
                l(2) =   0
                l(3) =   0
                l(4) =   1
                l(5) =   1
     Q(r) pseudized with 10 coefficients,  rinner =    1.150   1.150   1.150


     atomic species   valence    mass     pseudopotential
        Li             3.00     6.94100     Li( 1.00)

     48 Sym. Ops., with inversion, found



   Cartesian axes

     site n.     atom                  positions (alat units)
         1           Li  tau(   1) = (   0.0000000   0.0000000   0.0000000  )

     number of k points= 33600  Marzari-Vanderbilt smearing, width (Ry)=  0.0200

     Number of k-points >= 100: set verbosity='high' to print them.

     Dense  grid:    19861 G-vectors     FFT dimensions: (  40,  40,  40)

     Smooth grid:     6963 G-vectors     FFT dimensions: (  25,  25,  25)

     Largest allocated arrays     est. size (Mb)     dimensions
        Kohn-Sham Wavefunctions         0.08 Mb     (     911,    6)
        NL pseudopotentials             0.13 Mb     (     911,    9)
        Each V/rho on FFT grid          0.98 Mb     (   64000)
        Each G-vector array             0.15 Mb     (   19861)
        G-vector shells                 0.00 Mb     (     207)
     Largest temporary arrays     est. size (Mb)     dimensions
        Auxiliary wavefunctions         0.33 Mb     (     911,   24)
        Each subspace H/S matrix        0.01 Mb     (      24,   24)
        Each <psi_i|beta_j> matrix      0.00 Mb     (       9,    6)

     The potential is recalculated from file :
     ./tmp/_ph0/li-bcc.save/charge-density.dat

     Starting wfc are    5 atomic +    1 random wfc

     Band Structure Calculation
     Davidson diagonalization with overlap

     ethr =  3.33E-10,  avg # of iterations = 16.6

     total cpu time spent up to now is       17.0 secs

     End of band structure calculation

     Number of k-points >= 100: set verbosity='high' to print the bands.

     the Fermi energy is     1.6582 ev

                                                                                

     bravais-lattice index     =            3
     lattice parameter (alat)  =       6.0634  a.u.
     unit-cell volume          =     111.4587 (a.u.)^3
     number of atoms/cell      =            1
     number of atomic types    =            1
     kinetic-energy cut-off    =      60.0000  Ry
     charge density cut-off    =     480.0000  Ry
     convergence threshold     =      1.0E-18
     beta                      =       0.7000
     number of iterations used =            4
     Exchange-correlation      =  SLA  PW   PBX  PBC ( 1  4  3  4 0 0)


     celldm(1)=    6.06338  celldm(2)=    0.00000  celldm(3)=    0.00000
     celldm(4)=    0.00000  celldm(5)=    0.00000  celldm(6)=    0.00000

     crystal axes: (cart. coord. in units of alat)
               a(1) = (  0.5000  0.5000  0.5000 )  
               a(2) = ( -0.5000  0.5000  0.5000 )  
               a(3) = ( -0.5000 -0.5000  0.5000 )  

     reciprocal axes: (cart. coord. in units 2 pi/alat)
               b(1) = (  1.0000  0.0000  1.0000 )  
               b(2) = ( -1.0000  1.0000  0.0000 )  
               b(3) = (  0.0000 -1.0000  1.0000 )  


     Atoms inside the unit cell: 

     Cartesian axes

     site n.  atom      mass           positions (alat units)
        1     Li   6.9410   tau(    1) = (    0.00000    0.00000    0.00000  )

     Computing dynamical matrix for 
                    q = (   0.0000000  -0.1000000   0.1000000 )
 
      4 Sym.Ops. (no q -> -q+G )


     G cutoff =  447.0035  (  19861 G-vectors)     FFT grid: ( 40, 40, 40)
     G cutoff =  223.5018  (   6963 G-vectors)  smooth grid: ( 25, 25, 25)

     number of k points= 33600  Marzari-Vanderbilt smearing, width (Ry)=  0.0200

     PseudoPot. # 1 for Li read from file:
     ../Li.pbe-s-gbrv14.UPF
     MD5 check sum: 7ca33c4f951f001da2db5c8738379802
     Pseudo is Ultrasoft, Zval =  3.0
     Generated by new atomic code, or converted to UPF format
     Using radial grid of  751 points,  5 beta functions with: 
                l(1) =   0
                l(2) =   0
                l(3) =   0
                l(4) =   1
                l(5) =   1
     Q(r) pseudized with 10 coefficients,  rinner =    1.150   1.150   1.150


     Mode symmetry, C_2v (mm2)  point group:


     Atomic displacements:
     There are   3 irreducible representations

     Representation     1      1 modes -A_1  D_1  S_1  To be done

     Representation     2      1 modes -B_1  D_3  S_3  To be done

     Representation     3      1 modes -B_2  D_4  S_4  To be done



     Alpha used in Ewald sum =   2.8000
     PHONON       :    36.12s CPU        43.37s WALL



     Representation #  1 mode #   1

     Self-consistent Calculation

      iter #   1 total cpu time :    45.1 secs   av.it.:   6.4
      thresh= 1.000E-02 alpha_mix =  0.700 |ddv_scf|^2 =  3.407E-01

      iter #   2 total cpu time :    47.2 secs   av.it.:   8.3
      thresh= 1.000E-02 alpha_mix =  0.700 |ddv_scf|^2 =  6.699E+02

      iter #   3 total cpu time :    49.8 secs   av.it.:   8.2
      thresh= 1.000E-02 alpha_mix =  0.700 |ddv_scf|^2 =  1.288E-02

      iter #   4 total cpu time :    51.7 secs   av.it.:   3.6
      thresh= 1.000E-02 alpha_mix =  0.700 |ddv_scf|^2 =  1.641E-07

      iter #   5 total cpu time :    53.3 secs   av.it.:   7.8
      thresh= 4.051E-05 alpha_mix =  0.700 |ddv_scf|^2 =  1.610E-08

      iter #   6 total cpu time :    55.4 secs   av.it.:   7.4
      thresh= 1.269E-05 alpha_mix =  0.700 |ddv_scf|^2 =  7.732E-09

      iter #   7 total cpu time :    56.5 secs   av.it.:   3.4
      thresh= 8.793E-06 alpha_mix =  0.700 |ddv_scf|^2 =  1.297E-09

      iter #   8 total cpu time :    58.6 secs   av.it.:   5.9
      thresh= 3.602E-06 alpha_mix =  0.700 |ddv_scf|^2 =  5.818E-11

      iter #   9 total cpu time :    63.9 secs   av.it.:   5.9
      thresh= 7.627E-07 alpha_mix =  0.700 |ddv_scf|^2 =  2.183E-12

      iter #  10 total cpu time :    65.8 secs   av.it.:   6.2
      thresh= 1.478E-07 alpha_mix =  0.700 |ddv_scf|^2 =  1.249E-15

      iter #  11 total cpu time :    69.7 secs   av.it.:   7.3
      thresh= 3.535E-09 alpha_mix =  0.700 |ddv_scf|^2 =  4.947E-17

      iter #  12 total cpu time :    76.2 secs   av.it.:   6.7
      thresh= 7.034E-10 alpha_mix =  0.700 |ddv_scf|^2 =  4.790E-18

      iter #  13 total cpu time :    77.9 secs   av.it.:   6.3
      thresh= 2.189E-10 alpha_mix =  0.700 |ddv_scf|^2 =  2.768E-17

      iter #  14 total cpu time :    79.6 secs   av.it.:   6.1
      thresh= 5.261E-10 alpha_mix =  0.700 |ddv_scf|^2 =  5.625E-22

     End of self-consistent calculation

     Convergence has been achieved 


     Representation #  2 mode #   2

     Self-consistent Calculation

      iter #   1 total cpu time :    82.8 secs   av.it.:   5.4
      thresh= 1.000E-02 alpha_mix =  0.700 |ddv_scf|^2 =  1.158E-06

      iter #   2 total cpu time :    84.6 secs   av.it.:   8.5
      thresh= 1.076E-04 alpha_mix =  0.700 |ddv_scf|^2 =  7.057E-08

      iter #   3 total cpu time :    87.1 secs   av.it.:   8.8
      thresh= 2.656E-05 alpha_mix =  0.700 |ddv_scf|^2 =  3.605E-10

      iter #   4 total cpu time :    88.8 secs   av.it.:   8.4
      thresh= 1.899E-06 alpha_mix =  0.700 |ddv_scf|^2 =  9.506E-13

      iter #   5 total cpu time :    90.3 secs   av.it.:   7.7
      thresh= 9.750E-08 alpha_mix =  0.700 |ddv_scf|^2 =  2.003E-14

      iter #   6 total cpu time :    92.4 secs   av.it.:   7.6
      thresh= 1.415E-08 alpha_mix =  0.700 |ddv_scf|^2 =  5.360E-18

      iter #   7 total cpu time :    94.1 secs   av.it.:   8.6
      thresh= 2.315E-10 alpha_mix =  0.700 |ddv_scf|^2 =  1.985E-20

     End of self-consistent calculation

     Convergence has been achieved 


     Representation #  3 mode #   3

     Self-consistent Calculation

      iter #   1 total cpu time :    95.9 secs   av.it.:   5.4
      thresh= 1.000E-02 alpha_mix =  0.700 |ddv_scf|^2 =  1.173E-06

      iter #   2 total cpu time :    97.8 secs   av.it.:   8.5
      thresh= 1.083E-04 alpha_mix =  0.700 |ddv_scf|^2 =  7.129E-08

      iter #   3 total cpu time :    99.6 secs   av.it.:   8.8
      thresh= 2.670E-05 alpha_mix =  0.700 |ddv_scf|^2 =  4.169E-10

      iter #   4 total cpu time :   101.3 secs   av.it.:   8.3
      thresh= 2.042E-06 alpha_mix =  0.700 |ddv_scf|^2 =  9.289E-13

      iter #   5 total cpu time :   104.6 secs   av.it.:   8.0
      thresh= 9.638E-08 alpha_mix =  0.700 |ddv_scf|^2 =  1.889E-14

      iter #   6 total cpu time :   106.3 secs   av.it.:   7.6
      thresh= 1.375E-08 alpha_mix =  0.700 |ddv_scf|^2 =  4.858E-18

      iter #   7 total cpu time :   108.3 secs   av.it.:   8.5
      thresh= 2.204E-10 alpha_mix =  0.700 |ddv_scf|^2 =  1.460E-20

     End of self-consistent calculation

     Convergence has been achieved 
 
     Number of q in the star =   12
     List of q in the star:
          1   0.000000000  -0.100000000   0.100000000
          2  -0.100000000   0.000000000   0.100000000
          3   0.100000000   0.000000000   0.100000000
          4   0.000000000   0.100000000   0.100000000
          5   0.100000000   0.100000000   0.000000000
          6  -0.100000000   0.100000000   0.000000000
          7   0.100000000  -0.100000000   0.000000000
          8  -0.100000000  -0.100000000   0.000000000
          9  -0.100000000   0.000000000  -0.100000000
         10   0.000000000   0.100000000  -0.100000000
         11   0.000000000  -0.100000000  -0.100000000
         12   0.100000000   0.000000000  -0.100000000

     Diagonalizing the dynamical matrix

     q = (    0.000000000  -0.100000000   0.100000000 ) 

 **************************************************************************
     freq (    1) =       0.323199 [THz] =      10.780750 [cm-1]
     freq (    2) =       1.848838 [THz] =      61.670609 [cm-1]
     freq (    3) =       3.282233 [THz] =     109.483505 [cm-1]
 **************************************************************************

     Mode symmetry, C_2v (mm2)  point group:

     freq (  1 -  1) =         10.8  [cm-1]   --> B_1  D_3  S_3      
     freq (  2 -  2) =         61.7  [cm-1]   --> B_2  D_4  S_4      
     freq (  3 -  3) =        109.5  [cm-1]   --> A_1  D_1  S_1      

     Calculation of q =    0.0000000  -0.2000000   0.2000000
 
     G-vector sticks info
     --------------------
     sticks:   dense  smooth     PW     G-vecs:    dense   smooth      PW
     Sum        1001     487    173                19861     6963    1433
 


     bravais-lattice index     =            3
     lattice parameter (alat)  =       6.0634  a.u.
     unit-cell volume          =     111.4587 (a.u.)^3
     number of atoms/cell      =            1
     number of atomic types    =            1
     number of electrons       =         3.00
     number of Kohn-Sham states=            6
     kinetic-energy cutoff     =      60.0000  Ry
     charge density cutoff     =     480.0000  Ry
     Exchange-correlation      =  SLA  PW   PBX  PBC ( 1  4  3  4 0 0)

     celldm(1)=   6.063379  celldm(2)=   0.000000  celldm(3)=   0.000000
     celldm(4)=   0.000000  celldm(5)=   0.000000  celldm(6)=   0.000000

     crystal axes: (cart. coord. in units of alat)
               a(1) = (   0.500000   0.500000   0.500000 )  
               a(2) = (  -0.500000   0.500000   0.500000 )  
               a(3) = (  -0.500000  -0.500000   0.500000 )  

     reciprocal axes: (cart. coord. in units 2 pi/alat)
               b(1) = (  1.000000  0.000000  1.000000 )  
               b(2) = ( -1.000000  1.000000  0.000000 )  
               b(3) = (  0.000000 -1.000000  1.000000 )  


     PseudoPot. # 1 for Li read from file:
     ../Li.pbe-s-gbrv14.UPF
     MD5 check sum: 7ca33c4f951f001da2db5c8738379802
     Pseudo is Ultrasoft, Zval =  3.0
     Generated by new atomic code, or converted to UPF format
     Using radial grid of  751 points,  5 beta functions with: 
                l(1) =   0
                l(2) =   0
                l(3) =   0
                l(4) =   1
                l(5) =   1
     Q(r) pseudized with 10 coefficients,  rinner =    1.150   1.150   1.150


     atomic species   valence    mass     pseudopotential
        Li             3.00     6.94100     Li( 1.00)

     48 Sym. Ops., with inversion, found



   Cartesian axes

     site n.     atom                  positions (alat units)
         1           Li  tau(   1) = (   0.0000000   0.0000000   0.0000000  )

     number of k points= 33600  Marzari-Vanderbilt smearing, width (Ry)=  0.0200

     Number of k-points >= 100: set verbosity='high' to print them.

     Dense  grid:    19861 G-vectors     FFT dimensions: (  40,  40,  40)

     Smooth grid:     6963 G-vectors     FFT dimensions: (  25,  25,  25)

     Largest allocated arrays     est. size (Mb)     dimensions
        Kohn-Sham Wavefunctions         0.08 Mb     (     911,    6)
        NL pseudopotentials             0.13 Mb     (     911,    9)
        Each V/rho on FFT grid          0.98 Mb     (   64000)
        Each G-vector array             0.15 Mb     (   19861)
        G-vector shells                 0.00 Mb     (     207)
     Largest temporary arrays     est. size (Mb)     dimensions
        Auxiliary wavefunctions         0.33 Mb     (     911,   24)
        Each subspace H/S matrix        0.01 Mb     (      24,   24)
        Each <psi_i|beta_j> matrix      0.00 Mb     (       9,    6)

     The potential is recalculated from file :
     ./tmp/_ph0/li-bcc.save/charge-density.dat

     Starting wfc are    5 atomic +    1 random wfc

     Band Structure Calculation
     Davidson diagonalization with overlap

     ethr =  3.33E-10,  avg # of iterations = 16.6

     total cpu time spent up to now is       41.7 secs

     End of band structure calculation

     Number of k-points >= 100: set verbosity='high' to print the bands.

     the Fermi energy is     1.6582 ev

                                                                                

     bravais-lattice index     =            3
     lattice parameter (alat)  =       6.0634  a.u.
     unit-cell volume          =     111.4587 (a.u.)^3
     number of atoms/cell      =            1
     number of atomic types    =            1
     kinetic-energy cut-off    =      60.0000  Ry
     charge density cut-off    =     480.0000  Ry
     convergence threshold     =      1.0E-18
     beta                      =       0.7000
     number of iterations used =            4
     Exchange-correlation      =  SLA  PW   PBX  PBC ( 1  4  3  4 0 0)


     celldm(1)=    6.06338  celldm(2)=    0.00000  celldm(3)=    0.00000
     celldm(4)=    0.00000  celldm(5)=    0.00000  celldm(6)=    0.00000

     crystal axes: (cart. coord. in units of alat)
               a(1) = (  0.5000  0.5000  0.5000 )  
               a(2) = ( -0.5000  0.5000  0.5000 )  
               a(3) = ( -0.5000 -0.5000  0.5000 )  

     reciprocal axes: (cart. coord. in units 2 pi/alat)
               b(1) = (  1.0000  0.0000  1.0000 )  
               b(2) = ( -1.0000  1.0000  0.0000 )  
               b(3) = (  0.0000 -1.0000  1.0000 )  


     Atoms inside the unit cell: 

     Cartesian axes

     site n.  atom      mass           positions (alat units)
        1     Li   6.9410   tau(    1) = (    0.00000    0.00000    0.00000  )

     Computing dynamical matrix for 
                    q = (   0.0000000  -0.2000000   0.2000000 )
 
      4 Sym.Ops. (no q -> -q+G )


     G cutoff =  447.0035  (  19861 G-vectors)     FFT grid: ( 40, 40, 40)
     G cutoff =  223.5018  (   6963 G-vectors)  smooth grid: ( 25, 25, 25)

     number of k points= 33600  Marzari-Vanderbilt smearing, width (Ry)=  0.0200

     PseudoPot. # 1 for Li read from file:
     ../Li.pbe-s-gbrv14.UPF
     MD5 check sum: 7ca33c4f951f001da2db5c8738379802
     Pseudo is Ultrasoft, Zval =  3.0
     Generated by new atomic code, or converted to UPF format
     Using radial grid of  751 points,  5 beta functions with: 
                l(1) =   0
                l(2) =   0
                l(3) =   0
                l(4) =   1
                l(5) =   1
     Q(r) pseudized with 10 coefficients,  rinner =    1.150   1.150   1.150


     Mode symmetry, C_2v (mm2)  point group:


     Atomic displacements:
     There are   3 irreducible representations

     Representation     1      1 modes -A_1  D_1  S_1  To be done

     Representation     2      1 modes -B_1  D_3  S_3  To be done

     Representation     3      1 modes -B_2  D_4  S_4  To be done



     Alpha used in Ewald sum =   2.8000
     PHONON       :  1m55.36s CPU     2m 8.48s WALL



     Representation #  1 mode #   1

     Self-consistent Calculation

      iter #   1 total cpu time :   130.2 secs   av.it.:   6.4
      thresh= 1.000E-02 alpha_mix =  0.700 |ddv_scf|^2 =  4.511E-03

      iter #   2 total cpu time :   132.2 secs   av.it.:   7.4
      thresh= 6.717E-03 alpha_mix =  0.700 |ddv_scf|^2 =  4.354E-01

      iter #   3 total cpu time :   134.3 secs   av.it.:   6.9
      thresh= 1.000E-02 alpha_mix =  0.700 |ddv_scf|^2 =  7.152E-08

      iter #   4 total cpu time :   136.2 secs   av.it.:   9.0
      thresh= 2.674E-05 alpha_mix =  0.700 |ddv_scf|^2 =  1.053E-08

      iter #   5 total cpu time :   139.9 secs   av.it.:   8.6
      thresh= 1.026E-05 alpha_mix =  0.700 |ddv_scf|^2 =  2.117E-10

      iter #   6 total cpu time :   142.8 secs   av.it.:   7.9
      thresh= 1.455E-06 alpha_mix =  0.700 |ddv_scf|^2 =  1.825E-13

      iter #   7 total cpu time :   144.6 secs   av.it.:   9.4
      thresh= 4.272E-08 alpha_mix =  0.700 |ddv_scf|^2 =  5.377E-14

      iter #   8 total cpu time :   152.3 secs   av.it.:   8.1
      thresh= 2.319E-08 alpha_mix =  0.700 |ddv_scf|^2 =  2.082E-13

      iter #   9 total cpu time :   154.1 secs   av.it.:   6.5
      thresh= 4.563E-08 alpha_mix =  0.700 |ddv_scf|^2 =  7.704E-14

      iter #  10 total cpu time :   155.6 secs   av.it.:   6.5
      thresh= 2.776E-08 alpha_mix =  0.700 |ddv_scf|^2 =  4.641E-17

      iter #  11 total cpu time :   157.9 secs   av.it.:   9.0
      thresh= 6.812E-10 alpha_mix =  0.700 |ddv_scf|^2 =  4.417E-18

      iter #  12 total cpu time :   159.6 secs   av.it.:   8.2
      thresh= 2.102E-10 alpha_mix =  0.700 |ddv_scf|^2 =  9.031E-21

     End of self-consistent calculation

     Convergence has been achieved 


     Representation #  2 mode #   2

     Self-consistent Calculation

      iter #   1 total cpu time :   161.6 secs   av.it.:   5.4
      thresh= 1.000E-02 alpha_mix =  0.700 |ddv_scf|^2 =  1.170E-06

      iter #   2 total cpu time :   163.3 secs   av.it.:   8.5
      thresh= 1.082E-04 alpha_mix =  0.700 |ddv_scf|^2 =  7.078E-08

      iter #   3 total cpu time :   173.2 secs   av.it.:   8.8
      thresh= 2.660E-05 alpha_mix =  0.700 |ddv_scf|^2 =  4.144E-10

      iter #   4 total cpu time :   175.6 secs   av.it.:   8.4
      thresh= 2.036E-06 alpha_mix =  0.700 |ddv_scf|^2 =  8.557E-13

      iter #   5 total cpu time :   177.2 secs   av.it.:   8.2
      thresh= 9.250E-08 alpha_mix =  0.700 |ddv_scf|^2 =  1.804E-14

      iter #   6 total cpu time :   178.8 secs   av.it.:   7.6
      thresh= 1.343E-08 alpha_mix =  0.700 |ddv_scf|^2 =  5.805E-18

      iter #   7 total cpu time :   180.6 secs   av.it.:   8.7
      thresh= 2.409E-10 alpha_mix =  0.700 |ddv_scf|^2 =  1.625E-20

     End of self-consistent calculation

     Convergence has been achieved 


     Representation #  3 mode #   3

     Self-consistent Calculation

      iter #   1 total cpu time :   182.3 secs   av.it.:   5.4
      thresh= 1.000E-02 alpha_mix =  0.700 |ddv_scf|^2 =  1.223E-06

      iter #   2 total cpu time :   184.0 secs   av.it.:   8.5
      thresh= 1.106E-04 alpha_mix =  0.700 |ddv_scf|^2 =  7.346E-08

      iter #   3 total cpu time :   186.6 secs   av.it.:   8.8
      thresh= 2.710E-05 alpha_mix =  0.700 |ddv_scf|^2 =  6.322E-10

      iter #   4 total cpu time :   188.4 secs   av.it.:   8.2
      thresh= 2.514E-06 alpha_mix =  0.700 |ddv_scf|^2 =  9.115E-13

      iter #   5 total cpu time :   190.4 secs   av.it.:   8.3
      thresh= 9.547E-08 alpha_mix =  0.700 |ddv_scf|^2 =  1.814E-14

      iter #   6 total cpu time :   192.2 secs   av.it.:   6.9
      thresh= 1.347E-08 alpha_mix =  0.700 |ddv_scf|^2 =  4.234E-18

      iter #   7 total cpu time :   194.0 secs   av.it.:   8.6
      thresh= 2.058E-10 alpha_mix =  0.700 |ddv_scf|^2 =  1.063E-20

     End of self-consistent calculation

     Convergence has been achieved 
 
     Number of q in the star =   12
     List of q in the star:
          1   0.000000000  -0.200000000   0.200000000
          2  -0.200000000   0.000000000   0.200000000
          3   0.200000000   0.000000000   0.200000000
          4   0.000000000   0.200000000   0.200000000
          5   0.200000000   0.200000000   0.000000000
          6  -0.200000000   0.200000000   0.000000000
          7   0.200000000  -0.200000000   0.000000000
          8  -0.200000000  -0.200000000   0.000000000
          9  -0.200000000   0.000000000  -0.200000000
         10   0.000000000   0.200000000  -0.200000000
         11   0.000000000  -0.200000000  -0.200000000
         12   0.200000000   0.000000000  -0.200000000

     Diagonalizing the dynamical matrix

     q = (    0.000000000  -0.200000000   0.200000000 ) 

 **************************************************************************
     freq (    1) =       0.614936 [THz] =      20.512058 [cm-1]
     freq (    2) =       3.479619 [THz] =     116.067604 [cm-1]
     freq (    3) =       6.856231 [THz] =     228.699242 [cm-1]
 **************************************************************************

     Mode symmetry, C_2v (mm2)  point group:

     freq (  1 -  1) =         20.5  [cm-1]   --> B_1  D_3  S_3      
     freq (  2 -  2) =        116.1  [cm-1]   --> B_2  D_4  S_4      
     freq (  3 -  3) =        228.7  [cm-1]   --> A_1  D_1  S_1      

     Calculation of q =    0.0000000  -0.3000000   0.3000000
 
     G-vector sticks info
     --------------------
     sticks:   dense  smooth     PW     G-vecs:    dense   smooth      PW
     Sum        1001     487    173                19861     6963    1481
 


     bravais-lattice index     =            3
     lattice parameter (alat)  =       6.0634  a.u.
     unit-cell volume          =     111.4587 (a.u.)^3
     number of atoms/cell      =            1
     number of atomic types    =            1
     number of electrons       =         3.00
     number of Kohn-Sham states=            6
     kinetic-energy cutoff     =      60.0000  Ry
     charge density cutoff     =     480.0000  Ry
     Exchange-correlation      =  SLA  PW   PBX  PBC ( 1  4  3  4 0 0)

     celldm(1)=   6.063379  celldm(2)=   0.000000  celldm(3)=   0.000000
     celldm(4)=   0.000000  celldm(5)=   0.000000  celldm(6)=   0.000000

     crystal axes: (cart. coord. in units of alat)
               a(1) = (   0.500000   0.500000   0.500000 )  
               a(2) = (  -0.500000   0.500000   0.500000 )  
               a(3) = (  -0.500000  -0.500000   0.500000 )  

     reciprocal axes: (cart. coord. in units 2 pi/alat)
               b(1) = (  1.000000  0.000000  1.000000 )  
               b(2) = ( -1.000000  1.000000  0.000000 )  
               b(3) = (  0.000000 -1.000000  1.000000 )  


     PseudoPot. # 1 for Li read from file:
     ../Li.pbe-s-gbrv14.UPF
     MD5 check sum: 7ca33c4f951f001da2db5c8738379802
     Pseudo is Ultrasoft, Zval =  3.0
     Generated by new atomic code, or converted to UPF format
     Using radial grid of  751 points,  5 beta functions with: 
                l(1) =   0
                l(2) =   0
                l(3) =   0
                l(4) =   1
                l(5) =   1
     Q(r) pseudized with 10 coefficients,  rinner =    1.150   1.150   1.150


     atomic species   valence    mass     pseudopotential
        Li             3.00     6.94100     Li( 1.00)

     48 Sym. Ops., with inversion, found



   Cartesian axes

     site n.     atom                  positions (alat units)
         1           Li  tau(   1) = (   0.0000000   0.0000000   0.0000000  )

     number of k points= 33600  Marzari-Vanderbilt smearing, width (Ry)=  0.0200

     Number of k-points >= 100: set verbosity='high' to print them.

     Dense  grid:    19861 G-vectors     FFT dimensions: (  40,  40,  40)

     Smooth grid:     6963 G-vectors     FFT dimensions: (  25,  25,  25)

     Largest allocated arrays     est. size (Mb)     dimensions
        Kohn-Sham Wavefunctions         0.08 Mb     (     911,    6)
        NL pseudopotentials             0.13 Mb     (     911,    9)
        Each V/rho on FFT grid          0.98 Mb     (   64000)
        Each G-vector array             0.15 Mb     (   19861)
        G-vector shells                 0.00 Mb     (     207)
     Largest temporary arrays     est. size (Mb)     dimensions
        Auxiliary wavefunctions         0.33 Mb     (     911,   24)
        Each subspace H/S matrix        0.01 Mb     (      24,   24)
        Each <psi_i|beta_j> matrix      0.00 Mb     (       9,    6)

     The potential is recalculated from file :
     ./tmp/_ph0/li-bcc.save/charge-density.dat

     Starting wfc are    5 atomic +    1 random wfc

     Band Structure Calculation
     Davidson diagonalization with overlap

     ethr =  3.33E-10,  avg # of iterations = 16.6

     total cpu time spent up to now is       59.5 secs

     End of band structure calculation

     Number of k-points >= 100: set verbosity='high' to print the bands.

     the Fermi energy is     1.6582 ev

                                                                                

     bravais-lattice index     =            3
     lattice parameter (alat)  =       6.0634  a.u.
     unit-cell volume          =     111.4587 (a.u.)^3
     number of atoms/cell      =            1
     number of atomic types    =            1
     kinetic-energy cut-off    =      60.0000  Ry
     charge density cut-off    =     480.0000  Ry
     convergence threshold     =      1.0E-18
     beta                      =       0.7000
     number of iterations used =            4
     Exchange-correlation      =  SLA  PW   PBX  PBC ( 1  4  3  4 0 0)


     celldm(1)=    6.06338  celldm(2)=    0.00000  celldm(3)=    0.00000
     celldm(4)=    0.00000  celldm(5)=    0.00000  celldm(6)=    0.00000

     crystal axes: (cart. coord. in units of alat)
               a(1) = (  0.5000  0.5000  0.5000 )  
               a(2) = ( -0.5000  0.5000  0.5000 )  
               a(3) = ( -0.5000 -0.5000  0.5000 )  

     reciprocal axes: (cart. coord. in units 2 pi/alat)
               b(1) = (  1.0000  0.0000  1.0000 )  
               b(2) = ( -1.0000  1.0000  0.0000 )  
               b(3) = (  0.0000 -1.0000  1.0000 )  


     Atoms inside the unit cell: 

     Cartesian axes

     site n.  atom      mass           positions (alat units)
        1     Li   6.9410   tau(    1) = (    0.00000    0.00000    0.00000  )

     Computing dynamical matrix for 
                    q = (   0.0000000  -0.3000000   0.3000000 )
 
      4 Sym.Ops. (no q -> -q+G )


     G cutoff =  447.0035  (  19861 G-vectors)     FFT grid: ( 40, 40, 40)
     G cutoff =  223.5018  (   6963 G-vectors)  smooth grid: ( 25, 25, 25)

     number of k points= 33600  Marzari-Vanderbilt smearing, width (Ry)=  0.0200

     PseudoPot. # 1 for Li read from file:
     ../Li.pbe-s-gbrv14.UPF
     MD5 check sum: 7ca33c4f951f001da2db5c8738379802
     Pseudo is Ultrasoft, Zval =  3.0
     Generated by new atomic code, or converted to UPF format
     Using radial grid of  751 points,  5 beta functions with: 
                l(1) =   0
                l(2) =   0
                l(3) =   0
                l(4) =   1
                l(5) =   1
     Q(r) pseudized with 10 coefficients,  rinner =    1.150   1.150   1.150


     Mode symmetry, C_2v (mm2)  point group:


     Atomic displacements:
     There are   3 irreducible representations

     Representation     1      1 modes -A_1  D_1  S_1  To be done

     Representation     2      1 modes -B_1  D_3  S_3  To be done

     Representation     3      1 modes -B_2  D_4  S_4  To be done



     Alpha used in Ewald sum =   2.8000
     PHONON       :  3m17.03s CPU     3m35.76s WALL



     Representation #  1 mode #   1

     Self-consistent Calculation

      iter #   1 total cpu time :   217.5 secs   av.it.:   6.5
      thresh= 1.000E-02 alpha_mix =  0.700 |ddv_scf|^2 =  3.142E-04

      iter #   2 total cpu time :   220.5 secs   av.it.:   7.9
      thresh= 1.773E-03 alpha_mix =  0.700 |ddv_scf|^2 =  4.015E-03

      iter #   3 total cpu time :   227.3 secs   av.it.:   6.4
      thresh= 6.336E-03 alpha_mix =  0.700 |ddv_scf|^2 =  7.990E-08

      iter #   4 total cpu time :   231.6 secs   av.it.:   8.8
      thresh= 2.827E-05 alpha_mix =  0.700 |ddv_scf|^2 =  2.793E-09

      iter #   5 total cpu time :   234.0 secs   av.it.:   8.8
      thresh= 5.285E-06 alpha_mix =  0.700 |ddv_scf|^2 =  1.869E-11

      iter #   6 total cpu time :   235.8 secs   av.it.:   8.7
      thresh= 4.323E-07 alpha_mix =  0.700 |ddv_scf|^2 =  2.912E-13

      iter #   7 total cpu time :   237.6 secs   av.it.:   9.4
      thresh= 5.396E-08 alpha_mix =  0.700 |ddv_scf|^2 =  6.853E-16

      iter #   8 total cpu time :   239.5 secs   av.it.:   9.4
      thresh= 2.618E-09 alpha_mix =  0.700 |ddv_scf|^2 =  2.536E-17

      iter #   9 total cpu time :   241.5 secs   av.it.:   8.8
      thresh= 5.036E-10 alpha_mix =  0.700 |ddv_scf|^2 =  1.012E-17

      iter #  10 total cpu time :   244.2 secs   av.it.:   7.8
      thresh= 3.181E-10 alpha_mix =  0.700 |ddv_scf|^2 =  3.441E-18

      iter #  11 total cpu time :   246.0 secs   av.it.:   8.0
      thresh= 1.855E-10 alpha_mix =  0.700 |ddv_scf|^2 =  6.937E-18

      iter #  12 total cpu time :   252.7 secs   av.it.:   6.8
      thresh= 2.634E-10 alpha_mix =  0.700 |ddv_scf|^2 =  2.642E-21

     End of self-consistent calculation

     Convergence has been achieved 


     Representation #  2 mode #   2

     Self-consistent Calculation

      iter #   1 total cpu time :   266.0 secs   av.it.:   5.5
      thresh= 1.000E-02 alpha_mix =  0.700 |ddv_scf|^2 =  1.187E-06

      iter #   2 total cpu time :   268.0 secs   av.it.:   8.5
      thresh= 1.089E-04 alpha_mix =  0.700 |ddv_scf|^2 =  7.100E-08

      iter #   3 total cpu time :   269.8 secs   av.it.:   8.9
      thresh= 2.665E-05 alpha_mix =  0.700 |ddv_scf|^2 =  5.014E-10

      iter #   4 total cpu time :   271.6 secs   av.it.:   8.2
      thresh= 2.239E-06 alpha_mix =  0.700 |ddv_scf|^2 =  7.640E-13

      iter #   5 total cpu time :   273.3 secs   av.it.:   8.4
      thresh= 8.741E-08 alpha_mix =  0.700 |ddv_scf|^2 =  1.764E-14

      iter #   6 total cpu time :   274.8 secs   av.it.:   7.1
      thresh= 1.328E-08 alpha_mix =  0.700 |ddv_scf|^2 =  6.202E-18

      iter #   7 total cpu time :   276.6 secs   av.it.:   8.5
      thresh= 2.490E-10 alpha_mix =  0.700 |ddv_scf|^2 =  1.226E-20

     End of self-consistent calculation

     Convergence has been achieved 


     Representation #  3 mode #   3

     Self-consistent Calculation

      iter #   1 total cpu time :   278.8 secs   av.it.:   5.5
      thresh= 1.000E-02 alpha_mix =  0.700 |ddv_scf|^2 =  1.289E-06

      iter #   2 total cpu time :   280.6 secs   av.it.:   8.5
      thresh= 1.135E-04 alpha_mix =  0.700 |ddv_scf|^2 =  7.624E-08

      iter #   3 total cpu time :   282.5 secs   av.it.:   8.8
      thresh= 2.761E-05 alpha_mix =  0.700 |ddv_scf|^2 =  9.473E-10

      iter #   4 total cpu time :   284.2 secs   av.it.:   8.2
      thresh= 3.078E-06 alpha_mix =  0.700 |ddv_scf|^2 =  1.011E-12

      iter #   5 total cpu time :   286.6 secs   av.it.:   8.4
      thresh= 1.005E-07 alpha_mix =  0.700 |ddv_scf|^2 =  2.040E-14

      iter #   6 total cpu time :   288.4 secs   av.it.:   7.3
      thresh= 1.428E-08 alpha_mix =  0.700 |ddv_scf|^2 =  3.735E-18

      iter #   7 total cpu time :   290.4 secs   av.it.:   8.8
      thresh= 1.933E-10 alpha_mix =  0.700 |ddv_scf|^2 =  1.427E-20

     End of self-consistent calculation

     Convergence has been achieved 
 
     Number of q in the star =   12
     List of q in the star:
          1   0.000000000  -0.300000000   0.300000000
          2  -0.300000000   0.000000000   0.300000000
          3   0.300000000   0.000000000   0.300000000
          4   0.000000000   0.300000000   0.300000000
          5   0.300000000   0.300000000   0.000000000
          6  -0.300000000   0.300000000   0.000000000
          7   0.300000000  -0.300000000   0.000000000
          8  -0.300000000  -0.300000000   0.000000000
          9  -0.300000000   0.000000000  -0.300000000
         10   0.000000000   0.300000000  -0.300000000
         11   0.000000000  -0.300000000  -0.300000000
         12   0.300000000   0.000000000  -0.300000000

     Diagonalizing the dynamical matrix

     q = (    0.000000000  -0.300000000   0.300000000 ) 

 **************************************************************************
     freq (    1) =       0.909049 [THz] =      30.322607 [cm-1]
     freq (    2) =       4.742304 [THz] =     158.186239 [cm-1]
     freq (    3) =       9.900164 [THz] =     330.233934 [cm-1]
 **************************************************************************

     Mode symmetry, C_2v (mm2)  point group:

     freq (  1 -  1) =         30.3  [cm-1]   --> B_1  D_3  S_3      
     freq (  2 -  2) =        158.2  [cm-1]   --> B_2  D_4  S_4      
     freq (  3 -  3) =        330.2  [cm-1]   --> A_1  D_1  S_1      

     Calculation of q =    0.0000000  -0.4000000   0.4000000
 
     G-vector sticks info
     --------------------
     sticks:   dense  smooth     PW     G-vecs:    dense   smooth      PW
     Sum        1001     487    173                19861     6963    1505
 


     bravais-lattice index     =            3
     lattice parameter (alat)  =       6.0634  a.u.
     unit-cell volume          =     111.4587 (a.u.)^3
     number of atoms/cell      =            1
     number of atomic types    =            1
     number of electrons       =         3.00
     number of Kohn-Sham states=            6
     kinetic-energy cutoff     =      60.0000  Ry
     charge density cutoff     =     480.0000  Ry
     Exchange-correlation      =  SLA  PW   PBX  PBC ( 1  4  3  4 0 0)

     celldm(1)=   6.063379  celldm(2)=   0.000000  celldm(3)=   0.000000
     celldm(4)=   0.000000  celldm(5)=   0.000000  celldm(6)=   0.000000

     crystal axes: (cart. coord. in units of alat)
               a(1) = (   0.500000   0.500000   0.500000 )  
               a(2) = (  -0.500000   0.500000   0.500000 )  
               a(3) = (  -0.500000  -0.500000   0.500000 )  

     reciprocal axes: (cart. coord. in units 2 pi/alat)
               b(1) = (  1.000000  0.000000  1.000000 )  
               b(2) = ( -1.000000  1.000000  0.000000 )  
               b(3) = (  0.000000 -1.000000  1.000000 )  


     PseudoPot. # 1 for Li read from file:
     ../Li.pbe-s-gbrv14.UPF
     MD5 check sum: 7ca33c4f951f001da2db5c8738379802
     Pseudo is Ultrasoft, Zval =  3.0
     Generated by new atomic code, or converted to UPF format
     Using radial grid of  751 points,  5 beta functions with: 
                l(1) =   0
                l(2) =   0
                l(3) =   0
                l(4) =   1
                l(5) =   1
     Q(r) pseudized with 10 coefficients,  rinner =    1.150   1.150   1.150


     atomic species   valence    mass     pseudopotential
        Li             3.00     6.94100     Li( 1.00)

     48 Sym. Ops., with inversion, found



   Cartesian axes

     site n.     atom                  positions (alat units)
         1           Li  tau(   1) = (   0.0000000   0.0000000   0.0000000  )

     number of k points= 33600  Marzari-Vanderbilt smearing, width (Ry)=  0.0200

     Number of k-points >= 100: set verbosity='high' to print them.

     Dense  grid:    19861 G-vectors     FFT dimensions: (  40,  40,  40)

     Smooth grid:     6963 G-vectors     FFT dimensions: (  25,  25,  25)

     Largest allocated arrays     est. size (Mb)     dimensions
        Kohn-Sham Wavefunctions         0.08 Mb     (     911,    6)
        NL pseudopotentials             0.13 Mb     (     911,    9)
        Each V/rho on FFT grid          0.98 Mb     (   64000)
        Each G-vector array             0.15 Mb     (   19861)
        G-vector shells                 0.00 Mb     (     207)
     Largest temporary arrays     est. size (Mb)     dimensions
        Auxiliary wavefunctions         0.33 Mb     (     911,   24)
        Each subspace H/S matrix        0.01 Mb     (      24,   24)
        Each <psi_i|beta_j> matrix      0.00 Mb     (       9,    6)

     The potential is recalculated from file :
     ./tmp/_ph0/li-bcc.save/charge-density.dat

     Starting wfc are    5 atomic +    1 random wfc

     Band Structure Calculation
     Davidson diagonalization with overlap

     ethr =  3.33E-10,  avg # of iterations = 16.6

     total cpu time spent up to now is       77.4 secs

     End of band structure calculation

     Number of k-points >= 100: set verbosity='high' to print the bands.

     the Fermi energy is     1.6582 ev

                                                                                

     bravais-lattice index     =            3
     lattice parameter (alat)  =       6.0634  a.u.
     unit-cell volume          =     111.4587 (a.u.)^3
     number of atoms/cell      =            1
     number of atomic types    =            1
     kinetic-energy cut-off    =      60.0000  Ry
     charge density cut-off    =     480.0000  Ry
     convergence threshold     =      1.0E-18
     beta                      =       0.7000
     number of iterations used =            4
     Exchange-correlation      =  SLA  PW   PBX  PBC ( 1  4  3  4 0 0)


     celldm(1)=    6.06338  celldm(2)=    0.00000  celldm(3)=    0.00000
     celldm(4)=    0.00000  celldm(5)=    0.00000  celldm(6)=    0.00000

     crystal axes: (cart. coord. in units of alat)
               a(1) = (  0.5000  0.5000  0.5000 )  
               a(2) = ( -0.5000  0.5000  0.5000 )  
               a(3) = ( -0.5000 -0.5000  0.5000 )  

     reciprocal axes: (cart. coord. in units 2 pi/alat)
               b(1) = (  1.0000  0.0000  1.0000 )  
               b(2) = ( -1.0000  1.0000  0.0000 )  
               b(3) = (  0.0000 -1.0000  1.0000 )  


     Atoms inside the unit cell: 

     Cartesian axes

     site n.  atom      mass           positions (alat units)
        1     Li   6.9410   tau(    1) = (    0.00000    0.00000    0.00000  )

     Computing dynamical matrix for 
                    q = (   0.0000000  -0.4000000   0.4000000 )
 
      4 Sym.Ops. (no q -> -q+G )


     G cutoff =  447.0035  (  19861 G-vectors)     FFT grid: ( 40, 40, 40)
     G cutoff =  223.5018  (   6963 G-vectors)  smooth grid: ( 25, 25, 25)

     number of k points= 33600  Marzari-Vanderbilt smearing, width (Ry)=  0.0200

     PseudoPot. # 1 for Li read from file:
     ../Li.pbe-s-gbrv14.UPF
     MD5 check sum: 7ca33c4f951f001da2db5c8738379802
     Pseudo is Ultrasoft, Zval =  3.0
     Generated by new atomic code, or converted to UPF format
     Using radial grid of  751 points,  5 beta functions with: 
                l(1) =   0
                l(2) =   0
                l(3) =   0
                l(4) =   1
                l(5) =   1
     Q(r) pseudized with 10 coefficients,  rinner =    1.150   1.150   1.150


     Mode symmetry, C_2v (mm2)  point group:


     Atomic displacements:
     There are   3 irreducible representations

     Representation     1      1 modes -A_1  D_1  S_1  To be done

     Representation     2      1 modes -B_1  D_3  S_3  To be done

     Representation     3      1 modes -B_2  D_4  S_4  To be done



     Alpha used in Ewald sum =   2.8000
     PHONON       :  4m46.34s CPU     5m10.56s WALL



     Representation #  1 mode #   1

     Self-consistent Calculation

      iter #   1 total cpu time :   312.3 secs   av.it.:   6.4
      thresh= 1.000E-02 alpha_mix =  0.700 |ddv_scf|^2 =  4.503E-05

      iter #   2 total cpu time :   317.5 secs   av.it.:   8.5
      thresh= 6.711E-04 alpha_mix =  0.700 |ddv_scf|^2 =  9.580E-05

      iter #   3 total cpu time :   321.5 secs   av.it.:   7.3
      thresh= 9.788E-04 alpha_mix =  0.700 |ddv_scf|^2 =  7.165E-08

      iter #   4 total cpu time :   327.8 secs   av.it.:   8.6
      thresh= 2.677E-05 alpha_mix =  0.700 |ddv_scf|^2 =  3.773E-09

      iter #   5 total cpu time :   331.8 secs   av.it.:   8.7
      thresh= 6.143E-06 alpha_mix =  0.700 |ddv_scf|^2 =  4.393E-12

      iter #   6 total cpu time :   333.8 secs   av.it.:   8.9
      thresh= 2.096E-07 alpha_mix =  0.700 |ddv_scf|^2 =  2.129E-13

      iter #   7 total cpu time :   335.7 secs   av.it.:   8.8
      thresh= 4.614E-08 alpha_mix =  0.700 |ddv_scf|^2 =  8.227E-16

      iter #   8 total cpu time :   341.4 secs   av.it.:   9.3
      thresh= 2.868E-09 alpha_mix =  0.700 |ddv_scf|^2 =  3.356E-17

      iter #   9 total cpu time :   343.1 secs   av.it.:   8.9
      thresh= 5.793E-10 alpha_mix =  0.700 |ddv_scf|^2 =  3.002E-17

      iter #  10 total cpu time :   351.2 secs   av.it.:   7.5
      thresh= 5.479E-10 alpha_mix =  0.700 |ddv_scf|^2 =  4.774E-20

     End of self-consistent calculation

     Convergence has been achieved 


     Representation #  2 mode #   2

     Self-consistent Calculation

      iter #   1 total cpu time :   353.2 secs   av.it.:   5.5
      thresh= 1.000E-02 alpha_mix =  0.700 |ddv_scf|^2 =  1.202E-06

      iter #   2 total cpu time :   355.0 secs   av.it.:   8.6
      thresh= 1.096E-04 alpha_mix =  0.700 |ddv_scf|^2 =  7.119E-08

      iter #   3 total cpu time :   357.6 secs   av.it.:   8.9
      thresh= 2.668E-05 alpha_mix =  0.700 |ddv_scf|^2 =  5.912E-10

      iter #   4 total cpu time :   359.7 secs   av.it.:   8.1
      thresh= 2.431E-06 alpha_mix =  0.700 |ddv_scf|^2 =  7.050E-13

      iter #   5 total cpu time :   361.7 secs   av.it.:   8.4
      thresh= 8.397E-08 alpha_mix =  0.700 |ddv_scf|^2 =  1.798E-14

      iter #   6 total cpu time :   363.3 secs   av.it.:   7.5
      thresh= 1.341E-08 alpha_mix =  0.700 |ddv_scf|^2 =  6.129E-18

      iter #   7 total cpu time :   365.0 secs   av.it.:   8.6
      thresh= 2.476E-10 alpha_mix =  0.700 |ddv_scf|^2 =  1.081E-20

     End of self-consistent calculation

     Convergence has been achieved 


     Representation #  3 mode #   3

     Self-consistent Calculation

      iter #   1 total cpu time :   366.7 secs   av.it.:   5.6
      thresh= 1.000E-02 alpha_mix =  0.700 |ddv_scf|^2 =  1.344E-06

      iter #   2 total cpu time :   368.5 secs   av.it.:   8.6
      thresh= 1.159E-04 alpha_mix =  0.700 |ddv_scf|^2 =  7.854E-08

      iter #   3 total cpu time :   370.2 secs   av.it.:   8.8
      thresh= 2.803E-05 alpha_mix =  0.700 |ddv_scf|^2 =  1.244E-09

      iter #   4 total cpu time :   371.9 secs   av.it.:   8.2
      thresh= 3.526E-06 alpha_mix =  0.700 |ddv_scf|^2 =  1.128E-12

      iter #   5 total cpu time :   373.6 secs   av.it.:   8.4
      thresh= 1.062E-07 alpha_mix =  0.700 |ddv_scf|^2 =  2.248E-14

      iter #   6 total cpu time :   375.2 secs   av.it.:   7.7
      thresh= 1.499E-08 alpha_mix =  0.700 |ddv_scf|^2 =  3.401E-18

      iter #   7 total cpu time :   377.4 secs   av.it.:   9.0
      thresh= 1.844E-10 alpha_mix =  0.700 |ddv_scf|^2 =  1.823E-20

     End of self-consistent calculation

     Convergence has been achieved 
 
     Number of q in the star =   12
     List of q in the star:
          1   0.000000000  -0.400000000   0.400000000
          2  -0.400000000   0.000000000   0.400000000
          3   0.400000000   0.000000000   0.400000000
          4   0.000000000   0.400000000   0.400000000
          5   0.400000000   0.400000000   0.000000000
          6  -0.400000000   0.400000000   0.000000000
          7   0.400000000  -0.400000000   0.000000000
          8  -0.400000000  -0.400000000   0.000000000
          9  -0.400000000   0.000000000  -0.400000000
         10   0.000000000   0.400000000  -0.400000000
         11   0.000000000  -0.400000000  -0.400000000
         12   0.400000000   0.000000000  -0.400000000

     Diagonalizing the dynamical matrix

     q = (    0.000000000  -0.400000000   0.400000000 ) 

 **************************************************************************
     freq (    1) =       1.179238 [THz] =      39.335143 [cm-1]
     freq (    2) =       5.549766 [THz] =     185.120256 [cm-1]
     freq (    3) =      11.780254 [THz] =     392.946992 [cm-1]
 **************************************************************************

     Mode symmetry, C_2v (mm2)  point group:

     freq (  1 -  1) =         39.3  [cm-1]   --> B_1  D_3  S_3      
     freq (  2 -  2) =        185.1  [cm-1]   --> B_2  D_4  S_4      
     freq (  3 -  3) =        392.9  [cm-1]   --> A_1  D_1  S_1      
 
     init_run     :      2.10s CPU      2.33s WALL (       4 calls)
     electrons    :     65.63s CPU     66.55s WALL (       4 calls)

     Called by init_run:
     wfcinit      :      0.00s CPU      0.03s WALL (       4 calls)
     potinit      :      1.34s CPU      1.36s WALL (       4 calls)

     Called by electrons:
     c_bands      :     65.60s CPU     66.51s WALL (       4 calls)
     v_of_rho     :      0.20s CPU      0.21s WALL (       5 calls)
     newd         :      0.06s CPU      0.09s WALL (       5 calls)

     Called by c_bands:
     init_us_2    :      1.90s CPU      1.95s WALL (   12320 calls)
     cegterg      :     39.80s CPU     40.25s WALL (     962 calls)

     Called by sum_band:

     Called by *egterg:
     h_psi        :     37.73s CPU     38.01s WALL (   15405 calls)
     s_psi        :      2.29s CPU      2.56s WALL (  180927 calls)
     g_psi        :      0.26s CPU      0.30s WALL (   13739 calls)
     cdiaghg      :      1.79s CPU      1.91s WALL (   14443 calls)

     Called by h_psi:
     add_vuspsi   :      1.62s CPU      1.50s WALL (   93590 calls)

     General routines
     calbec       :      3.34s CPU      3.54s WALL (  200287 calls)
     fft          :      2.80s CPU      2.77s WALL (    1667 calls)
     ffts         :      0.66s CPU      0.65s WALL (    1332 calls)
     fftw         :    142.92s CPU    144.87s WALL (  479900 calls)
     interpolate  :      0.02s CPU      0.02s WALL (       8 calls)
     davcio       :      0.06s CPU      0.70s WALL (    2112 calls)
 
     Parallel routines
     fft_scatter  :      7.28s CPU      7.33s WALL (  482899 calls)
 
     PHONON       :  5m51.93s CPU     6m18.86s WALL

     INITIALIZATION: 
     phq_setup    :      0.42s CPU      1.49s WALL (       4 calls)
     phq_init     :      4.88s CPU      5.25s WALL (       4 calls)
 
     phq_init     :      4.88s CPU      5.25s WALL (       4 calls)
     init_vloc    :      0.00s CPU      0.01s WALL (       5 calls)
     init_us_1    :      0.62s CPU      0.62s WALL (       5 calls)
     newd         :      0.06s CPU      0.09s WALL (       5 calls)
     dvanqq       :      0.36s CPU      0.38s WALL (       4 calls)
     drho         :      3.69s CPU      3.73s WALL (       4 calls)
 
     DYNAMICAL MATRIX:
     dynmat0      :      0.22s CPU      0.46s WALL (       4 calls)
     phqscf       :    257.75s CPU    273.65s WALL (       4 calls)
     dynmatrix    :      0.80s CPU      0.86s WALL (       4 calls)
 
     phqscf       :    257.75s CPU    273.65s WALL (       4 calls)
     solve_linter :    257.28s CPU    271.33s WALL (      12 calls)
     drhodv       :      0.45s CPU      0.49s WALL (      12 calls)
 
     dynmat0      :      0.22s CPU      0.46s WALL (       4 calls)
     dynmat_us    :      0.21s CPU      0.22s WALL (       4 calls)
     d2ionq       :      0.01s CPU      0.01s WALL (       4 calls)
 
     dynmat_us    :      0.21s CPU      0.22s WALL (       4 calls)
     addusdynmat  :      0.00s CPU      0.00s WALL (       4 calls)
 
     phqscf       :    257.75s CPU    273.65s WALL (       4 calls)
     solve_linter :    257.28s CPU    271.33s WALL (      12 calls)
 
     solve_linter :    257.28s CPU    271.33s WALL (      12 calls)
     dvqpsi_us    :      4.82s CPU      4.87s WALL (    1056 calls)
     ortho        :      0.97s CPU      0.99s WALL (    9152 calls)
     cgsolve      :    107.73s CPU    109.09s WALL (    9152 calls)
     incdrhoscf   :     13.02s CPU     13.16s WALL (    9152 calls)
     addusddens   :      2.25s CPU      2.27s WALL (     116 calls)
     vpsifft      :     10.49s CPU     10.81s WALL (    8096 calls)
     dv_of_drho   :      3.94s CPU      3.96s WALL (     104 calls)
     mix_pot      :      0.52s CPU      0.53s WALL (     104 calls)
     psymdvscf    :      1.62s CPU      1.62s WALL (     104 calls)
     newdq        :      1.98s CPU      1.98s WALL (     104 calls)
     adddvscf     :      0.31s CPU      0.38s WALL (    8096 calls)
     drhodvus     :      0.02s CPU      0.02s WALL (      12 calls)
 
     dvqpsi_us    :      4.82s CPU      4.87s WALL (    1056 calls)
     dvqpsi_us_on :      0.28s CPU      0.22s WALL (    1056 calls)
 
     cgsolve      :    107.73s CPU    109.09s WALL (    9152 calls)
     ch_psi       :    106.30s CPU    107.63s WALL (   78185 calls)
 
     ch_psi       :    106.30s CPU    107.63s WALL (   78185 calls)
     h_psiq       :    102.25s CPU    103.62s WALL (   78185 calls)
     last         :      3.56s CPU      3.55s WALL (   78185 calls)
 
     h_psiq       :    102.25s CPU    103.62s WALL (   78185 calls)
     firstfft     :     53.00s CPU     53.78s WALL (  143137 calls)
     secondfft    :     42.60s CPU     42.90s WALL (  143137 calls)
     add_vuspsi   :      1.62s CPU      1.50s WALL (   93590 calls)
 
     incdrhoscf   :     13.02s CPU     13.16s WALL (    9152 calls)
     addusdbec    :      0.39s CPU      0.43s WALL (   10208 calls)
 
     drhodvus     :      0.02s CPU      0.02s WALL (      12 calls)
 
      General routines
     calbec       :      3.34s CPU      3.54s WALL (  200287 calls)
     fft          :      2.80s CPU      2.77s WALL (    1667 calls)
     ffts         :      0.66s CPU      0.65s WALL (    1332 calls)
     fftw         :    142.92s CPU    144.87s WALL (  479900 calls)
     cinterpolate :      0.54s CPU      0.52s WALL (     220 calls)
     davcio       :      0.06s CPU      0.70s WALL (    2112 calls)
     write_rec    :      0.24s CPU     13.56s WALL (     116 calls)
 
 
     PHONON       :  5m51.93s CPU     6m18.86s WALL

 
   This run was terminated on:  12: 1:16  19Dec2016            

=------------------------------------------------------------------------------=
   JOB DONE.
=------------------------------------------------------------------------------=
Application 24550279 resources: utime ~70097s, stime ~614s, Rss ~110736, inblocks ~55813598, outblocks ~98231967
