
     Program PWSCF v.6.1 (svn rev. 13369) starts on 12Feb2018 at 18:24: 3 

     This program is part of the open-source Quantum ESPRESSO suite
     for quantum simulation of materials; please cite
         "P. Giannozzi et al., J. Phys.:Condens. Matter 21 395502 (2009);
          URL http://www.quantum-espresso.org", 
     in publications or presentations arising from this work. More details at
     http://www.quantum-espresso.org/quote

     Parallel version (MPI), running on    64 processors
     K-points division:     npool     =       4
     R & G space division:  proc/nbgrp/npool/nimage =      16
     Waiting for input...
     Reading input from standard input

     Current dimensions of program PWSCF are:
     Max number of different atomic species (ntypx) = 10
     Max number of k-points (npk) =  80000
     Max angular momentum in pseudopotentials (lmaxx) =  3

     Subspace diagonalization in iterative solution of the eigenvalue problem:
     a serial algorithm will be used


     Parallelization info
     --------------------
     sticks:   dense  smooth     PW     G-vecs:    dense   smooth      PW
     Min         180      90     29                 4007     1420     274
     Max         181      91     30                 4009     1421     277
     Sum        2893    1447    473                64127    22723    4407



     bravais-lattice index     =           -5
     lattice parameter (alat)  =      17.0000  a.u.
     unit-cell volume          =     662.3628 (a.u.)^3
     number of atoms/cell      =            3
     number of atomic types    =            1
     number of electrons       =        27.00
     number of Kohn-Sham states=           18
     kinetic-energy cutoff     =      40.0000  Ry
     charge density cutoff     =     320.0000  Ry
     convergence threshold     =      1.0E-10
     mixing beta               =       0.7000
     number of iterations used =            8  plain     mixing
     Exchange-correlation      = SLA  PW   PBE  PBE ( 1  4  3  4 0 0)
     nstep                     =           50


     celldm(1)=  17.000000  celldm(2)=   0.000000  celldm(3)=   0.000000
     celldm(4)=   0.920000  celldm(5)=   0.000000  celldm(6)=   0.000000

     crystal axes: (cart. coord. in units of alat)
               a(1) = (   0.373182   0.656024   0.656024 )  
               a(2) = (   0.656024   0.373182   0.656024 )  
               a(3) = (   0.656024   0.656024   0.373182 )  

     reciprocal axes: (cart. coord. in units 2 pi/alat)
               b(1) = ( -2.159226  1.376308  1.376308 )  
               b(2) = (  1.376308 -2.159226  1.376308 )  
               b(3) = (  1.376308  1.376308 -2.159226 )  


     PseudoPot. # 1 for Na read from file:
     /home/s1333534/quantum_espresso/qe-6.1/pseudo/Na_pbe_v1.uspp.F.UPF
     MD5 check sum: 76a99c7e9422403d3e93cbc85ab7bccb
     Pseudo is Ultrasoft, Zval =  9.0
     Generated by new atomic code, or converted to UPF format
     Using radial grid of  819 points,  5 beta functions with: 
                l(1) =   0
                l(2) =   0
                l(3) =   1
                l(4) =   1
                l(5) =   2
     Q(r) pseudized with  8 coefficients,  rinner =    1.250   1.250   1.250
                                                       1.250   1.250

     atomic species   valence    mass     pseudopotential
        Na             9.00    22.99000     Na( 1.00)

     12 Sym. Ops., with inversion, found



   Cartesian axes

     site n.     atom                  positions (alat units)
         1           Na  tau(   1) = (   1.2171236   1.2171236   1.2171236  )
         2           Na  tau(   2) = (   0.4681063   0.4681063   0.4681063  )
         3           Na  tau(   3) = (   0.8426150   0.8426150   0.8426150  )

     number of k points=   770  Marzari-Vanderbilt smearing, width (Ry)=  0.0200

     Number of k-points >= 100: set verbosity='high' to print them.

     Dense  grid:    64127 G-vectors     FFT dimensions: ( 100, 100, 100)

     Smooth grid:    22723 G-vectors     FFT dimensions: (  72,  72,  72)

     Estimated max dynamical RAM per process >      16.43MB

     Estimated total allocated dynamical RAM >    1051.57MB

     Initial potential from superposition of free atoms

     starting charge   26.98113, renormalised to   27.00000
     Starting wfc are   15 randomized atomic wfcs +    3 random wfc

     total cpu time spent up to now is       12.1 secs

     per-process dynamical memory:    27.0 Mb

     Self-consistent Calculation

     iteration #  1     ecut=    40.00 Ry     beta=0.70
     Davidson diagonalization with overlap
     ethr =  1.00E-02,  avg # of iterations =  5.5

     Threshold (ethr) on eigenvalues was too large:
     Diagonalizing with lowered threshold

     Davidson diagonalization with overlap
     ethr =  9.94E-06,  avg # of iterations =  7.4

     total cpu time spent up to now is      102.7 secs

     total energy              =    -285.31611804 Ry
     Harris-Foulkes estimate   =    -285.31691275 Ry
     estimated scf accuracy    <       0.00278138 Ry

     iteration #  2     ecut=    40.00 Ry     beta=0.70
     Davidson diagonalization with overlap
     ethr =  1.03E-05,  avg # of iterations =  2.0

     total cpu time spent up to now is      139.0 secs

     total energy              =    -285.31642367 Ry
     Harris-Foulkes estimate   =    -285.31648847 Ry
     estimated scf accuracy    <       0.00029290 Ry

     iteration #  3     ecut=    40.00 Ry     beta=0.70
     Davidson diagonalization with overlap
     ethr =  1.08E-06,  avg # of iterations =  2.0

     total cpu time spent up to now is      176.5 secs

     total energy              =    -285.31645236 Ry
     Harris-Foulkes estimate   =    -285.31645641 Ry
     estimated scf accuracy    <       0.00001799 Ry

     iteration #  4     ecut=    40.00 Ry     beta=0.70
     Davidson diagonalization with overlap
     ethr =  6.66E-08,  avg # of iterations =  2.0

     total cpu time spent up to now is      210.5 secs

     total energy              =    -285.31645427 Ry
     Harris-Foulkes estimate   =    -285.31645415 Ry
     estimated scf accuracy    <       0.00000006 Ry

     iteration #  5     ecut=    40.00 Ry     beta=0.70
     Davidson diagonalization with overlap
     ethr =  2.37E-10,  avg # of iterations =  3.3

     total cpu time spent up to now is      250.5 secs

     total energy              =    -285.31645434 Ry
     Harris-Foulkes estimate   =    -285.31645441 Ry
     estimated scf accuracy    <       0.00000026 Ry

     iteration #  6     ecut=    40.00 Ry     beta=0.70
     Davidson diagonalization with overlap
     ethr =  2.37E-10,  avg # of iterations =  1.3

     total cpu time spent up to now is      281.4 secs

     total energy              =    -285.31645438 Ry
     Harris-Foulkes estimate   =    -285.31645438 Ry
     estimated scf accuracy    <          1.7E-09 Ry

     iteration #  7     ecut=    40.00 Ry     beta=0.70
     Davidson diagonalization with overlap
     ethr =  6.46E-12,  avg # of iterations =  2.0

     total cpu time spent up to now is      313.3 secs

     total energy              =    -285.31645438 Ry
     Harris-Foulkes estimate   =    -285.31645438 Ry
     estimated scf accuracy    <          2.5E-10 Ry

     iteration #  8     ecut=    40.00 Ry     beta=0.70
     Davidson diagonalization with overlap
     ethr =  9.24E-13,  avg # of iterations =  1.9

     total cpu time spent up to now is      345.3 secs

     End of self-consistent calculation

     Number of k-points >= 100: set verbosity='high' to print the bands.

     the Fermi energy is     2.1616 ev

!    total energy              =    -285.31645438 Ry
     Harris-Foulkes estimate   =    -285.31645438 Ry
     estimated scf accuracy    <          6.2E-13 Ry

     The total energy is the sum of the following terms:

     one-electron contribution =    -256.14327683 Ry
     hartree contribution      =     129.80226548 Ry
     xc contribution           =     -42.85565928 Ry
     ewald contribution        =    -116.11964061 Ry
     smearing contrib. (-TS)   =      -0.00014315 Ry

     convergence has been achieved in   8 iterations

     Forces acting on atoms (cartesian axes, Ry/au):

     atom    1 type  1   force =    -0.00000461   -0.00000461   -0.00000461
     atom    2 type  1   force =     0.00000461    0.00000461    0.00000461
     atom    3 type  1   force =    -0.00000000   -0.00000000    0.00000000

     Total force =     0.000011     Total SCF correction =     0.000000


     Computing stress (Cartesian axis) and pressure

          total   stress  (Ry/bohr**3)                   (kbar)     P=    9.02
   0.00006132   0.00000277   0.00000277          9.02      0.41      0.41
   0.00000277   0.00006132   0.00000277          0.41      9.02      0.41
   0.00000277   0.00000277   0.00006132          0.41      0.41      9.02


     BFGS Geometry Optimization

     number of scf cycles    =   1
     number of bfgs steps    =   0

     enthalpy new            =    -285.3029464277 Ry

     new trust radius        =       0.0052910690 bohr
     new conv_thr            =            1.0E-10 Ry

     new unit-cell volume =    664.39817 a.u.^3 (    98.45365 Ang^3 )
     density =      1.16326 g/cm^3

CELL_PARAMETERS (alat= 17.00000000)
   0.373654168   0.656766730   0.656766730
   0.656766730   0.373654168   0.656766730
   0.656766730   0.656766730   0.373654168

ATOMIC_POSITIONS (crystal)
Na       0.722229839   0.722229839   0.722229839
Na       0.277770161   0.277770161   0.277770161
Na       0.500000000   0.500000000   0.500000000



     Writing output data file na.9r.save
     NEW-OLD atomic charge density approx. for the potential
     extrapolated charge   27.08266, renormalised to   27.00000

     total cpu time spent up to now is      351.9 secs

     per-process dynamical memory:    34.9 Mb

     Self-consistent Calculation

     iteration #  1     ecut=    40.00 Ry     beta=0.70
     Davidson diagonalization with overlap
     ethr =  1.00E-06,  avg # of iterations =  3.0

     total cpu time spent up to now is      397.1 secs

     total energy              =    -285.31507203 Ry
     Harris-Foulkes estimate   =    -284.69144118 Ry
     estimated scf accuracy    <       0.00084116 Ry

     iteration #  2     ecut=    40.00 Ry     beta=0.70
     Davidson diagonalization with overlap
     ethr =  3.12E-06,  avg # of iterations =  3.0

     total cpu time spent up to now is      445.6 secs

     total energy              =    -285.31660665 Ry
     Harris-Foulkes estimate   =    -285.31722545 Ry
     estimated scf accuracy    <       0.00140994 Ry

     iteration #  3     ecut=    40.00 Ry     beta=0.70
     Davidson diagonalization with overlap
     ethr =  3.12E-06,  avg # of iterations =  2.0

     total cpu time spent up to now is      481.0 secs

     total energy              =    -285.31660401 Ry
     Harris-Foulkes estimate   =    -285.31670010 Ry
     estimated scf accuracy    <       0.00027146 Ry

     iteration #  4     ecut=    40.00 Ry     beta=0.70
     Davidson diagonalization with overlap
     ethr =  1.01E-06,  avg # of iterations =  1.0

     total cpu time spent up to now is      511.4 secs

     total energy              =    -285.31661561 Ry
     Harris-Foulkes estimate   =    -285.31661544 Ry
     estimated scf accuracy    <       0.00008761 Ry

     iteration #  5     ecut=    40.00 Ry     beta=0.70
     Davidson diagonalization with overlap
     ethr =  3.24E-07,  avg # of iterations =  1.0

     total cpu time spent up to now is      541.6 secs

     total energy              =    -285.31659344 Ry
     Harris-Foulkes estimate   =    -285.31661634 Ry
     estimated scf accuracy    <       0.00008940 Ry

     iteration #  6     ecut=    40.00 Ry     beta=0.70
     Davidson diagonalization with overlap
     ethr =  3.24E-07,  avg # of iterations =  1.0

     total cpu time spent up to now is      572.1 secs

     total energy              =    -285.31658578 Ry
     Harris-Foulkes estimate   =    -285.31659566 Ry
     estimated scf accuracy    <       0.00004174 Ry

     iteration #  7     ecut=    40.00 Ry     beta=0.70
     Davidson diagonalization with overlap
     ethr =  1.55E-07,  avg # of iterations =  1.0

     total cpu time spent up to now is      602.3 secs

     total energy              =    -285.31657677 Ry
     Harris-Foulkes estimate   =    -285.31658669 Ry
     estimated scf accuracy    <       0.00002076 Ry

     iteration #  8     ecut=    40.00 Ry     beta=0.70
     Davidson diagonalization with overlap
     ethr =  7.69E-08,  avg # of iterations =  1.0

     total cpu time spent up to now is      632.6 secs

     total energy              =    -285.31657659 Ry
     Harris-Foulkes estimate   =    -285.31657836 Ry
     estimated scf accuracy    <       0.00000316 Ry

     iteration #  9     ecut=    40.00 Ry     beta=0.70
     Davidson diagonalization with overlap
     ethr =  1.17E-08,  avg # of iterations =  2.0

     total cpu time spent up to now is      669.1 secs

     total energy              =    -285.31657720 Ry
     Harris-Foulkes estimate   =    -285.31657715 Ry
     estimated scf accuracy    <       0.00000015 Ry

     iteration # 10     ecut=    40.00 Ry     beta=0.70
     Davidson diagonalization with overlap
     ethr =  5.56E-10,  avg # of iterations =  1.0

     total cpu time spent up to now is      699.3 secs

     total energy              =    -285.31657704 Ry
     Harris-Foulkes estimate   =    -285.31657720 Ry
     estimated scf accuracy    <       0.00000025 Ry

     iteration # 11     ecut=    40.00 Ry     beta=0.70
     Davidson diagonalization with overlap
     ethr =  5.56E-10,  avg # of iterations =  2.0

     total cpu time spent up to now is      737.8 secs

     total energy              =    -285.31657709 Ry
     Harris-Foulkes estimate   =    -285.31657709 Ry
     estimated scf accuracy    <          1.7E-10 Ry

     iteration # 12     ecut=    40.00 Ry     beta=0.70
     Davidson diagonalization with overlap
     ethr =  6.19E-13,  avg # of iterations =  3.0

     total cpu time spent up to now is      779.1 secs

     total energy              =    -285.31657709 Ry
     Harris-Foulkes estimate   =    -285.31657709 Ry
     estimated scf accuracy    <          1.1E-10 Ry

     iteration # 13     ecut=    40.00 Ry     beta=0.70
     Davidson diagonalization with overlap
     ethr =  4.01E-13,  avg # of iterations =  2.0

     total cpu time spent up to now is      815.7 secs

     End of self-consistent calculation

     Number of k-points >= 100: set verbosity='high' to print the bands.

     the Fermi energy is     2.1470 ev

!    total energy              =    -285.31657709 Ry
     Harris-Foulkes estimate   =    -285.31657709 Ry
     estimated scf accuracy    <          2.7E-11 Ry

     The total energy is the sum of the following terms:

     one-electron contribution =    -256.35077987 Ry
     hartree contribution      =     129.88970596 Ry
     xc contribution           =     -42.85436609 Ry
     ewald contribution        =    -116.00099438 Ry
     smearing contrib. (-TS)   =      -0.00014271 Ry

     convergence has been achieved in  13 iterations

     Forces acting on atoms (cartesian axes, Ry/au):

     atom    1 type  1   force =    -0.00000418   -0.00000418   -0.00000418
     atom    2 type  1   force =     0.00000418    0.00000418    0.00000418
     atom    3 type  1   force =     0.00000000   -0.00000000   -0.00000000

     Total force =     0.000010     Total SCF correction =     0.000001
     SCF correction compared to forces is large: reduce conv_thr to get better values


     Computing stress (Cartesian axis) and pressure

          total   stress  (Ry/bohr**3)                   (kbar)     P=    8.62
   0.00005857   0.00000267   0.00000267          8.62      0.39      0.39
   0.00000267   0.00005857   0.00000267          0.39      8.62      0.39
   0.00000267   0.00000267   0.00005857          0.39      0.39      8.62


     number of scf cycles    =   2
     number of bfgs steps    =   1

     enthalpy old            =    -285.3029464277 Ry
     enthalpy new            =    -285.3030276230 Ry

     CASE: enthalpy_new < enthalpy_old


     WARNING: bfgs curvature condition failed, Theta= 0.856
     new trust radius        =       0.0058230414 bohr
     new conv_thr            =            1.0E-12 Ry

     new unit-cell volume =    666.64145 a.u.^3 (    98.78607 Ang^3 )
     density =      1.15935 g/cm^3

CELL_PARAMETERS (alat= 17.00000000)
   0.374176115   0.657584997   0.657584997
   0.657584997   0.374176115   0.657584997
   0.657584997   0.657584997   0.374176115

ATOMIC_POSITIONS (crystal)
Na       0.722229666   0.722229666   0.722229666
Na       0.277770334   0.277770334   0.277770334
Na       0.500000000   0.500000000   0.500000000



     Writing output data file na.9r.save
     NEW-OLD atomic charge density approx. for the potential
     extrapolated charge   27.09079, renormalised to   27.00000

     total cpu time spent up to now is      822.1 secs

     per-process dynamical memory:    35.6 Mb

     Self-consistent Calculation

     iteration #  1     ecut=    40.00 Ry     beta=0.70
     Davidson diagonalization with overlap
     ethr =  1.00E-06,  avg # of iterations =  3.0

     total cpu time spent up to now is      867.5 secs

     total energy              =    -285.31488688 Ry
     Harris-Foulkes estimate   =    -284.62935439 Ry
     estimated scf accuracy    <       0.00101646 Ry

     iteration #  2     ecut=    40.00 Ry     beta=0.70
     Davidson diagonalization with overlap
     ethr =  3.76E-06,  avg # of iterations =  3.0

     total cpu time spent up to now is      915.6 secs

     total energy              =    -285.31674164 Ry
     Harris-Foulkes estimate   =    -285.31748941 Ry
     estimated scf accuracy    <       0.00170379 Ry

     iteration #  3     ecut=    40.00 Ry     beta=0.70
     Davidson diagonalization with overlap
     ethr =  3.76E-06,  avg # of iterations =  2.0

     total cpu time spent up to now is      951.0 secs

     total energy              =    -285.31673772 Ry
     Harris-Foulkes estimate   =    -285.31685450 Ry
     estimated scf accuracy    <       0.00032817 Ry

     iteration #  4     ecut=    40.00 Ry     beta=0.70
     Davidson diagonalization with overlap
     ethr =  1.22E-06,  avg # of iterations =  1.0

     total cpu time spent up to now is      983.0 secs

     total energy              =    -285.31675296 Ry
     Harris-Foulkes estimate   =    -285.31675166 Ry
     estimated scf accuracy    <       0.00010497 Ry

     iteration #  5     ecut=    40.00 Ry     beta=0.70
     Davidson diagonalization with overlap
     ethr =  3.89E-07,  avg # of iterations =  1.0

     total cpu time spent up to now is     1012.8 secs

     total energy              =    -285.31672533 Ry
     Harris-Foulkes estimate   =    -285.31675382 Ry
     estimated scf accuracy    <       0.00010960 Ry

     iteration #  6     ecut=    40.00 Ry     beta=0.70
     Davidson diagonalization with overlap
     ethr =  3.89E-07,  avg # of iterations =  1.0

     total cpu time spent up to now is     1042.7 secs

     total energy              =    -285.31671726 Ry
     Harris-Foulkes estimate   =    -285.31672814 Ry
     estimated scf accuracy    <       0.00005040 Ry

     iteration #  7     ecut=    40.00 Ry     beta=0.70
     Davidson diagonalization with overlap
     ethr =  1.87E-07,  avg # of iterations =  1.0

     total cpu time spent up to now is     1072.7 secs

     total energy              =    -285.31670639 Ry
     Harris-Foulkes estimate   =    -285.31671823 Ry
     estimated scf accuracy    <       0.00002686 Ry

     iteration #  8     ecut=    40.00 Ry     beta=0.70
     Davidson diagonalization with overlap
     ethr =  9.95E-08,  avg # of iterations =  1.0

     total cpu time spent up to now is     1102.9 secs

     total energy              =    -285.31670507 Ry
     Harris-Foulkes estimate   =    -285.31670804 Ry
     estimated scf accuracy    <       0.00000545 Ry

     iteration #  9     ecut=    40.00 Ry     beta=0.70
     Davidson diagonalization with overlap
     ethr =  2.02E-08,  avg # of iterations =  2.0

     total cpu time spent up to now is     1138.8 secs

     total energy              =    -285.31670589 Ry
     Harris-Foulkes estimate   =    -285.31670588 Ry
     estimated scf accuracy    <       0.00000035 Ry

     iteration # 10     ecut=    40.00 Ry     beta=0.70
     Davidson diagonalization with overlap
     ethr =  1.29E-09,  avg # of iterations =  1.0

     total cpu time spent up to now is     1168.9 secs

     total energy              =    -285.31670564 Ry
     Harris-Foulkes estimate   =    -285.31670589 Ry
     estimated scf accuracy    <       0.00000037 Ry

     iteration # 11     ecut=    40.00 Ry     beta=0.70
     Davidson diagonalization with overlap
     ethr =  1.29E-09,  avg # of iterations =  2.0

     total cpu time spent up to now is     1206.6 secs

     total energy              =    -285.31670572 Ry
     Harris-Foulkes estimate   =    -285.31670572 Ry
     estimated scf accuracy    <          7.2E-10 Ry

     iteration # 12     ecut=    40.00 Ry     beta=0.70
     Davidson diagonalization with overlap
     ethr =  2.66E-12,  avg # of iterations =  2.7

     total cpu time spent up to now is     1239.8 secs

     total energy              =    -285.31670572 Ry
     Harris-Foulkes estimate   =    -285.31670572 Ry
     estimated scf accuracy    <          7.6E-10 Ry

     iteration # 13     ecut=    40.00 Ry     beta=0.70
     Davidson diagonalization with overlap
     ethr =  2.66E-12,  avg # of iterations =  1.0

     total cpu time spent up to now is     1269.7 secs

     total energy              =    -285.31670572 Ry
     Harris-Foulkes estimate   =    -285.31670572 Ry
     estimated scf accuracy    <          6.8E-10 Ry

     iteration # 14     ecut=    40.00 Ry     beta=0.70
     Davidson diagonalization with overlap
     ethr =  2.50E-12,  avg # of iterations =  1.0

     total cpu time spent up to now is     1299.9 secs

     total energy              =    -285.31670572 Ry
     Harris-Foulkes estimate   =    -285.31670572 Ry
     estimated scf accuracy    <          5.3E-10 Ry

     iteration # 15     ecut=    40.00 Ry     beta=0.70
     Davidson diagonalization with overlap
     ethr =  1.98E-12,  avg # of iterations =  2.0

     total cpu time spent up to now is     1336.1 secs

     total energy              =    -285.31670572 Ry
     Harris-Foulkes estimate   =    -285.31670572 Ry
     estimated scf accuracy    <          4.3E-10 Ry

     iteration # 16     ecut=    40.00 Ry     beta=0.70
     Davidson diagonalization with overlap
     ethr =  1.59E-12,  avg # of iterations =  1.0

     total cpu time spent up to now is     1366.4 secs

     total energy              =    -285.31670572 Ry
     Harris-Foulkes estimate   =    -285.31670572 Ry
     estimated scf accuracy    <          4.3E-10 Ry

     iteration # 17     ecut=    40.00 Ry     beta=0.70
     Davidson diagonalization with overlap
     ethr =  1.59E-12,  avg # of iterations =  1.0

     total cpu time spent up to now is     1396.6 secs

     total energy              =    -285.31670572 Ry
     Harris-Foulkes estimate   =    -285.31670572 Ry
     estimated scf accuracy    <          4.1E-10 Ry

     iteration # 18     ecut=    40.00 Ry     beta=0.70
     Davidson diagonalization with overlap
     ethr =  1.51E-12,  avg # of iterations =  2.0

     total cpu time spent up to now is     1436.3 secs

     total energy              =    -285.31670572 Ry
     Harris-Foulkes estimate   =    -285.31670572 Ry
     estimated scf accuracy    <          1.2E-09 Ry

     iteration # 19     ecut=    40.00 Ry     beta=0.70
     Davidson diagonalization with overlap
     ethr =  1.51E-12,  avg # of iterations =  2.0

     total cpu time spent up to now is     1474.4 secs

     total energy              =    -285.31670572 Ry
     Harris-Foulkes estimate   =    -285.31670572 Ry
     estimated scf accuracy    <          6.1E-11 Ry

     iteration # 20     ecut=    40.00 Ry     beta=0.70
     Davidson diagonalization with overlap
     ethr =  2.26E-13,  avg # of iterations =  2.0

     total cpu time spent up to now is     1508.3 secs

     total energy              =    -285.31670572 Ry
     Harris-Foulkes estimate   =    -285.31670572 Ry
     estimated scf accuracy    <          1.0E-11 Ry

     iteration # 21     ecut=    40.00 Ry     beta=0.70
     Davidson diagonalization with overlap
     ethr =  1.00E-13,  avg # of iterations =  2.0

     total cpu time spent up to now is     1547.8 secs

     total energy              =    -285.31670572 Ry
     Harris-Foulkes estimate   =    -285.31670572 Ry
     estimated scf accuracy    <          1.4E-11 Ry

     iteration # 22     ecut=    40.00 Ry     beta=0.70
     Davidson diagonalization with overlap
     ethr =  1.00E-13,  avg # of iterations =  1.0

     total cpu time spent up to now is     1577.8 secs

     End of self-consistent calculation

     Number of k-points >= 100: set verbosity='high' to print the bands.

     the Fermi energy is     2.1310 ev

!    total energy              =    -285.31670572 Ry
     Harris-Foulkes estimate   =    -285.31670572 Ry
     estimated scf accuracy    <          2.1E-13 Ry

     The total energy is the sum of the following terms:

     one-electron contribution =    -256.57850648 Ry
     hartree contribution      =     129.98567808 Ry
     xc contribution           =     -42.85294562 Ry
     ewald contribution        =    -115.87078949 Ry
     smearing contrib. (-TS)   =      -0.00014222 Ry

     convergence has been achieved in  22 iterations

     Forces acting on atoms (cartesian axes, Ry/au):

     atom    1 type  1   force =    -0.00000387   -0.00000387   -0.00000387
     atom    2 type  1   force =     0.00000387    0.00000387    0.00000387
     atom    3 type  1   force =     0.00000000    0.00000000    0.00000000

     Total force =     0.000009     Total SCF correction =     0.000000


     Computing stress (Cartesian axis) and pressure

          total   stress  (Ry/bohr**3)                   (kbar)     P=    8.16
   0.00005545   0.00000255   0.00000255          8.16      0.38      0.38
   0.00000255   0.00005545   0.00000255          0.38      8.16      0.38
   0.00000255   0.00000255   0.00005545          0.38      0.38      8.16


     number of scf cycles    =   3
     number of bfgs steps    =   2

     enthalpy old            =    -285.3030276230 Ry
     enthalpy new            =    -285.3031105126 Ry

     CASE: enthalpy_new < enthalpy_old

     new trust radius        =       0.0087392791 bohr
     new conv_thr            =            1.0E-12 Ry

     new unit-cell volume =    670.01463 a.u.^3 (    99.28592 Ang^3 )
     density =      1.15351 g/cm^3

CELL_PARAMETERS (alat= 17.00000000)
   0.374964218   0.658816254   0.658816254
   0.658816254   0.374964218   0.658816254
   0.658816254   0.658816254   0.374964218

ATOMIC_POSITIONS (crystal)
Na       0.722229404   0.722229404   0.722229404
Na       0.277770596   0.277770596   0.277770596
Na       0.500000000   0.500000000   0.500000000



     Writing output data file na.9r.save
     NEW-OLD atomic charge density approx. for the potential
     extrapolated charge   27.13584, renormalised to   27.00000

     total cpu time spent up to now is     1584.3 secs

     per-process dynamical memory:    35.6 Mb

     Self-consistent Calculation

     iteration #  1     ecut=    40.00 Ry     beta=0.70
     Davidson diagonalization with overlap
     ethr =  1.00E-06,  avg # of iterations =  3.0

     total cpu time spent up to now is     1630.9 secs

     total energy              =    -285.31278823 Ry
     Harris-Foulkes estimate   =    -284.28681466 Ry
     estimated scf accuracy    <       0.00228940 Ry

     iteration #  2     ecut=    40.00 Ry     beta=0.70
     Davidson diagonalization with overlap
     ethr =  8.48E-06,  avg # of iterations =  3.0

     total cpu time spent up to now is     1679.1 secs

     total energy              =    -285.31696961 Ry
     Harris-Foulkes estimate   =    -285.31865406 Ry
     estimated scf accuracy    <       0.00383819 Ry

     iteration #  3     ecut=    40.00 Ry     beta=0.70
     Davidson diagonalization with overlap
     ethr =  8.48E-06,  avg # of iterations =  2.0

     total cpu time spent up to now is     1714.7 secs

     total energy              =    -285.31695783 Ry
     Harris-Foulkes estimate   =    -285.31722297 Ry
     estimated scf accuracy    <       0.00074184 Ry

     iteration #  4     ecut=    40.00 Ry     beta=0.70
     Davidson diagonalization with overlap
     ethr =  2.75E-06,  avg # of iterations =  1.0

     total cpu time spent up to now is     1745.0 secs

     total energy              =    -285.31699398 Ry
     Harris-Foulkes estimate   =    -285.31698955 Ry
     estimated scf accuracy    <       0.00023571 Ry

     iteration #  5     ecut=    40.00 Ry     beta=0.70
     Davidson diagonalization with overlap
     ethr =  8.73E-07,  avg # of iterations =  1.0

     total cpu time spent up to now is     1775.3 secs

     total energy              =    -285.31693184 Ry
     Harris-Foulkes estimate   =    -285.31699592 Ry
     estimated scf accuracy    <       0.00024949 Ry

     iteration #  6     ecut=    40.00 Ry     beta=0.70
     Davidson diagonalization with overlap
     ethr =  8.73E-07,  avg # of iterations =  1.0

     total cpu time spent up to now is     1805.6 secs

     total energy              =    -285.31691471 Ry
     Harris-Foulkes estimate   =    -285.31693808 Ry
     estimated scf accuracy    <       0.00011610 Ry

     iteration #  7     ecut=    40.00 Ry     beta=0.70
     Davidson diagonalization with overlap
     ethr =  4.30E-07,  avg # of iterations =  1.0

     total cpu time spent up to now is     1835.8 secs

     total energy              =    -285.31688935 Ry
     Harris-Foulkes estimate   =    -285.31691670 Ry
     estimated scf accuracy    <       0.00006502 Ry

     iteration #  8     ecut=    40.00 Ry     beta=0.70
     Davidson diagonalization with overlap
     ethr =  2.41E-07,  avg # of iterations =  1.0

     total cpu time spent up to now is     1865.7 secs

     total energy              =    -285.31688471 Ry
     Harris-Foulkes estimate   =    -285.31689288 Ry
     estimated scf accuracy    <       0.00001514 Ry

     iteration #  9     ecut=    40.00 Ry     beta=0.70
     Davidson diagonalization with overlap
     ethr =  5.61E-08,  avg # of iterations =  2.0

     total cpu time spent up to now is     1902.3 secs

     total energy              =    -285.31688675 Ry
     Harris-Foulkes estimate   =    -285.31688683 Ry
     estimated scf accuracy    <       0.00000103 Ry

     iteration # 10     ecut=    40.00 Ry     beta=0.70
     Davidson diagonalization with overlap
     ethr =  3.80E-09,  avg # of iterations =  1.0

     total cpu time spent up to now is     1932.6 secs

     total energy              =    -285.31688617 Ry
     Harris-Foulkes estimate   =    -285.31688676 Ry
     estimated scf accuracy    <       0.00000086 Ry

     iteration # 11     ecut=    40.00 Ry     beta=0.70
     Davidson diagonalization with overlap
     ethr =  3.20E-09,  avg # of iterations =  2.0

     total cpu time spent up to now is     1971.5 secs

     total energy              =    -285.31688636 Ry
     Harris-Foulkes estimate   =    -285.31688636 Ry
     estimated scf accuracy    <          3.8E-09 Ry

     iteration # 12     ecut=    40.00 Ry     beta=0.70
     Davidson diagonalization with overlap
     ethr =  1.41E-11,  avg # of iterations =  2.4

     total cpu time spent up to now is     2004.0 secs

     total energy              =    -285.31688636 Ry
     Harris-Foulkes estimate   =    -285.31688636 Ry
     estimated scf accuracy    <          5.1E-09 Ry

     iteration # 13     ecut=    40.00 Ry     beta=0.70
     Davidson diagonalization with overlap
     ethr =  1.41E-11,  avg # of iterations =  1.0

     total cpu time spent up to now is     2034.1 secs

     total energy              =    -285.31688636 Ry
     Harris-Foulkes estimate   =    -285.31688636 Ry
     estimated scf accuracy    <          5.1E-09 Ry

     iteration # 14     ecut=    40.00 Ry     beta=0.70
     Davidson diagonalization with overlap
     ethr =  1.41E-11,  avg # of iterations =  1.0

     total cpu time spent up to now is     2064.4 secs

     total energy              =    -285.31688636 Ry
     Harris-Foulkes estimate   =    -285.31688636 Ry
     estimated scf accuracy    <          4.7E-09 Ry

     iteration # 15     ecut=    40.00 Ry     beta=0.70
     Davidson diagonalization with overlap
     ethr =  1.41E-11,  avg # of iterations =  2.0

     total cpu time spent up to now is     2101.0 secs

     total energy              =    -285.31688636 Ry
     Harris-Foulkes estimate   =    -285.31688636 Ry
     estimated scf accuracy    <          9.8E-10 Ry

     iteration # 16     ecut=    40.00 Ry     beta=0.70
     Davidson diagonalization with overlap
     ethr =  3.63E-12,  avg # of iterations =  1.0

     total cpu time spent up to now is     2131.2 secs

     total energy              =    -285.31688636 Ry
     Harris-Foulkes estimate   =    -285.31688636 Ry
     estimated scf accuracy    <          6.7E-10 Ry

     iteration # 17     ecut=    40.00 Ry     beta=0.70
     Davidson diagonalization with overlap
     ethr =  2.50E-12,  avg # of iterations =  1.0

     total cpu time spent up to now is     2161.2 secs

     total energy              =    -285.31688636 Ry
     Harris-Foulkes estimate   =    -285.31688636 Ry
     estimated scf accuracy    <          2.0E-10 Ry

     iteration # 18     ecut=    40.00 Ry     beta=0.70
     Davidson diagonalization with overlap
     ethr =  7.44E-13,  avg # of iterations =  1.7

     total cpu time spent up to now is     2192.4 secs

     total energy              =    -285.31688636 Ry
     Harris-Foulkes estimate   =    -285.31688636 Ry
     estimated scf accuracy    <          2.3E-11 Ry

     iteration # 19     ecut=    40.00 Ry     beta=0.70
     Davidson diagonalization with overlap
     ethr =  1.00E-13,  avg # of iterations =  2.0

     total cpu time spent up to now is     2230.7 secs

     total energy              =    -285.31688636 Ry
     Harris-Foulkes estimate   =    -285.31688636 Ry
     estimated scf accuracy    <          3.9E-11 Ry

     iteration # 20     ecut=    40.00 Ry     beta=0.70
     Davidson diagonalization with overlap
     ethr =  1.00E-13,  avg # of iterations =  1.0

     total cpu time spent up to now is     2261.0 secs

     total energy              =    -285.31688636 Ry
     Harris-Foulkes estimate   =    -285.31688636 Ry
     estimated scf accuracy    <          1.4E-11 Ry

     iteration # 21     ecut=    40.00 Ry     beta=0.70
     Davidson diagonalization with overlap
     ethr =  1.00E-13,  avg # of iterations =  1.0

     total cpu time spent up to now is     2290.9 secs

     total energy              =    -285.31688636 Ry
     Harris-Foulkes estimate   =    -285.31688636 Ry
     estimated scf accuracy    <          1.4E-12 Ry

     iteration # 22     ecut=    40.00 Ry     beta=0.70
     Davidson diagonalization with overlap
     ethr =  1.00E-13,  avg # of iterations =  1.0

     total cpu time spent up to now is     2321.0 secs

     End of self-consistent calculation

     Number of k-points >= 100: set verbosity='high' to print the bands.

     the Fermi energy is     2.1071 ev

!    total energy              =    -285.31688636 Ry
     Harris-Foulkes estimate   =    -285.31688636 Ry
     estimated scf accuracy    <          3.8E-16 Ry

     The total energy is the sum of the following terms:

     one-electron contribution =    -256.91908273 Ry
     hartree contribution      =     130.12926390 Ry
     xc contribution           =     -42.85082788 Ry
     ewald contribution        =    -115.67609816 Ry
     smearing contrib. (-TS)   =      -0.00014149 Ry

     convergence has been achieved in  22 iterations

     Forces acting on atoms (cartesian axes, Ry/au):

     atom    1 type  1   force =    -0.00000363   -0.00000363   -0.00000363
     atom    2 type  1   force =     0.00000363    0.00000363    0.00000363
     atom    3 type  1   force =     0.00000000    0.00000000    0.00000000

     Total force =     0.000009     Total SCF correction =     0.000000


     Computing stress (Cartesian axis) and pressure

          total   stress  (Ry/bohr**3)                   (kbar)     P=    7.50
   0.00005095   0.00000238   0.00000238          7.50      0.35      0.35
   0.00000238   0.00005095   0.00000238          0.35      7.50      0.35
   0.00000238   0.00000238   0.00005095          0.35      0.35      7.50


     number of scf cycles    =   4
     number of bfgs steps    =   3

     enthalpy old            =    -285.3031105126 Ry
     enthalpy new            =    -285.3032223555 Ry

     CASE: enthalpy_new < enthalpy_old

     new trust radius        =       0.0131194902 bohr
     new conv_thr            =            1.0E-12 Ry

     new unit-cell volume =    675.09371 a.u.^3 (   100.03856 Ang^3 )
     density =      1.14483 g/cm^3

CELL_PARAMETERS (alat= 17.00000000)
   0.376154498   0.660669173   0.660669173
   0.660669173   0.376154498   0.660669173
   0.660669173   0.660669173   0.376154498

ATOMIC_POSITIONS (crystal)
Na       0.722228996   0.722228996   0.722228996
Na       0.277771004   0.277771004   0.277771004
Na       0.500000000   0.500000000   0.500000000



     Writing output data file na.9r.save
     NEW-OLD atomic charge density approx. for the potential
     extrapolated charge   27.20299, renormalised to   27.00000

     total cpu time spent up to now is     2327.4 secs

     per-process dynamical memory:    35.6 Mb

     Self-consistent Calculation

     iteration #  1     ecut=    40.00 Ry     beta=0.70
     Davidson diagonalization with overlap
     ethr =  1.00E-06,  avg # of iterations =  3.1

     total cpu time spent up to now is     2375.8 secs

     total energy              =    -285.30789032 Ry
     Harris-Foulkes estimate   =    -283.77396781 Ry
     estimated scf accuracy    <       0.00515908 Ry

     iteration #  2     ecut=    40.00 Ry     beta=0.70
     Davidson diagonalization with overlap
     ethr =  1.91E-05,  avg # of iterations =  3.0

     total cpu time spent up to now is     2423.6 secs

     total energy              =    -285.31732549 Ry
     Harris-Foulkes estimate   =    -285.32112190 Ry
     estimated scf accuracy    <       0.00865089 Ry

     iteration #  3     ecut=    40.00 Ry     beta=0.70
     Davidson diagonalization with overlap
     ethr =  1.91E-05,  avg # of iterations =  2.0

     total cpu time spent up to now is     2458.9 secs

     total energy              =    -285.31729213 Ry
     Harris-Foulkes estimate   =    -285.31789349 Ry
     estimated scf accuracy    <       0.00168101 Ry

     iteration #  4     ecut=    40.00 Ry     beta=0.70
     Davidson diagonalization with overlap
     ethr =  6.23E-06,  avg # of iterations =  1.0

     total cpu time spent up to now is     2489.1 secs

     total energy              =    -285.31737261 Ry
     Harris-Foulkes estimate   =    -285.31736406 Ry
     estimated scf accuracy    <       0.00053391 Ry

     iteration #  5     ecut=    40.00 Ry     beta=0.70
     Davidson diagonalization with overlap
     ethr =  1.98E-06,  avg # of iterations =  1.0

     total cpu time spent up to now is     2519.0 secs

     total energy              =    -285.31723162 Ry
     Harris-Foulkes estimate   =    -285.31737701 Ry
     estimated scf accuracy    <       0.00056206 Ry

     iteration #  6     ecut=    40.00 Ry     beta=0.70
     Davidson diagonalization with overlap
     ethr =  1.98E-06,  avg # of iterations =  1.0

     total cpu time spent up to now is     2549.3 secs

     total energy              =    -285.31719331 Ry
     Harris-Foulkes estimate   =    -285.31724585 Ry
     estimated scf accuracy    <       0.00025997 Ry

     iteration #  7     ecut=    40.00 Ry     beta=0.70
     Davidson diagonalization with overlap
     ethr =  9.63E-07,  avg # of iterations =  1.0

     total cpu time spent up to now is     2579.5 secs

     total energy              =    -285.31713643 Ry
     Harris-Foulkes estimate   =    -285.31719781 Ry
     estimated scf accuracy    <       0.00014519 Ry

     iteration #  8     ecut=    40.00 Ry     beta=0.70
     Davidson diagonalization with overlap
     ethr =  5.38E-07,  avg # of iterations =  1.0

     total cpu time spent up to now is     2609.7 secs

     total energy              =    -285.31712516 Ry
     Harris-Foulkes estimate   =    -285.31714439 Ry
     estimated scf accuracy    <       0.00003342 Ry

     iteration #  9     ecut=    40.00 Ry     beta=0.70
     Davidson diagonalization with overlap
     ethr =  1.24E-07,  avg # of iterations =  2.0

     total cpu time spent up to now is     2646.0 secs

     total energy              =    -285.31713056 Ry
     Harris-Foulkes estimate   =    -285.31713059 Ry
     estimated scf accuracy    <       0.00000128 Ry

     iteration # 10     ecut=    40.00 Ry     beta=0.70
     Davidson diagonalization with overlap
     ethr =  4.74E-09,  avg # of iterations =  1.0

     total cpu time spent up to now is     2676.3 secs

     total energy              =    -285.31712974 Ry
     Harris-Foulkes estimate   =    -285.31713057 Ry
     estimated scf accuracy    <       0.00000122 Ry

     iteration # 11     ecut=    40.00 Ry     beta=0.70
     Davidson diagonalization with overlap
     ethr =  4.53E-09,  avg # of iterations =  2.0

     total cpu time spent up to now is     2714.6 secs

     total energy              =    -285.31713001 Ry
     Harris-Foulkes estimate   =    -285.31713001 Ry
     estimated scf accuracy    <          9.5E-09 Ry

     iteration # 12     ecut=    40.00 Ry     beta=0.70
     Davidson diagonalization with overlap
     ethr =  3.51E-11,  avg # of iterations =  2.3

     total cpu time spent up to now is     2746.8 secs

     total energy              =    -285.31713001 Ry
     Harris-Foulkes estimate   =    -285.31713001 Ry
     estimated scf accuracy    <       0.00000001 Ry

     iteration # 13     ecut=    40.00 Ry     beta=0.70
     Davidson diagonalization with overlap
     ethr =  3.51E-11,  avg # of iterations =  1.0

     total cpu time spent up to now is     2777.0 secs

     total energy              =    -285.31713001 Ry
     Harris-Foulkes estimate   =    -285.31713001 Ry
     estimated scf accuracy    <       0.00000001 Ry

     iteration # 14     ecut=    40.00 Ry     beta=0.70
     Davidson diagonalization with overlap
     ethr =  3.51E-11,  avg # of iterations =  1.0

     total cpu time spent up to now is     2807.0 secs

     total energy              =    -285.31713000 Ry
     Harris-Foulkes estimate   =    -285.31713001 Ry
     estimated scf accuracy    <       0.00000001 Ry

     iteration # 15     ecut=    40.00 Ry     beta=0.70
     Davidson diagonalization with overlap
     ethr =  3.51E-11,  avg # of iterations =  2.0

     total cpu time spent up to now is     2845.3 secs

     total energy              =    -285.31713001 Ry
     Harris-Foulkes estimate   =    -285.31713001 Ry
     estimated scf accuracy    <          3.8E-09 Ry

     iteration # 16     ecut=    40.00 Ry     beta=0.70
     Davidson diagonalization with overlap
     ethr =  1.42E-11,  avg # of iterations =  1.0

     total cpu time spent up to now is     2875.3 secs

     total energy              =    -285.31713000 Ry
     Harris-Foulkes estimate   =    -285.31713001 Ry
     estimated scf accuracy    <          3.3E-09 Ry

     iteration # 17     ecut=    40.00 Ry     beta=0.70
     Davidson diagonalization with overlap
     ethr =  1.21E-11,  avg # of iterations =  1.0

     total cpu time spent up to now is     2905.5 secs

     total energy              =    -285.31713001 Ry
     Harris-Foulkes estimate   =    -285.31713000 Ry
     estimated scf accuracy    <          2.6E-09 Ry

     iteration # 18     ecut=    40.00 Ry     beta=0.70
     Davidson diagonalization with overlap
     ethr =  9.51E-12,  avg # of iterations =  1.9

     total cpu time spent up to now is     2937.3 secs

     total energy              =    -285.31713000 Ry
     Harris-Foulkes estimate   =    -285.31713001 Ry
     estimated scf accuracy    <          2.8E-09 Ry

     iteration # 19     ecut=    40.00 Ry     beta=0.70
     Davidson diagonalization with overlap
     ethr =  9.51E-12,  avg # of iterations =  1.0

     total cpu time spent up to now is     2967.3 secs

     total energy              =    -285.31713000 Ry
     Harris-Foulkes estimate   =    -285.31713000 Ry
     estimated scf accuracy    <          3.6E-11 Ry

     iteration # 20     ecut=    40.00 Ry     beta=0.70
     Davidson diagonalization with overlap
     ethr =  1.32E-13,  avg # of iterations =  1.8

     total cpu time spent up to now is     2998.4 secs

     total energy              =    -285.31713000 Ry
     Harris-Foulkes estimate   =    -285.31713000 Ry
     estimated scf accuracy    <          2.3E-11 Ry

     iteration # 21     ecut=    40.00 Ry     beta=0.70
     Davidson diagonalization with overlap
     ethr =  1.00E-13,  avg # of iterations =  2.0

     total cpu time spent up to now is     3032.0 secs

     End of self-consistent calculation

     Number of k-points >= 100: set verbosity='high' to print the bands.

     the Fermi energy is     2.0717 ev

!    total energy              =    -285.31713000 Ry
     Harris-Foulkes estimate   =    -285.31713000 Ry
     estimated scf accuracy    <          1.1E-13 Ry

     The total energy is the sum of the following terms:

     one-electron contribution =    -257.42771431 Ry
     hartree contribution      =     130.34379154 Ry
     xc contribution           =     -42.84767168 Ry
     ewald contribution        =    -115.38539517 Ry
     smearing contrib. (-TS)   =      -0.00014039 Ry

     convergence has been achieved in  21 iterations

     Forces acting on atoms (cartesian axes, Ry/au):

     atom    1 type  1   force =    -0.00000337   -0.00000337   -0.00000337
     atom    2 type  1   force =     0.00000337    0.00000337    0.00000337
     atom    3 type  1   force =    -0.00000000    0.00000000    0.00000000

     Total force =     0.000008     Total SCF correction =     0.000000


     Computing stress (Cartesian axis) and pressure

          total   stress  (Ry/bohr**3)                   (kbar)     P=    6.53
   0.00004436   0.00000212   0.00000212          6.53      0.31      0.31
   0.00000212   0.00004436   0.00000212          0.31      6.53      0.31
   0.00000212   0.00000212   0.00004436          0.31      0.31      6.53


     number of scf cycles    =   5
     number of bfgs steps    =   4

     enthalpy old            =    -285.3032223555 Ry
     enthalpy new            =    -285.3033624212 Ry

     CASE: enthalpy_new < enthalpy_old

     new trust radius        =       0.0197029143 bohr
     new conv_thr            =            1.0E-12 Ry

     new unit-cell volume =    682.75645 a.u.^3 (   101.17407 Ang^3 )
     density =      1.13198 g/cm^3

CELL_PARAMETERS (alat= 17.00000000)
   0.377954846   0.663459616   0.663459616
   0.663459616   0.377954846   0.663459616
   0.663459616   0.663459616   0.377954846

ATOMIC_POSITIONS (crystal)
Na       0.722228350   0.722228350   0.722228350
Na       0.277771650   0.277771650   0.277771650
Na       0.500000000   0.500000000   0.500000000



     Writing output data file na.9r.save
     NEW-OLD atomic charge density approx. for the potential
     extrapolated charge   27.30282, renormalised to   27.00000

     total cpu time spent up to now is     3038.5 secs

     per-process dynamical memory:    35.6 Mb

     Self-consistent Calculation

     iteration #  1     ecut=    40.00 Ry     beta=0.70
     Davidson diagonalization with overlap
     ethr =  1.00E-06,  avg # of iterations =  3.6

     total cpu time spent up to now is     3091.3 secs

     total energy              =    -285.29657754 Ry
     Harris-Foulkes estimate   =    -283.00693015 Ry
     estimated scf accuracy    <       0.01163811 Ry

     iteration #  2     ecut=    40.00 Ry     beta=0.70
     Davidson diagonalization with overlap
     ethr =  4.31E-05,  avg # of iterations =  3.0

     total cpu time spent up to now is     3139.3 secs

     total energy              =    -285.31790292 Ry
     Harris-Foulkes estimate   =    -285.32646834 Ry
     estimated scf accuracy    <       0.01951873 Ry

     iteration #  3     ecut=    40.00 Ry     beta=0.70
     Davidson diagonalization with overlap
     ethr =  4.31E-05,  avg # of iterations =  2.0

     total cpu time spent up to now is     3174.8 secs

     total energy              =    -285.31780104 Ry
     Harris-Foulkes estimate   =    -285.31917460 Ry
     estimated scf accuracy    <       0.00382169 Ry

     iteration #  4     ecut=    40.00 Ry     beta=0.70
     Davidson diagonalization with overlap
     ethr =  1.42E-05,  avg # of iterations =  1.0

     total cpu time spent up to now is     3205.1 secs

     total energy              =    -285.31799983 Ry
     Harris-Foulkes estimate   =    -285.31796532 Ry
     estimated scf accuracy    <       0.00120716 Ry

     iteration #  5     ecut=    40.00 Ry     beta=0.70
     Davidson diagonalization with overlap
     ethr =  4.47E-06,  avg # of iterations =  1.0

     total cpu time spent up to now is     3235.1 secs

     total energy              =    -285.31769263 Ry
     Harris-Foulkes estimate   =    -285.31800974 Ry
     estimated scf accuracy    <       0.00130402 Ry

     iteration #  6     ecut=    40.00 Ry     beta=0.70
     Davidson diagonalization with overlap
     ethr =  4.47E-06,  avg # of iterations =  1.0

     total cpu time spent up to now is     3265.6 secs

     total energy              =    -285.31760722 Ry
     Harris-Foulkes estimate   =    -285.31772186 Ry
     estimated scf accuracy    <       0.00063918 Ry

     iteration #  7     ecut=    40.00 Ry     beta=0.70
     Davidson diagonalization with overlap
     ethr =  2.37E-06,  avg # of iterations =  1.0

     total cpu time spent up to now is     3295.9 secs

     total energy              =    -285.31746957 Ry
     Harris-Foulkes estimate   =    -285.31761605 Ry
     estimated scf accuracy    <       0.00038576 Ry

     iteration #  8     ecut=    40.00 Ry     beta=0.70
     Davidson diagonalization with overlap
     ethr =  1.43E-06,  avg # of iterations =  1.0

     total cpu time spent up to now is     3326.5 secs

     total energy              =    -285.31741183 Ry
     Harris-Foulkes estimate   =    -285.31748575 Ry
     estimated scf accuracy    <       0.00011408 Ry

     iteration #  9     ecut=    40.00 Ry     beta=0.70
     Davidson diagonalization with overlap
     ethr =  4.23E-07,  avg # of iterations =  2.0

     total cpu time spent up to now is     3365.1 secs

     total energy              =    -285.31743567 Ry
     Harris-Foulkes estimate   =    -285.31743559 Ry
     estimated scf accuracy    <       0.00000041 Ry

     iteration # 10     ecut=    40.00 Ry     beta=0.70
     Davidson diagonalization with overlap
     ethr =  1.50E-09,  avg # of iterations =  2.1

     total cpu time spent up to now is     3397.1 secs

     total energy              =    -285.31743539 Ry
     Harris-Foulkes estimate   =    -285.31743569 Ry
     estimated scf accuracy    <       0.00000057 Ry

     iteration # 11     ecut=    40.00 Ry     beta=0.70
     Davidson diagonalization with overlap
     ethr =  1.50E-09,  avg # of iterations =  2.0

     total cpu time spent up to now is     3435.3 secs

     total energy              =    -285.31743553 Ry
     Harris-Foulkes estimate   =    -285.31743549 Ry
     estimated scf accuracy    <       0.00000016 Ry

     iteration # 12     ecut=    40.00 Ry     beta=0.70
     Davidson diagonalization with overlap
     ethr =  5.88E-10,  avg # of iterations =  1.0

     total cpu time spent up to now is     3465.0 secs

     total energy              =    -285.31743554 Ry
     Harris-Foulkes estimate   =    -285.31743554 Ry
     estimated scf accuracy    <       0.00000031 Ry

     iteration # 13     ecut=    40.00 Ry     beta=0.70
     Davidson diagonalization with overlap
     ethr =  5.88E-10,  avg # of iterations =  1.0

     total cpu time spent up to now is     3495.0 secs

     total energy              =    -285.31743549 Ry
     Harris-Foulkes estimate   =    -285.31743554 Ry
     estimated scf accuracy    <       0.00000031 Ry

     iteration # 14     ecut=    40.00 Ry     beta=0.70
     Davidson diagonalization with overlap
     ethr =  5.88E-10,  avg # of iterations =  1.9

     total cpu time spent up to now is     3526.5 secs

     total energy              =    -285.31743540 Ry
     Harris-Foulkes estimate   =    -285.31743550 Ry
     estimated scf accuracy    <       0.00000016 Ry

     iteration # 15     ecut=    40.00 Ry     beta=0.70
     Davidson diagonalization with overlap
     ethr =  5.88E-10,  avg # of iterations =  2.0

     total cpu time spent up to now is     3564.6 secs

     total energy              =    -285.31743543 Ry
     Harris-Foulkes estimate   =    -285.31743543 Ry
     estimated scf accuracy    <          1.1E-10 Ry

     iteration # 16     ecut=    40.00 Ry     beta=0.70
     Davidson diagonalization with overlap
     ethr =  3.98E-13,  avg # of iterations =  2.1

     total cpu time spent up to now is     3603.6 secs

     total energy              =    -285.31743543 Ry
     Harris-Foulkes estimate   =    -285.31743543 Ry
     estimated scf accuracy    <          5.9E-11 Ry

     iteration # 17     ecut=    40.00 Ry     beta=0.70
     Davidson diagonalization with overlap
     ethr =  2.17E-13,  avg # of iterations =  1.0

     total cpu time spent up to now is     3633.7 secs

     total energy              =    -285.31743543 Ry
     Harris-Foulkes estimate   =    -285.31743543 Ry
     estimated scf accuracy    <          1.1E-11 Ry

     iteration # 18     ecut=    40.00 Ry     beta=0.70
     Davidson diagonalization with overlap
     ethr =  1.00E-13,  avg # of iterations =  1.0

     total cpu time spent up to now is     3663.6 secs

     End of self-consistent calculation

     Number of k-points >= 100: set verbosity='high' to print the bands.

     the Fermi energy is     2.0193 ev

!    total energy              =    -285.31743543 Ry
     Harris-Foulkes estimate   =    -285.31743543 Ry
     estimated scf accuracy    <          7.6E-13 Ry

     The total energy is the sum of the following terms:

     one-electron contribution =    -258.18576654 Ry
     hartree contribution      =     130.66373344 Ry
     xc contribution           =     -42.84298633 Ry
     ewald contribution        =    -114.95227725 Ry
     smearing contrib. (-TS)   =      -0.00013875 Ry

     convergence has been achieved in  18 iterations

     Forces acting on atoms (cartesian axes, Ry/au):

     atom    1 type  1   force =    -0.00000288   -0.00000288   -0.00000288
     atom    2 type  1   force =     0.00000288    0.00000288    0.00000288
     atom    3 type  1   force =     0.00000000   -0.00000000    0.00000000

     Total force =     0.000007     Total SCF correction =     0.000000


     Computing stress (Cartesian axis) and pressure

          total   stress  (Ry/bohr**3)                   (kbar)     P=    5.13
   0.00003486   0.00000174   0.00000174          5.13      0.26      0.26
   0.00000174   0.00003486   0.00000174          0.26      5.13      0.26
   0.00000174   0.00000174   0.00003486          0.26      0.26      5.13


     number of scf cycles    =   6
     number of bfgs steps    =   5

     enthalpy old            =    -285.3033624212 Ry
     enthalpy new            =    -285.3035115796 Ry

     CASE: enthalpy_new < enthalpy_old

     new trust radius        =       0.0296073332 bohr
     new conv_thr            =            1.0E-12 Ry

     new unit-cell volume =    694.34924 a.u.^3 (   102.89194 Ang^3 )
     density =      1.11308 g/cm^3

CELL_PARAMETERS (alat= 17.00000000)
   0.380690255   0.667671068   0.667671068
   0.667671068   0.380690255   0.667671068
   0.667671068   0.667671068   0.380690255

ATOMIC_POSITIONS (crystal)
Na       0.722227310   0.722227310   0.722227310
Na       0.277772690   0.277772690   0.277772690
Na       0.500000000   0.500000000   0.500000000



     Writing output data file na.9r.save
     NEW-OLD atomic charge density approx. for the potential
     extrapolated charge   27.45047, renormalised to   27.00000

     total cpu time spent up to now is     3670.0 secs

     per-process dynamical memory:    35.6 Mb

     Self-consistent Calculation

     iteration #  1     ecut=    40.00 Ry     beta=0.70
     Davidson diagonalization with overlap
     ethr =  1.00E-06,  avg # of iterations =  4.4

     total cpu time spent up to now is     3725.2 secs

     total energy              =    -285.27059924 Ry
     Harris-Foulkes estimate   =    -281.86194965 Ry
     estimated scf accuracy    <       0.02629248 Ry

     iteration #  2     ecut=    40.00 Ry     beta=0.70
     Davidson diagonalization with overlap
     ethr =  9.74E-05,  avg # of iterations =  3.0

     total cpu time spent up to now is     3773.3 secs

     total energy              =    -285.31890759 Ry
     Harris-Foulkes estimate   =    -285.33825925 Ry
     estimated scf accuracy    <       0.04409707 Ry

     iteration #  3     ecut=    40.00 Ry     beta=0.70
     Davidson diagonalization with overlap
     ethr =  9.74E-05,  avg # of iterations =  2.0

     total cpu time spent up to now is     3808.3 secs

     total energy              =    -285.31860241 Ry
     Harris-Foulkes estimate   =    -285.32174682 Ry
     estimated scf accuracy    <       0.00873582 Ry

     iteration #  4     ecut=    40.00 Ry     beta=0.70
     Davidson diagonalization with overlap
     ethr =  3.24E-05,  avg # of iterations =  1.0

     total cpu time spent up to now is     3838.1 secs

     total energy              =    -285.31907924 Ry
     Harris-Foulkes estimate   =    -285.31897827 Ry
     estimated scf accuracy    <       0.00276004 Ry

     iteration #  5     ecut=    40.00 Ry     beta=0.70
     Davidson diagonalization with overlap
     ethr =  1.02E-05,  avg # of iterations =  1.0

     total cpu time spent up to now is     3868.2 secs

     total energy              =    -285.31833454 Ry
     Harris-Foulkes estimate   =    -285.31910192 Ry
     estimated scf accuracy    <       0.00303003 Ry

     iteration #  6     ecut=    40.00 Ry     beta=0.70
     Davidson diagonalization with overlap
     ethr =  1.02E-05,  avg # of iterations =  1.0

     total cpu time spent up to now is     3898.1 secs

     total energy              =    -285.31817175 Ry
     Harris-Foulkes estimate   =    -285.31840700 Ry
     estimated scf accuracy    <       0.00143619 Ry

     iteration #  7     ecut=    40.00 Ry     beta=0.70
     Davidson diagonalization with overlap
     ethr =  5.32E-06,  avg # of iterations =  1.0

     total cpu time spent up to now is     3928.2 secs

     total energy              =    -285.31785986 Ry
     Harris-Foulkes estimate   =    -285.31818994 Ry
     estimated scf accuracy    <       0.00090688 Ry

     iteration #  8     ecut=    40.00 Ry     beta=0.70
     Davidson diagonalization with overlap
     ethr =  3.36E-06,  avg # of iterations =  1.0

     total cpu time spent up to now is     3958.4 secs

     total energy              =    -285.31769597 Ry
     Harris-Foulkes estimate   =    -285.31789358 Ry
     estimated scf accuracy    <       0.00029319 Ry

     iteration #  9     ecut=    40.00 Ry     beta=0.70
     Davidson diagonalization with overlap
     ethr =  1.09E-06,  avg # of iterations =  2.0

     total cpu time spent up to now is     3996.7 secs

     total energy              =    -285.31776358 Ry
     Harris-Foulkes estimate   =    -285.31776357 Ry
     estimated scf accuracy    <       0.00000136 Ry

     iteration # 10     ecut=    40.00 Ry     beta=0.70
     Davidson diagonalization with overlap
     ethr =  5.05E-09,  avg # of iterations =  1.9

     total cpu time spent up to now is     4028.0 secs

     total energy              =    -285.31776370 Ry
     Harris-Foulkes estimate   =    -285.31776364 Ry
     estimated scf accuracy    <       0.00000132 Ry

     iteration # 11     ecut=    40.00 Ry     beta=0.70
     Davidson diagonalization with overlap
     ethr =  4.90E-09,  avg # of iterations =  1.0

     total cpu time spent up to now is     4058.0 secs

     total energy              =    -285.31776423 Ry
     Harris-Foulkes estimate   =    -285.31776371 Ry
     estimated scf accuracy    <       0.00000154 Ry

     iteration # 12     ecut=    40.00 Ry     beta=0.70
     Davidson diagonalization with overlap
     ethr =  4.90E-09,  avg # of iterations =  1.0

     total cpu time spent up to now is     4088.0 secs

     total energy              =    -285.31776395 Ry
     Harris-Foulkes estimate   =    -285.31776426 Ry
     estimated scf accuracy    <       0.00000324 Ry

     iteration # 13     ecut=    40.00 Ry     beta=0.70
     Davidson diagonalization with overlap
     ethr =  4.90E-09,  avg # of iterations =  1.0

     total cpu time spent up to now is     4118.2 secs

     total energy              =    -285.31776323 Ry
     Harris-Foulkes estimate   =    -285.31776396 Ry
     estimated scf accuracy    <       0.00000231 Ry

     iteration # 14     ecut=    40.00 Ry     beta=0.70
     Davidson diagonalization with overlap
     ethr =  4.90E-09,  avg # of iterations =  1.9

     total cpu time spent up to now is     4150.0 secs

     total energy              =    -285.31776319 Ry
     Harris-Foulkes estimate   =    -285.31776327 Ry
     estimated scf accuracy    <       0.00000015 Ry

     iteration # 15     ecut=    40.00 Ry     beta=0.70
     Davidson diagonalization with overlap
     ethr =  5.73E-10,  avg # of iterations =  2.0

     total cpu time spent up to now is     4185.3 secs

     total energy              =    -285.31776320 Ry
     Harris-Foulkes estimate   =    -285.31776321 Ry
     estimated scf accuracy    <          2.6E-09 Ry

     iteration # 16     ecut=    40.00 Ry     beta=0.70
     Davidson diagonalization with overlap
     ethr =  9.66E-12,  avg # of iterations =  2.1

     total cpu time spent up to now is     4224.1 secs

     total energy              =    -285.31776321 Ry
     Harris-Foulkes estimate   =    -285.31776321 Ry
     estimated scf accuracy    <          2.3E-09 Ry

     iteration # 17     ecut=    40.00 Ry     beta=0.70
     Davidson diagonalization with overlap
     ethr =  8.56E-12,  avg # of iterations =  1.0

     total cpu time spent up to now is     4254.0 secs

     total energy              =    -285.31776321 Ry
     Harris-Foulkes estimate   =    -285.31776321 Ry
     estimated scf accuracy    <          2.3E-09 Ry

     iteration # 18     ecut=    40.00 Ry     beta=0.70
     Davidson diagonalization with overlap
     ethr =  8.42E-12,  avg # of iterations =  1.0

     total cpu time spent up to now is     4284.2 secs

     total energy              =    -285.31776321 Ry
     Harris-Foulkes estimate   =    -285.31776321 Ry
     estimated scf accuracy    <          1.9E-09 Ry

     iteration # 19     ecut=    40.00 Ry     beta=0.70
     Davidson diagonalization with overlap
     ethr =  7.06E-12,  avg # of iterations =  1.9

     total cpu time spent up to now is     4315.9 secs

     total energy              =    -285.31776321 Ry
     Harris-Foulkes estimate   =    -285.31776321 Ry
     estimated scf accuracy    <          1.4E-10 Ry

     iteration # 20     ecut=    40.00 Ry     beta=0.70
     Davidson diagonalization with overlap
     ethr =  5.31E-13,  avg # of iterations =  2.0

     total cpu time spent up to now is     4353.9 secs

     End of self-consistent calculation

     Number of k-points >= 100: set verbosity='high' to print the bands.

     the Fermi energy is     1.9422 ev

!    total energy              =    -285.31776321 Ry
     Harris-Foulkes estimate   =    -285.31776321 Ry
     estimated scf accuracy    <          3.2E-13 Ry

     The total energy is the sum of the following terms:

     one-electron contribution =    -259.31188678 Ry
     hartree contribution      =     131.13948840 Ry
     xc contribution           =     -42.83606513 Ry
     ewald contribution        =    -114.30916334 Ry
     smearing contrib. (-TS)   =      -0.00013635 Ry

     convergence has been achieved in  20 iterations

     Forces acting on atoms (cartesian axes, Ry/au):

     atom    1 type  1   force =    -0.00000221   -0.00000221   -0.00000221
     atom    2 type  1   force =     0.00000221    0.00000221    0.00000221
     atom    3 type  1   force =     0.00000000    0.00000000    0.00000000

     Total force =     0.000005     Total SCF correction =     0.000000


     Computing stress (Cartesian axis) and pressure

          total   stress  (Ry/bohr**3)                   (kbar)     P=    3.15
   0.00002142   0.00000117   0.00000117          3.15      0.17      0.17
   0.00000117   0.00002142   0.00000117          0.17      3.15      0.17
   0.00000117   0.00000117   0.00002142          0.17      0.17      3.15


     number of scf cycles    =   7
     number of bfgs steps    =   6

     enthalpy old            =    -285.3035115796 Ry
     enthalpy new            =    -285.3036029330 Ry

     CASE: enthalpy_new < enthalpy_old

     new trust radius        =       0.0027089034 bohr
     new conv_thr            =            1.0E-12 Ry

     new unit-cell volume =    695.40074 a.u.^3 (   103.04776 Ang^3 )
     density =      1.11140 g/cm^3

CELL_PARAMETERS (alat= 17.00000000)
   0.380975084   0.668080755   0.668080755
   0.668080755   0.380975084   0.668080755
   0.668080755   0.668080755   0.380975084

ATOMIC_POSITIONS (crystal)
Na       0.722227139   0.722227139   0.722227139
Na       0.277772861   0.277772861   0.277772861
Na       0.500000000   0.500000000   0.500000000



     Writing output data file na.9r.save
     NEW-OLD atomic charge density approx. for the potential
     extrapolated charge   27.04080, renormalised to   27.00000

     total cpu time spent up to now is     4360.5 secs

     per-process dynamical memory:    35.6 Mb

     Self-consistent Calculation

     iteration #  1     ecut=    40.00 Ry     beta=0.70
     Davidson diagonalization with overlap
     ethr =  1.00E-06,  avg # of iterations =  2.0

     total cpu time spent up to now is     4401.7 secs

     total energy              =    -285.31741988 Ry
     Harris-Foulkes estimate   =    -285.00536048 Ry
     estimated scf accuracy    <       0.00020425 Ry

     iteration #  2     ecut=    40.00 Ry     beta=0.70
     Davidson diagonalization with overlap
     ethr =  7.56E-07,  avg # of iterations =  3.0

     total cpu time spent up to now is     4447.0 secs

     total energy              =    -285.31779244 Ry
     Harris-Foulkes estimate   =    -285.31794270 Ry
     estimated scf accuracy    <       0.00034232 Ry

     iteration #  3     ecut=    40.00 Ry     beta=0.70
     Davidson diagonalization with overlap
     ethr =  7.56E-07,  avg # of iterations =  2.0

     total cpu time spent up to now is     4482.2 secs

     total energy              =    -285.31779209 Ry
     Harris-Foulkes estimate   =    -285.31781516 Ry
     estimated scf accuracy    <       0.00006579 Ry

     iteration #  4     ecut=    40.00 Ry     beta=0.70
     Davidson diagonalization with overlap
     ethr =  2.44E-07,  avg # of iterations =  1.0

     total cpu time spent up to now is     4512.2 secs

     total energy              =    -285.31779477 Ry
     Harris-Foulkes estimate   =    -285.31779486 Ry
     estimated scf accuracy    <       0.00002148 Ry

     iteration #  5     ecut=    40.00 Ry     beta=0.70
     Davidson diagonalization with overlap
     ethr =  7.96E-08,  avg # of iterations =  1.0

     total cpu time spent up to now is     4543.0 secs

     total energy              =    -285.31778840 Ry
     Harris-Foulkes estimate   =    -285.31779495 Ry
     estimated scf accuracy    <       0.00002164 Ry

     iteration #  6     ecut=    40.00 Ry     beta=0.70
     Davidson diagonalization with overlap
     ethr =  7.96E-08,  avg # of iterations =  1.0

     total cpu time spent up to now is     4574.9 secs

     total energy              =    -285.31778591 Ry
     Harris-Foulkes estimate   =    -285.31778914 Ry
     estimated scf accuracy    <       0.00000843 Ry

     iteration #  7     ecut=    40.00 Ry     beta=0.70
     Davidson diagonalization with overlap
     ethr =  3.12E-08,  avg # of iterations =  1.0

     total cpu time spent up to now is     4604.8 secs

     total energy              =    -285.31778503 Ry
     Harris-Foulkes estimate   =    -285.31778639 Ry
     estimated scf accuracy    <       0.00000216 Ry

     iteration #  8     ecut=    40.00 Ry     beta=0.70
     Davidson diagonalization with overlap
     ethr =  7.98E-09,  avg # of iterations =  2.0

     total cpu time spent up to now is     4642.6 secs

     total energy              =    -285.31778549 Ry
     Harris-Foulkes estimate   =    -285.31778545 Ry
     estimated scf accuracy    <       0.00000002 Ry

     iteration #  9     ecut=    40.00 Ry     beta=0.70
     Davidson diagonalization with overlap
     ethr =  8.16E-11,  avg # of iterations =  2.0

     total cpu time spent up to now is     4681.6 secs

     total energy              =    -285.31778547 Ry
     Harris-Foulkes estimate   =    -285.31778550 Ry
     estimated scf accuracy    <       0.00000015 Ry

     iteration # 10     ecut=    40.00 Ry     beta=0.70
     Davidson diagonalization with overlap
     ethr =  8.16E-11,  avg # of iterations =  2.0

     total cpu time spent up to now is     4718.0 secs

     total energy              =    -285.31778542 Ry
     Harris-Foulkes estimate   =    -285.31778547 Ry
     estimated scf accuracy    <       0.00000007 Ry

     iteration # 11     ecut=    40.00 Ry     beta=0.70
     Davidson diagonalization with overlap
     ethr =  8.16E-11,  avg # of iterations =  2.0

     total cpu time spent up to now is     4757.4 secs

     total energy              =    -285.31778544 Ry
     Harris-Foulkes estimate   =    -285.31778544 Ry
     estimated scf accuracy    <          3.7E-11 Ry

     iteration # 12     ecut=    40.00 Ry     beta=0.70
     Davidson diagonalization with overlap
     ethr =  1.35E-13,  avg # of iterations =  2.1

     total cpu time spent up to now is     4794.4 secs

     total energy              =    -285.31778544 Ry
     Harris-Foulkes estimate   =    -285.31778544 Ry
     estimated scf accuracy    <          1.0E-11 Ry

     iteration # 13     ecut=    40.00 Ry     beta=0.70
     Davidson diagonalization with overlap
     ethr =  1.00E-13,  avg # of iterations =  2.0

     total cpu time spent up to now is     4831.0 secs

     total energy              =    -285.31778544 Ry
     Harris-Foulkes estimate   =    -285.31778544 Ry
     estimated scf accuracy    <          1.2E-11 Ry

     iteration # 14     ecut=    40.00 Ry     beta=0.70
     Davidson diagonalization with overlap
     ethr =  1.00E-13,  avg # of iterations =  1.0

     total cpu time spent up to now is     4860.7 secs

     total energy              =    -285.31778544 Ry
     Harris-Foulkes estimate   =    -285.31778544 Ry
     estimated scf accuracy    <          1.3E-11 Ry

     iteration # 15     ecut=    40.00 Ry     beta=0.70
     Davidson diagonalization with overlap
     ethr =  1.00E-13,  avg # of iterations =  1.0

     total cpu time spent up to now is     4891.0 secs

     total energy              =    -285.31778544 Ry
     Harris-Foulkes estimate   =    -285.31778544 Ry
     estimated scf accuracy    <          1.0E-11 Ry

     iteration # 16     ecut=    40.00 Ry     beta=0.70
     Davidson diagonalization with overlap
     ethr =  1.00E-13,  avg # of iterations =  1.0

     total cpu time spent up to now is     4921.0 secs

     total energy              =    -285.31778544 Ry
     Harris-Foulkes estimate   =    -285.31778544 Ry
     estimated scf accuracy    <          1.4E-12 Ry

     iteration # 17     ecut=    40.00 Ry     beta=0.70
     Davidson diagonalization with overlap
     ethr =  1.00E-13,  avg # of iterations =  1.0

     total cpu time spent up to now is     4951.2 secs

     End of self-consistent calculation

     Number of k-points >= 100: set verbosity='high' to print the bands.

     the Fermi energy is     1.9354 ev

!    total energy              =    -285.31778544 Ry
     Harris-Foulkes estimate   =    -285.31778544 Ry
     estimated scf accuracy    <          8.1E-13 Ry

     The total energy is the sum of the following terms:

     one-electron contribution =    -259.41280240 Ry
     hartree contribution      =     131.18214861 Ry
     xc contribution           =     -42.83544716 Ry
     ewald contribution        =    -114.25154850 Ry
     smearing contrib. (-TS)   =      -0.00013599 Ry

     convergence has been achieved in  17 iterations

     Forces acting on atoms (cartesian axes, Ry/au):

     atom    1 type  1   force =    -0.00000223   -0.00000223   -0.00000223
     atom    2 type  1   force =     0.00000223    0.00000223    0.00000223
     atom    3 type  1   force =     0.00000000   -0.00000000    0.00000000

     Total force =     0.000005     Total SCF correction =     0.000000


     Computing stress (Cartesian axis) and pressure

          total   stress  (Ry/bohr**3)                   (kbar)     P=    2.98
   0.00002026   0.00000109   0.00000109          2.98      0.16      0.16
   0.00000109   0.00002026   0.00000109          0.16      2.98      0.16
   0.00000109   0.00000109   0.00002026          0.16      0.16      2.98


     number of scf cycles    =   8
     number of bfgs steps    =   7

     enthalpy old            =    -285.3036029330 Ry
     enthalpy new            =    -285.3036037206 Ry

     CASE: enthalpy_new < enthalpy_old

     new trust radius        =       0.0004653444 bohr
     new conv_thr            =            1.0E-12 Ry

     new unit-cell volume =    695.54188 a.u.^3 (   103.06867 Ang^3 )
     density =      1.11118 g/cm^3

CELL_PARAMETERS (alat= 17.00000000)
   0.381054375   0.668167968   0.668167968
   0.668167968   0.381054375   0.668167968
   0.668167968   0.668167968   0.381054375

ATOMIC_POSITIONS (crystal)
Na       0.722227027   0.722227027   0.722227027
Na       0.277772973   0.277772973   0.277772973
Na       0.500000000   0.500000000   0.500000000



     Writing output data file na.9r.save
     NEW-OLD atomic charge density approx. for the potential
     extrapolated charge   27.00547, renormalised to   27.00000

     total cpu time spent up to now is     4957.7 secs

     per-process dynamical memory:    35.6 Mb

     Self-consistent Calculation

     iteration #  1     ecut=    40.00 Ry     beta=0.70
     Davidson diagonalization with overlap
     ethr =  1.00E-06,  avg # of iterations =  2.0

     Threshold (ethr) on eigenvalues was too large:
     Diagonalizing with lowered threshold

     Davidson diagonalization with overlap
     ethr =  1.34E-08,  avg # of iterations =  1.0

     total cpu time spent up to now is     5025.2 secs

     total energy              =    -285.31778197 Ry
     Harris-Foulkes estimate   =    -285.27586901 Ry
     estimated scf accuracy    <       0.00000363 Ry

     iteration #  2     ecut=    40.00 Ry     beta=0.70
     Davidson diagonalization with overlap
     ethr =  1.35E-08,  avg # of iterations =  3.0

     total cpu time spent up to now is     5070.1 secs

     total energy              =    -285.31778858 Ry
     Harris-Foulkes estimate   =    -285.31779125 Ry
     estimated scf accuracy    <       0.00000609 Ry

     iteration #  3     ecut=    40.00 Ry     beta=0.70
     Davidson diagonalization with overlap
     ethr =  1.35E-08,  avg # of iterations =  2.0

     total cpu time spent up to now is     5105.2 secs

     total energy              =    -285.31778858 Ry
     Harris-Foulkes estimate   =    -285.31778899 Ry
     estimated scf accuracy    <       0.00000117 Ry

     iteration #  4     ecut=    40.00 Ry     beta=0.70
     Davidson diagonalization with overlap
     ethr =  4.32E-09,  avg # of iterations =  1.0

     total cpu time spent up to now is     5135.3 secs

     total energy              =    -285.31778861 Ry
     Harris-Foulkes estimate   =    -285.31778863 Ry
     estimated scf accuracy    <       0.00000039 Ry

     iteration #  5     ecut=    40.00 Ry     beta=0.70
     Davidson diagonalization with overlap
     ethr =  1.44E-09,  avg # of iterations =  1.0

     total cpu time spent up to now is     5165.3 secs

     total energy              =    -285.31778850 Ry
     Harris-Foulkes estimate   =    -285.31778861 Ry
     estimated scf accuracy    <       0.00000034 Ry

     iteration #  6     ecut=    40.00 Ry     beta=0.70
     Davidson diagonalization with overlap
     ethr =  1.25E-09,  avg # of iterations =  1.0

     total cpu time spent up to now is     5195.4 secs

     total energy              =    -285.31778844 Ry
     Harris-Foulkes estimate   =    -285.31778851 Ry
     estimated scf accuracy    <       0.00000012 Ry

     iteration #  7     ecut=    40.00 Ry     beta=0.70
     Davidson diagonalization with overlap
     ethr =  4.32E-10,  avg # of iterations =  2.0

     total cpu time spent up to now is     5233.3 secs

     total energy              =    -285.31778846 Ry
     Harris-Foulkes estimate   =    -285.31778846 Ry
     estimated scf accuracy    <          7.5E-10 Ry

     iteration #  8     ecut=    40.00 Ry     beta=0.70
     Davidson diagonalization with overlap
     ethr =  2.77E-12,  avg # of iterations =  2.1

     total cpu time spent up to now is     5273.1 secs

     total energy              =    -285.31778846 Ry
     Harris-Foulkes estimate   =    -285.31778846 Ry
     estimated scf accuracy    <          2.8E-11 Ry

     iteration #  9     ecut=    40.00 Ry     beta=0.70
     Davidson diagonalization with overlap
     ethr =  1.02E-13,  avg # of iterations =  1.4

     total cpu time spent up to now is     5304.2 secs

     total energy              =    -285.31778846 Ry
     Harris-Foulkes estimate   =    -285.31778846 Ry
     estimated scf accuracy    <          9.0E-12 Ry

     iteration # 10     ecut=    40.00 Ry     beta=0.70
     Davidson diagonalization with overlap
     ethr =  1.00E-13,  avg # of iterations =  2.0

     total cpu time spent up to now is     5343.8 secs

     total energy              =    -285.31778846 Ry
     Harris-Foulkes estimate   =    -285.31778846 Ry
     estimated scf accuracy    <          5.4E-11 Ry

     iteration # 11     ecut=    40.00 Ry     beta=0.70
     Davidson diagonalization with overlap
     ethr =  1.00E-13,  avg # of iterations =  2.0

     total cpu time spent up to now is     5382.1 secs

     total energy              =    -285.31778846 Ry
     Harris-Foulkes estimate   =    -285.31778846 Ry
     estimated scf accuracy    <          1.1E-12 Ry

     iteration # 12     ecut=    40.00 Ry     beta=0.70
     Davidson diagonalization with overlap
     ethr =  1.00E-13,  avg # of iterations =  1.0

     total cpu time spent up to now is     5412.2 secs

     End of self-consistent calculation

     Number of k-points >= 100: set verbosity='high' to print the bands.

     the Fermi energy is     1.9344 ev

!    total energy              =    -285.31778846 Ry
     Harris-Foulkes estimate   =    -285.31778846 Ry
     estimated scf accuracy    <          7.4E-13 Ry

     The total energy is the sum of the following terms:

[...]
     ethr =  5.46E-13,  avg # of iterations =  2.0

     total cpu time spent up to now is     6894.9 secs

     End of self-consistent calculation

     Number of k-points >= 100: set verbosity='high' to print the bands.

     the Fermi energy is     1.9337 ev

!    total energy              =    -285.31779255 Ry
     Harris-Foulkes estimate   =    -285.31779255 Ry
     estimated scf accuracy    <          3.3E-13 Ry

     The total energy is the sum of the following terms:

     one-electron contribution =    -259.43593251 Ry
     hartree contribution      =     131.19189352 Ry
     xc contribution           =     -42.83530223 Ry
     ewald contribution        =    -114.23831962 Ry
     smearing contrib. (-TS)   =      -0.00013172 Ry

     convergence has been achieved in   9 iterations

     Forces acting on atoms (cartesian axes, Ry/au):

     atom    1 type  1   force =    -0.00000039   -0.00000039   -0.00000039
     atom    2 type  1   force =     0.00000039    0.00000039    0.00000039
     atom    3 type  1   force =    -0.00000000    0.00000000   -0.00000000

     Total force =     0.000001     Total SCF correction =     0.000000


     Computing stress (Cartesian axis) and pressure

          total   stress  (Ry/bohr**3)                   (kbar)     P=    2.94
   0.00001998   0.00000024   0.00000024          2.94      0.03      0.03
   0.00000024   0.00001998   0.00000024          0.03      2.94      0.03
   0.00000024   0.00000024   0.00001998          0.03      0.03      2.94


     number of scf cycles    =  13
     number of bfgs steps    =  12

     enthalpy old            =    -285.3036052273 Ry
     enthalpy new            =    -285.3036058156 Ry

     CASE: enthalpy_new < enthalpy_old

     new trust radius        =       0.0017782537 bohr
     new conv_thr            =            1.0E-12 Ry

     new unit-cell volume =    695.44483 a.u.^3 (   103.05429 Ang^3 )
     density =      1.11133 g/cm^3

CELL_PARAMETERS (alat= 17.00000000)
   0.382337950   0.669158954   0.669158954
   0.669158954   0.382337950   0.669158954
   0.669158954   0.669158954   0.382337950

ATOMIC_POSITIONS (crystal)
Na       0.722224281   0.722224281   0.722224281
Na       0.277775719   0.277775719   0.277775719
Na       0.500000000   0.500000000   0.500000000



     Writing output data file na.9r.save
     NEW-OLD atomic charge density approx. for the potential
     extrapolated charge   26.99217, renormalised to   27.00000

     total cpu time spent up to now is     6901.3 secs

     per-process dynamical memory:    35.6 Mb

     Self-consistent Calculation

     iteration #  1     ecut=    40.00 Ry     beta=0.70
     Davidson diagonalization with overlap
     ethr =  1.00E-06,  avg # of iterations =  2.0

     Threshold (ethr) on eigenvalues was too large:
     Diagonalizing with lowered threshold

     Davidson diagonalization with overlap
     ethr =  2.71E-08,  avg # of iterations =  1.2

     total cpu time spent up to now is     6969.7 secs

     total energy              =    -285.31777537 Ry
     Harris-Foulkes estimate   =    -285.37771814 Ry
     estimated scf accuracy    <       0.00000740 Ry

     iteration #  2     ecut=    40.00 Ry     beta=0.70
     Davidson diagonalization with overlap
     ethr =  2.74E-08,  avg # of iterations =  3.0

     total cpu time spent up to now is     7015.1 secs

     total energy              =    -285.31778884 Ry
     Harris-Foulkes estimate   =    -285.31779428 Ry
     estimated scf accuracy    <       0.00001240 Ry

     iteration #  3     ecut=    40.00 Ry     beta=0.70
     Davidson diagonalization with overlap
     ethr =  2.74E-08,  avg # of iterations =  2.0

     total cpu time spent up to now is     7050.8 secs

     total energy              =    -285.31778883 Ry
     Harris-Foulkes estimate   =    -285.31778967 Ry
     estimated scf accuracy    <       0.00000237 Ry

     iteration #  4     ecut=    40.00 Ry     beta=0.70
     Davidson diagonalization with overlap
     ethr =  8.79E-09,  avg # of iterations =  1.0

     total cpu time spent up to now is     7080.9 secs

     total energy              =    -285.31778883 Ry
     Harris-Foulkes estimate   =    -285.31778893 Ry
     estimated scf accuracy    <       0.00000076 Ry

     iteration #  5     ecut=    40.00 Ry     beta=0.70
     Davidson diagonalization with overlap
     ethr =  2.80E-09,  avg # of iterations =  1.0

     total cpu time spent up to now is     7111.2 secs

     total energy              =    -285.31778856 Ry
     Harris-Foulkes estimate   =    -285.31778885 Ry
     estimated scf accuracy    <       0.00000054 Ry

     iteration #  6     ecut=    40.00 Ry     beta=0.70
     Davidson diagonalization with overlap
     ethr =  1.98E-09,  avg # of iterations =  2.0

     total cpu time spent up to now is     7146.3 secs

     total energy              =    -285.31778859 Ry
     Harris-Foulkes estimate   =    -285.31778862 Ry
     estimated scf accuracy    <       0.00000004 Ry

     iteration #  7     ecut=    40.00 Ry     beta=0.70
     Davidson diagonalization with overlap
     ethr =  1.64E-10,  avg # of iterations =  2.0

     total cpu time spent up to now is     7184.5 secs

     total energy              =    -285.31778860 Ry
     Harris-Foulkes estimate   =    -285.31778860 Ry
     estimated scf accuracy    <          1.0E-09 Ry

     iteration #  8     ecut=    40.00 Ry     beta=0.70
     Davidson diagonalization with overlap
     ethr =  3.76E-12,  avg # of iterations =  2.1

     total cpu time spent up to now is     7224.1 secs

     total energy              =    -285.31778860 Ry
     Harris-Foulkes estimate   =    -285.31778860 Ry
     estimated scf accuracy    <          3.2E-11 Ry

     iteration #  9     ecut=    40.00 Ry     beta=0.70
     Davidson diagonalization with overlap
     ethr =  1.19E-13,  avg # of iterations =  2.0

     total cpu time spent up to now is     7263.3 secs

     total energy              =    -285.31778860 Ry
     Harris-Foulkes estimate   =    -285.31778860 Ry
     estimated scf accuracy    <          3.5E-11 Ry

     iteration # 10     ecut=    40.00 Ry     beta=0.70
     Davidson diagonalization with overlap
     ethr =  1.19E-13,  avg # of iterations =  1.0

     total cpu time spent up to now is     7293.4 secs

     total energy              =    -285.31778860 Ry
     Harris-Foulkes estimate   =    -285.31778860 Ry
     estimated scf accuracy    <          1.6E-11 Ry

     iteration # 11     ecut=    40.00 Ry     beta=0.70
     Davidson diagonalization with overlap
     ethr =  1.00E-13,  avg # of iterations =  2.0

     total cpu time spent up to now is     7329.0 secs

     End of self-consistent calculation

     Number of k-points >= 100: set verbosity='high' to print the bands.

     the Fermi energy is     1.9350 ev

!    total energy              =    -285.31778860 Ry
     Harris-Foulkes estimate   =    -285.31778860 Ry
     estimated scf accuracy    <          2.0E-14 Ry

     The total energy is the sum of the following terms:

     one-electron contribution =    -259.41650893 Ry
     hartree contribution      =     131.18367166 Ry
     xc contribution           =     -42.83541991 Ry
     ewald contribution        =    -114.24940096 Ry
     smearing contrib. (-TS)   =      -0.00013046 Ry

     convergence has been achieved in  11 iterations

     Forces acting on atoms (cartesian axes, Ry/au):

     atom    1 type  1   force =     0.00000015    0.00000015    0.00000015
     atom    2 type  1   force =    -0.00000015   -0.00000015   -0.00000015
     atom    3 type  1   force =     0.00000000   -0.00000000    0.00000000

     Total force =     0.000000     Total SCF correction =     0.000000


     Computing stress (Cartesian axis) and pressure

          total   stress  (Ry/bohr**3)                   (kbar)     P=    2.97
   0.00002020  -0.00000001  -0.00000001          2.97     -0.00     -0.00
  -0.00000001   0.00002020  -0.00000001         -0.00      2.97     -0.00
  -0.00000001  -0.00000001   0.00002020         -0.00     -0.00      2.97


     bfgs converged in  14 scf cycles and  13 bfgs steps
     (criteria: energy <  1.0E-04 Ry, force <  1.0E-03Ry/Bohr, cell <  5.0E-02kbar)

     End of BFGS Geometry Optimization

     Final enthalpy =    -285.3036059839 Ry
Begin final coordinates
     new unit-cell volume =    695.44483 a.u.^3 (   103.05429 Ang^3 )
     density =      1.11133 g/cm^3

CELL_PARAMETERS (alat= 17.00000000)
   0.382337950   0.669158954   0.669158954
   0.669158954   0.382337950   0.669158954
   0.669158954   0.669158954   0.382337950

ATOMIC_POSITIONS (crystal)
Na       0.722224281   0.722224281   0.722224281
Na       0.277775719   0.277775719   0.277775719
Na       0.500000000   0.500000000   0.500000000
End final coordinates



     A final scf calculation at the relaxed structure.
     The G-vectors are recalculated for the final unit cell
     Results may differ from those at the preceding step.

     Parallelization info
     --------------------
     sticks:   dense  smooth     PW     G-vecs:    dense   smooth      PW
     Min         186      92     31                 4202     1484     284
     Max         187      93     32                 4204     1486     285
     Sum        2987    1481    503                67249    23761    4557



     bravais-lattice index     =           -5
     lattice parameter (alat)  =      17.0000  a.u.
     unit-cell volume          =     695.4448 (a.u.)^3
     number of atoms/cell      =            3
     number of atomic types    =            1
     number of electrons       =        27.00
     number of Kohn-Sham states=           18
     kinetic-energy cutoff     =      40.0000  Ry
     charge density cutoff     =     320.0000  Ry
     convergence threshold     =      1.0E-12
     mixing beta               =       0.7000
     number of iterations used =            8  plain     mixing
     Exchange-correlation      = SLA  PW   PBE  PBE ( 1  4  3  4 0 0)

     celldm(1)=  17.000000  celldm(2)=   0.000000  celldm(3)=   0.000000
     celldm(4)=   0.920000  celldm(5)=   0.000000  celldm(6)=   0.000000

     crystal axes: (cart. coord. in units of alat)
               a(1) = (   0.382338   0.669159   0.669159 )  
               a(2) = (   0.669159   0.382338   0.669159 )  
               a(3) = (   0.669159   0.669159   0.382338 )  

     reciprocal axes: (cart. coord. in units 2 pi/alat)
               b(1) = ( -2.130605  1.355890  1.355890 )  
               b(2) = (  1.355890 -2.130605  1.355890 )  
               b(3) = (  1.355890  1.355890 -2.130605 )  


     PseudoPot. # 1 for Na read from file:
     /home/s1333534/quantum_espresso/qe-6.1/pseudo/Na_pbe_v1.uspp.F.UPF
     MD5 check sum: 76a99c7e9422403d3e93cbc85ab7bccb
     Pseudo is Ultrasoft, Zval =  9.0
     Generated by new atomic code, or converted to UPF format
     Using radial grid of  819 points,  5 beta functions with: 
                l(1) =   0
                l(2) =   0
                l(3) =   1
                l(4) =   1
                l(5) =   2
     Q(r) pseudized with  8 coefficients,  rinner =    1.250   1.250   1.250
                                                       1.250   1.250

     atomic species   valence    mass     pseudopotential
        Na             9.00    22.99000     Na( 1.00)

     12 Sym. Ops., with inversion, found



   Cartesian axes

     site n.     atom                  positions (alat units)
         1           Na  tau(   1) = (   1.2426994   1.2426994   1.2426994  )
         2           Na  tau(   2) = (   0.4779564   0.4779564   0.4779564  )
         3           Na  tau(   3) = (   0.8603279   0.8603279   0.8603279  )

     number of k points=   770  Marzari-Vanderbilt smearing, width (Ry)=  0.0200

     Number of k-points >= 100: set verbosity='high' to print them.

     Dense  grid:    67249 G-vectors     FFT dimensions: ( 100, 100, 100)

     Smooth grid:    23761 G-vectors     FFT dimensions: (  72,  72,  72)

     Estimated max dynamical RAM per process >      17.01MB

     Estimated total allocated dynamical RAM >    1088.81MB

     Initial potential from superposition of free atoms

     starting charge   26.98113, renormalised to   27.00000
     Starting wfc are   15 randomized atomic wfcs +    3 random wfc

     Writing output data file na.9r.save

     total cpu time spent up to now is     7346.8 secs

     per-process dynamical memory:    34.0 Mb

     Self-consistent Calculation

     iteration #  1     ecut=    40.00 Ry     beta=0.70
     Davidson diagonalization with overlap
     c_bands:  1 eigenvalues not converged
     c_bands:  1 eigenvalues not converged
     c_bands:  1 eigenvalues not converged
     c_bands:  1 eigenvalues not converged
     c_bands:  1 eigenvalues not converged
     ethr =  1.00E-06,  avg # of iterations = 13.8

     total cpu time spent up to now is     7429.9 secs

     total energy              =    -285.31821474 Ry
     Harris-Foulkes estimate   =    -285.31901668 Ry
     estimated scf accuracy    <       0.00273519 Ry

     iteration #  2     ecut=    40.00 Ry     beta=0.70
     Davidson diagonalization with overlap
     ethr =  1.01E-05,  avg # of iterations =  2.0

     total cpu time spent up to now is     7466.4 secs

     total energy              =    -285.31854094 Ry
     Harris-Foulkes estimate   =    -285.31861784 Ry
     estimated scf accuracy    <       0.00030839 Ry

     iteration #  3     ecut=    40.00 Ry     beta=0.70
     Davidson diagonalization with overlap
     ethr =  1.14E-06,  avg # of iterations =  2.0

     total cpu time spent up to now is     7504.5 secs

     total energy              =    -285.31857286 Ry
     Harris-Foulkes estimate   =    -285.31857747 Ry
     estimated scf accuracy    <       0.00001969 Ry

     iteration #  4     ecut=    40.00 Ry     beta=0.70
     Davidson diagonalization with overlap
     ethr =  7.29E-08,  avg # of iterations =  1.6

     total cpu time spent up to now is     7535.7 secs

     total energy              =    -285.31857447 Ry
     Harris-Foulkes estimate   =    -285.31857492 Ry
     estimated scf accuracy    <       0.00000156 Ry

     iteration #  5     ecut=    40.00 Ry     beta=0.70
     Davidson diagonalization with overlap
     ethr =  5.77E-09,  avg # of iterations =  2.0

     total cpu time spent up to now is     7570.7 secs

     total energy              =    -285.31857493 Ry
     Harris-Foulkes estimate   =    -285.31857494 Ry
     estimated scf accuracy    <       0.00000014 Ry

     iteration #  6     ecut=    40.00 Ry     beta=0.70
     Davidson diagonalization with overlap
     ethr =  5.21E-10,  avg # of iterations =  1.9

     total cpu time spent up to now is     7603.7 secs

     total energy              =    -285.31857495 Ry
     Harris-Foulkes estimate   =    -285.31857495 Ry
     estimated scf accuracy    <          1.3E-09 Ry

     iteration #  7     ecut=    40.00 Ry     beta=0.70
     Davidson diagonalization with overlap
     ethr =  4.69E-12,  avg # of iterations =  2.8

     total cpu time spent up to now is     7643.6 secs

     total energy              =    -285.31857495 Ry
     Harris-Foulkes estimate   =    -285.31857495 Ry
     estimated scf accuracy    <          2.5E-11 Ry

     iteration #  8     ecut=    40.00 Ry     beta=0.70
     Davidson diagonalization with overlap
     ethr =  1.00E-13,  avg # of iterations =  2.1

     total cpu time spent up to now is     7676.2 secs

     total energy              =    -285.31857495 Ry
     Harris-Foulkes estimate   =    -285.31857495 Ry
     estimated scf accuracy    <          4.5E-12 Ry

     iteration #  9     ecut=    40.00 Ry     beta=0.70
     Davidson diagonalization with overlap
     ethr =  1.00E-13,  avg # of iterations =  1.0

     total cpu time spent up to now is     7706.5 secs

     End of self-consistent calculation

     Number of k-points >= 100: set verbosity='high' to print the bands.

     the Fermi energy is     1.9354 ev

!    total energy              =    -285.31857495 Ry
     Harris-Foulkes estimate   =    -285.31857495 Ry
     estimated scf accuracy    <          1.0E-13 Ry

     The total energy is the sum of the following terms:

     one-electron contribution =    -259.41745663 Ry
     hartree contribution      =     131.18404909 Ry
     xc contribution           =     -42.83563597 Ry
     ewald contribution        =    -114.24940096 Ry
     smearing contrib. (-TS)   =      -0.00013048 Ry

     convergence has been achieved in   9 iterations

     Forces acting on atoms (cartesian axes, Ry/au):

     atom    1 type  1   force =     0.00000036    0.00000036    0.00000036
     atom    2 type  1   force =    -0.00000036   -0.00000036   -0.00000036
     atom    3 type  1   force =     0.00000000    0.00000000    0.00000000

     Total force =     0.000001     Total SCF correction =     0.000002
     SCF correction compared to forces is large: reduce conv_thr to get better values


     Computing stress (Cartesian axis) and pressure

          total   stress  (Ry/bohr**3)                   (kbar)     P=    3.78
   0.00002569   0.00000033   0.00000033          3.78      0.05      0.05
   0.00000033   0.00002569   0.00000033          0.05      3.78      0.05
   0.00000033   0.00000033   0.00002569          0.05      0.05      3.78


     Writing output data file na.9r.save

     init_run     :     23.36s CPU     23.72s WALL (       2 calls)
     electrons    :   7521.07s CPU   7594.02s WALL (      15 calls)
     update_pot   :      8.76s CPU      9.23s WALL (      13 calls)
     forces       :      9.78s CPU      9.86s WALL (      15 calls)
     stress       :     28.71s CPU     28.86s WALL (      15 calls)

     Called by init_run:
     wfcinit      :     21.55s CPU     21.81s WALL (       2 calls)
     potinit      :      0.56s CPU      0.58s WALL (       2 calls)

     Called by electrons:
     c_bands      :   6200.82s CPU   6260.03s WALL (     217 calls)
     sum_band     :   1277.07s CPU   1288.87s WALL (     217 calls)
     v_of_rho     :     29.08s CPU     30.03s WALL (     225 calls)
     newd         :      8.61s CPU      8.73s WALL (     225 calls)
     mix_rho      :      2.62s CPU      2.82s WALL (     217 calls)

     Called by c_bands:
     init_us_2    :     25.53s CPU     25.92s WALL (   89938 calls)
     cegterg      :   5894.67s CPU   5951.61s WALL (   41881 calls)

     Called by sum_band:
     sum_band:bec :      1.80s CPU      1.84s WALL (   41881 calls)
     addusdens    :      8.84s CPU      8.98s WALL (     217 calls)

     Called by *egterg:
     h_psi        :   5561.32s CPU   5612.84s WALL (  117309 calls)
     s_psi        :     21.84s CPU     22.65s WALL (  117309 calls)
     g_psi        :      3.35s CPU      3.40s WALL (   75042 calls)
     cdiaghg      :    185.59s CPU    187.26s WALL (  113063 calls)

     Called by h_psi:
     h_psi:pot    :   5557.02s CPU   5608.35s WALL (  117309 calls)
     h_psi:calbec :     48.39s CPU     49.64s WALL (  117309 calls)
     vloc_psi     :   5483.79s CPU   5533.19s WALL (  117309 calls)
     add_vuspsi   :     23.47s CPU     24.21s WALL (  117309 calls)

     General routines
     calbec       :     72.41s CPU     73.88s WALL (  173665 calls)
     fft          :     18.03s CPU     19.57s WALL (    3701 calls)
     ffts         :      0.75s CPU      0.84s WALL (     442 calls)
     fftw         :   5745.96s CPU   5797.33s WALL ( 4353586 calls)
     interpolate  :      2.98s CPU      3.25s WALL (     442 calls)
     davcio       :      0.01s CPU      0.25s WALL (     386 calls)

     Parallel routines
     fft_scatter  :   1260.72s CPU   1276.95s WALL ( 4357729 calls)

     PWSCF        :     2h 7m CPU        2h 8m WALL


   This run was terminated on:  20:32:36  12Feb2018            

=------------------------------------------------------------------------------=
   JOB DONE.
=------------------------------------------------------------------------------=
