
     Program PWSCF v.6.1 (svn rev. 13369) starts on  7Mar2018 at 11:44:20 

     This program is part of the open-source Quantum ESPRESSO suite
     for quantum simulation of materials; please cite
         "P. Giannozzi et al., J. Phys.:Condens. Matter 21 395502 (2009);
          URL http://www.quantum-espresso.org", 
     in publications or presentations arising from this work. More details at
     http://www.quantum-espresso.org/quote

     Parallel version (MPI), running on    64 processors
     K-points division:     npool     =       4
     R & G space division:  proc/nbgrp/npool/nimage =      16
     Waiting for input...
     Reading input from standard input

     Current dimensions of program PWSCF are:
     Max number of different atomic species (ntypx) = 10
     Max number of k-points (npk) =  80000
     Max angular momentum in pseudopotentials (lmaxx) =  3

     Subspace diagonalization in iterative solution of the eigenvalue problem:
     a serial algorithm will be used


     Parallelization info
     --------------------
     sticks:   dense  smooth     PW     G-vecs:    dense   smooth      PW
     Min         188      93     31                 4262     1497     287
     Max         189      95     32                 4263     1498     288
     Sum        3011    1497    507                68197    23967    4605



     bravais-lattice index     =            0
     lattice parameter (alat)  =      17.0000  a.u.
     unit-cell volume          =     705.1500 (a.u.)^3
     number of atoms/cell      =            3
     number of atomic types    =            1
     number of electrons       =        27.00
     number of Kohn-Sham states=           18
     kinetic-energy cutoff     =      40.0000  Ry
     charge density cutoff     =     320.0000  Ry
     convergence threshold     =      1.0E-10
     mixing beta               =       0.7000
     number of iterations used =            8  plain     mixing
     Exchange-correlation      = SLA  PW   PBE  PBE ( 1  4  3  4 0 0)
     nstep                     =           50


     celldm(1)=  17.000000  celldm(2)=   0.000000  celldm(3)=   0.000000
     celldm(4)=   0.000000  celldm(5)=   0.000000  celldm(6)=   0.000000

     crystal axes: (cart. coord. in units of alat)
               a(1) = (   0.383910   0.672101   0.672101 )  
               a(2) = (   0.672101   0.383910   0.672101 )  
               a(3) = (   0.672101   0.672101   0.383910 )  

     reciprocal axes: (cart. coord. in units 2 pi/alat)
               b(1) = ( -2.120387  1.349526  1.349526 )  
               b(2) = (  1.349526 -2.120387  1.349526 )  
               b(3) = (  1.349526  1.349526 -2.120387 )  


     PseudoPot. # 1 for Na read from file:
     /home/s1333534/quantum_espresso/qe-6.1/pseudo/Na_pbe_v1.uspp.F.UPF
     MD5 check sum: 76a99c7e9422403d3e93cbc85ab7bccb
     Pseudo is Ultrasoft, Zval =  9.0
     Generated by new atomic code, or converted to UPF format
     Using radial grid of  819 points,  5 beta functions with: 
                l(1) =   0
                l(2) =   0
                l(3) =   1
                l(4) =   1
                l(5) =   2
     Q(r) pseudized with  8 coefficients,  rinner =    1.250   1.250   1.250
                                                       1.250   1.250

     atomic species   valence    mass     pseudopotential
        Na             9.00    22.99000     Na( 1.00)

     12 Sym. Ops., with inversion, found



   Cartesian axes

     site n.     atom                  positions (alat units)
         1           Na  tau(   1) = (   1.2480830   1.2480830   1.2480830  )
         2           Na  tau(   2) = (   0.4800291   0.4800291   0.4800291  )
         3           Na  tau(   3) = (   0.8640561   0.8640561   0.8640561  )

     number of k points=   770  Marzari-Vanderbilt smearing, width (Ry)=  0.0200

     Number of k-points >= 100: set verbosity='high' to print them.

     Dense  grid:    68197 G-vectors     FFT dimensions: ( 100, 100, 100)

     Smooth grid:    23967 G-vectors     FFT dimensions: (  72,  72,  72)

     Estimated max dynamical RAM per process >      17.20MB

     Estimated total allocated dynamical RAM >    1101.07MB

     Initial potential from superposition of free atoms

     starting charge   26.98113, renormalised to   27.00000
     Starting wfc are   15 randomized atomic wfcs +    3 random wfc

     total cpu time spent up to now is       12.5 secs

     per-process dynamical memory:    27.4 Mb

     Self-consistent Calculation

     iteration #  1     ecut=    40.00 Ry     beta=0.70
     Davidson diagonalization with overlap
     ethr =  1.00E-02,  avg # of iterations =  5.6

     Threshold (ethr) on eigenvalues was too large:
     Diagonalizing with lowered threshold

     Davidson diagonalization with overlap
     ethr =  9.42E-06,  avg # of iterations =  7.5

     total cpu time spent up to now is      105.7 secs

     total energy              =    -285.31866403 Ry
     Harris-Foulkes estimate   =    -285.31935857 Ry
     estimated scf accuracy    <       0.00266251 Ry

     iteration #  2     ecut=    40.00 Ry     beta=0.70
     Davidson diagonalization with overlap
     ethr =  9.86E-06,  avg # of iterations =  2.0

     total cpu time spent up to now is      142.5 secs

     total energy              =    -285.31894843 Ry
     Harris-Foulkes estimate   =    -285.31900732 Ry
     estimated scf accuracy    <       0.00027977 Ry

     iteration #  3     ecut=    40.00 Ry     beta=0.70
     Davidson diagonalization with overlap
     ethr =  1.04E-06,  avg # of iterations =  2.0

     total cpu time spent up to now is      180.9 secs

     total energy              =    -285.31897549 Ry
     Harris-Foulkes estimate   =    -285.31897956 Ry
     estimated scf accuracy    <       0.00001758 Ry

     iteration #  4     ecut=    40.00 Ry     beta=0.70
     Davidson diagonalization with overlap
     ethr =  6.51E-08,  avg # of iterations =  2.0

     total cpu time spent up to now is      215.4 secs

     total energy              =    -285.31897713 Ry
     Harris-Foulkes estimate   =    -285.31897776 Ry
     estimated scf accuracy    <       0.00000216 Ry

     iteration #  5     ecut=    40.00 Ry     beta=0.70
     Davidson diagonalization with overlap
     ethr =  7.99E-09,  avg # of iterations =  1.4

     total cpu time spent up to now is      246.9 secs

     total energy              =    -285.31897760 Ry
     Harris-Foulkes estimate   =    -285.31897761 Ry
     estimated scf accuracy    <       0.00000012 Ry

     iteration #  6     ecut=    40.00 Ry     beta=0.70
     Davidson diagonalization with overlap
     ethr =  4.31E-10,  avg # of iterations =  2.2

     total cpu time spent up to now is      281.7 secs

     total energy              =    -285.31897763 Ry
     Harris-Foulkes estimate   =    -285.31897763 Ry
     estimated scf accuracy    <          1.4E-09 Ry

     iteration #  7     ecut=    40.00 Ry     beta=0.70
     Davidson diagonalization with overlap
     ethr =  5.16E-12,  avg # of iterations =  2.5

     total cpu time spent up to now is      322.5 secs

     End of self-consistent calculation

     Number of k-points >= 100: set verbosity='high' to print the bands.

     the Fermi energy is     1.8733 ev

!    total energy              =    -285.31897763 Ry
     Harris-Foulkes estimate   =    -285.31897763 Ry
     estimated scf accuracy    <          8.3E-11 Ry

     The total energy is the sum of the following terms:

     one-electron contribution =    -260.34029891 Ry
     hartree contribution      =     131.57430947 Ry
     xc contribution           =     -42.83004827 Ry
     ewald contribution        =    -113.72280832 Ry
     smearing contrib. (-TS)   =      -0.00013160 Ry

     convergence has been achieved in   7 iterations

     Forces acting on atoms (cartesian axes, Ry/au):

     atom    1 type  1   force =    -0.00000658   -0.00000658   -0.00000658
     atom    2 type  1   force =     0.00000658    0.00000658    0.00000658
     atom    3 type  1   force =     0.00000000   -0.00000000    0.00000000

     Total force =     0.000016     Total SCF correction =     0.000014
     SCF correction compared to forces is large: reduce conv_thr to get better values


     Computing stress (Cartesian axis) and pressure

          total   stress  (Ry/bohr**3)                   (kbar)     P=    2.42
   0.00001644   0.00000043   0.00000043          2.42      0.06      0.06
   0.00000043   0.00001644   0.00000043          0.06      2.42      0.06
   0.00000043   0.00000043   0.00001644          0.06      0.06      2.42


     BFGS Geometry Optimization

     number of scf cycles    =   1
     number of bfgs steps    =   0

     enthalpy new            =    -285.3117873574 Ry

     new trust radius        =       0.0008325467 bohr
     new conv_thr            =            1.0E-10 Ry

     new unit-cell volume =    705.48014 a.u.^3 (   104.54137 Ang^3 )
     density =      1.09552 g/cm^3

CELL_PARAMETERS (alat= 17.00000000)
   0.383983825   0.672217387   0.672217387
   0.672217387   0.383983825   0.672217387
   0.672217387   0.672217387   0.383983825

ATOMIC_POSITIONS (crystal)
Na       0.722223178   0.722223178   0.722223178
Na       0.277776822   0.277776822   0.277776822
Na       0.500000000   0.500000000   0.500000000



     Writing output data file na.9r.save
     NEW-OLD atomic charge density approx. for the potential
     extrapolated charge   27.01263, renormalised to   27.00000

     total cpu time spent up to now is      329.4 secs

     per-process dynamical memory:    35.3 Mb

     Self-consistent Calculation

     iteration #  1     ecut=    40.00 Ry     beta=0.70
     Davidson diagonalization with overlap
     ethr =  1.00E-06,  avg # of iterations =  2.0

     Threshold (ethr) on eigenvalues was too large:
     Diagonalizing with lowered threshold

     Davidson diagonalization with overlap
     ethr =  7.21E-08,  avg # of iterations =  1.0

     total cpu time spent up to now is      399.3 secs

     total energy              =    -285.31894815 Ry
     Harris-Foulkes estimate   =    -285.22192684 Ry
     estimated scf accuracy    <       0.00001950 Ry

     iteration #  2     ecut=    40.00 Ry     beta=0.70
     Davidson diagonalization with overlap
     ethr =  7.22E-08,  avg # of iterations =  3.0

     total cpu time spent up to now is      445.8 secs

     total energy              =    -285.31898375 Ry
     Harris-Foulkes estimate   =    -285.31899811 Ry
     estimated scf accuracy    <       0.00003273 Ry

     iteration #  3     ecut=    40.00 Ry     beta=0.70
     Davidson diagonalization with overlap
     ethr =  7.22E-08,  avg # of iterations =  2.0

     total cpu time spent up to now is      482.2 secs

     total energy              =    -285.31898373 Ry
     Harris-Foulkes estimate   =    -285.31898593 Ry
     estimated scf accuracy    <       0.00000628 Ry

     iteration #  4     ecut=    40.00 Ry     beta=0.70
     Davidson diagonalization with overlap
     ethr =  2.33E-08,  avg # of iterations =  1.0

     total cpu time spent up to now is      513.0 secs

     total energy              =    -285.31898388 Ry
     Harris-Foulkes estimate   =    -285.31898399 Ry
     estimated scf accuracy    <       0.00000207 Ry

     iteration #  5     ecut=    40.00 Ry     beta=0.70
     Davidson diagonalization with overlap
     ethr =  7.65E-09,  avg # of iterations =  1.0

     total cpu time spent up to now is      544.0 secs

     total energy              =    -285.31898337 Ry
     Harris-Foulkes estimate   =    -285.31898390 Ry
     estimated scf accuracy    <       0.00000182 Ry

     iteration #  6     ecut=    40.00 Ry     beta=0.70
     Davidson diagonalization with overlap
     ethr =  6.72E-09,  avg # of iterations =  1.0

     total cpu time spent up to now is      574.4 secs

     total energy              =    -285.31898304 Ry
     Harris-Foulkes estimate   =    -285.31898342 Ry
     estimated scf accuracy    <       0.00000075 Ry

     iteration #  7     ecut=    40.00 Ry     beta=0.70
     Davidson diagonalization with overlap
     ethr =  2.79E-09,  avg # of iterations =  2.0

     total cpu time spent up to now is      610.4 secs

     total energy              =    -285.31898307 Ry
     Harris-Foulkes estimate   =    -285.31898312 Ry
     estimated scf accuracy    <       0.00000008 Ry

     iteration #  8     ecut=    40.00 Ry     beta=0.70
     Davidson diagonalization with overlap
     ethr =  2.88E-10,  avg # of iterations =  2.0

     total cpu time spent up to now is      649.1 secs

     total energy              =    -285.31898309 Ry
     Harris-Foulkes estimate   =    -285.31898309 Ry
     estimated scf accuracy    <          2.2E-10 Ry

     iteration #  9     ecut=    40.00 Ry     beta=0.70
     Davidson diagonalization with overlap
     ethr =  8.00E-13,  avg # of iterations =  3.0

     total cpu time spent up to now is      696.6 secs

     total energy              =    -285.31898309 Ry
     Harris-Foulkes estimate   =    -285.31898309 Ry
     estimated scf accuracy    <          3.0E-09 Ry

     iteration # 10     ecut=    40.00 Ry     beta=0.70
     Davidson diagonalization with overlap
     ethr =  8.00E-13,  avg # of iterations =  2.0

     total cpu time spent up to now is      734.4 secs

     total energy              =    -285.31898309 Ry
     Harris-Foulkes estimate   =    -285.31898309 Ry
     estimated scf accuracy    <          1.8E-09 Ry

     iteration # 11     ecut=    40.00 Ry     beta=0.70
     Davidson diagonalization with overlap
     ethr =  8.00E-13,  avg # of iterations =  3.0

     total cpu time spent up to now is      780.6 secs

     End of self-consistent calculation

     Number of k-points >= 100: set verbosity='high' to print the bands.

     the Fermi energy is     1.8712 ev

!    total energy              =    -285.31898309 Ry
     Harris-Foulkes estimate   =    -285.31898309 Ry
     estimated scf accuracy    <          4.8E-12 Ry

     The total energy is the sum of the following terms:

     one-electron contribution =    -260.37143702 Ry
     hartree contribution      =     131.58752301 Ry
     xc contribution           =     -42.82986949 Ry
     ewald contribution        =    -113.70506803 Ry
     smearing contrib. (-TS)   =      -0.00013155 Ry

     convergence has been achieved in  11 iterations

     Forces acting on atoms (cartesian axes, Ry/au):

     atom    1 type  1   force =    -0.00000311   -0.00000311   -0.00000311
     atom    2 type  1   force =     0.00000311    0.00000311    0.00000311
     atom    3 type  1   force =     0.00000000    0.00000000    0.00000000

     Total force =     0.000008     Total SCF correction =     0.000000


     Computing stress (Cartesian axis) and pressure

          total   stress  (Ry/bohr**3)                   (kbar)     P=    2.40
   0.00001629   0.00000041   0.00000041          2.40      0.06      0.06
   0.00000041   0.00001629   0.00000041          0.06      2.40      0.06
   0.00000041   0.00000041   0.00001629          0.06      0.06      2.40


     number of scf cycles    =   2
     number of bfgs steps    =   1

     enthalpy old            =    -285.3117873574 Ry
     enthalpy new            =    -285.3117894510 Ry

     CASE: enthalpy_new < enthalpy_old


     WARNING: bfgs curvature condition failed, Theta= 0.819
     new trust radius        =       0.0009158700 bohr
     new conv_thr            =            1.0E-12 Ry

     new unit-cell volume =    705.84342 a.u.^3 (   104.59520 Ang^3 )
     density =      1.09496 g/cm^3

CELL_PARAMETERS (alat= 17.00000000)
   0.384065435   0.672345094   0.672345094
   0.672345094   0.384065435   0.672345094
   0.672345094   0.672345094   0.384065435

ATOMIC_POSITIONS (crystal)
Na       0.722222976   0.722222976   0.722222976
Na       0.277777024   0.277777024   0.277777024
Na       0.500000000   0.500000000   0.500000000



     Writing output data file na.9r.save
     NEW-OLD atomic charge density approx. for the potential
     extrapolated charge   27.01389, renormalised to   27.00000

     total cpu time spent up to now is      787.8 secs

     per-process dynamical memory:    35.5 Mb

     Self-consistent Calculation

     iteration #  1     ecut=    40.00 Ry     beta=0.70
     Davidson diagonalization with overlap
     ethr =  1.00E-06,  avg # of iterations =  2.0

     Threshold (ethr) on eigenvalues was too large:
     Diagonalizing with lowered threshold

     Davidson diagonalization with overlap
     ethr =  8.75E-08,  avg # of iterations =  1.0

     total cpu time spent up to now is      857.9 secs

     total energy              =    -285.31894664 Ry
     Harris-Foulkes estimate   =    -285.21222889 Ry
     estimated scf accuracy    <       0.00002366 Ry

     iteration #  2     ecut=    40.00 Ry     beta=0.70
     Davidson diagonalization with overlap
     ethr =  8.76E-08,  avg # of iterations =  3.0

     total cpu time spent up to now is      904.2 secs

     total energy              =    -285.31898975 Ry
     Harris-Foulkes estimate   =    -285.31900715 Ry
     estimated scf accuracy    <       0.00003963 Ry

     iteration #  3     ecut=    40.00 Ry     beta=0.70
     Davidson diagonalization with overlap
     ethr =  8.76E-08,  avg # of iterations =  2.0

     total cpu time spent up to now is      940.4 secs

     total energy              =    -285.31898971 Ry
     Harris-Foulkes estimate   =    -285.31899239 Ry
     estimated scf accuracy    <       0.00000760 Ry

     iteration #  4     ecut=    40.00 Ry     beta=0.70
     Davidson diagonalization with overlap
     ethr =  2.81E-08,  avg # of iterations =  1.0

     total cpu time spent up to now is      971.7 secs

     total energy              =    -285.31898999 Ry
     Harris-Foulkes estimate   =    -285.31899004 Ry
     estimated scf accuracy    <       0.00000246 Ry

     iteration #  5     ecut=    40.00 Ry     beta=0.70
     Davidson diagonalization with overlap
     ethr =  9.11E-09,  avg # of iterations =  1.0

     total cpu time spent up to now is     1002.7 secs

     total energy              =    -285.31898929 Ry
     Harris-Foulkes estimate   =    -285.31899002 Ry
     estimated scf accuracy    <       0.00000240 Ry

     iteration #  6     ecut=    40.00 Ry     beta=0.70
     Davidson diagonalization with overlap
     ethr =  8.90E-09,  avg # of iterations =  1.0

     total cpu time spent up to now is     1033.7 secs

     total energy              =    -285.31898907 Ry
     Harris-Foulkes estimate   =    -285.31898937 Ry
     estimated scf accuracy    <       0.00000094 Ry

     iteration #  7     ecut=    40.00 Ry     beta=0.70
     Davidson diagonalization with overlap
     ethr =  3.47E-09,  avg # of iterations =  1.0

     total cpu time spent up to now is     1064.3 secs

     total energy              =    -285.31898891 Ry
     Harris-Foulkes estimate   =    -285.31898911 Ry
     estimated scf accuracy    <       0.00000033 Ry

     iteration #  8     ecut=    40.00 Ry     beta=0.70
     Davidson diagonalization with overlap
     ethr =  1.24E-09,  avg # of iterations =  2.0

     total cpu time spent up to now is     1101.8 secs

     total energy              =    -285.31898896 Ry
     Harris-Foulkes estimate   =    -285.31898896 Ry
     estimated scf accuracy    <          9.0E-09 Ry

     iteration #  9     ecut=    40.00 Ry     beta=0.70
     Davidson diagonalization with overlap
     ethr =  3.32E-11,  avg # of iterations =  1.0

     total cpu time spent up to now is     1132.2 secs

     total energy              =    -285.31898896 Ry
     Harris-Foulkes estimate   =    -285.31898896 Ry
     estimated scf accuracy    <       0.00000001 Ry

     iteration # 10     ecut=    40.00 Ry     beta=0.70
     Davidson diagonalization with overlap
     ethr =  3.32E-11,  avg # of iterations =  2.0

     total cpu time spent up to now is     1168.1 secs

     total energy              =    -285.31898896 Ry
     Harris-Foulkes estimate   =    -285.31898896 Ry
     estimated scf accuracy    <          1.5E-09 Ry

     iteration # 11     ecut=    40.00 Ry     beta=0.70
     Davidson diagonalization with overlap
     ethr =  5.74E-12,  avg # of iterations =  2.0

     total cpu time spent up to now is     1206.7 secs

     total energy              =    -285.31898896 Ry
     Harris-Foulkes estimate   =    -285.31898896 Ry
     estimated scf accuracy    <          1.2E-11 Ry

     iteration # 12     ecut=    40.00 Ry     beta=0.70
     Davidson diagonalization with overlap
     ethr =  1.00E-13,  avg # of iterations =  2.3

     total cpu time spent up to now is     1239.5 secs

     total energy              =    -285.31898896 Ry
     Harris-Foulkes estimate   =    -285.31898896 Ry
     estimated scf accuracy    <          1.4E-11 Ry

     iteration # 13     ecut=    40.00 Ry     beta=0.70
     Davidson diagonalization with overlap
     ethr =  1.00E-13,  avg # of iterations =  1.0

     total cpu time spent up to now is     1270.7 secs

     total energy              =    -285.31898896 Ry
     Harris-Foulkes estimate   =    -285.31898896 Ry
     estimated scf accuracy    <          1.3E-11 Ry

     iteration # 14     ecut=    40.00 Ry     beta=0.70
     Davidson diagonalization with overlap
     ethr =  1.00E-13,  avg # of iterations =  1.0

     total cpu time spent up to now is     1301.1 secs

     total energy              =    -285.31898896 Ry
     Harris-Foulkes estimate   =    -285.31898896 Ry
     estimated scf accuracy    <          7.4E-12 Ry

     iteration # 15     ecut=    40.00 Ry     beta=0.70
     Davidson diagonalization with overlap
     ethr =  1.00E-13,  avg # of iterations =  1.0

     total cpu time spent up to now is     1331.9 secs

     End of self-consistent calculation

     Number of k-points >= 100: set verbosity='high' to print the bands.

     the Fermi energy is     1.8689 ev

!    total energy              =    -285.31898896 Ry
     Harris-Foulkes estimate   =    -285.31898896 Ry
     estimated scf accuracy    <          9.9E-13 Ry

     The total energy is the sum of the following terms:

     one-electron contribution =    -260.40562385 Ry
     hartree contribution      =     131.60198655 Ry
     xc contribution           =     -42.82966052 Ry
     ewald contribution        =    -113.68555964 Ry
     smearing contrib. (-TS)   =      -0.00013150 Ry

     convergence has been achieved in  15 iterations

     Forces acting on atoms (cartesian axes, Ry/au):

     atom    1 type  1   force =    -0.00000296   -0.00000296   -0.00000296
     atom    2 type  1   force =     0.00000296    0.00000296    0.00000296
     atom    3 type  1   force =     0.00000000    0.00000000   -0.00000000

     Total force =     0.000007     Total SCF correction =     0.000000


     Computing stress (Cartesian axis) and pressure

          total   stress  (Ry/bohr**3)                   (kbar)     P=    2.34
   0.00001591   0.00000040   0.00000040          2.34      0.06      0.06
   0.00000040   0.00001591   0.00000040          0.06      2.34      0.06
   0.00000040   0.00000040   0.00001591          0.06      0.06      2.34


     number of scf cycles    =   3
     number of bfgs steps    =   2

     enthalpy old            =    -285.3117894510 Ry
     enthalpy new            =    -285.3117916190 Ry

     CASE: enthalpy_new < enthalpy_old

     new trust radius        =       0.0013739185 bohr
     new conv_thr            =            1.0E-12 Ry

     new unit-cell volume =    706.38842 a.u.^3 (   104.67596 Ang^3 )
     density =      1.09411 g/cm^3

CELL_PARAMETERS (alat= 17.00000000)
   0.384188473   0.672537119   0.672537119
   0.672537119   0.384188473   0.672537119
   0.672537119   0.672537119   0.384188473

ATOMIC_POSITIONS (crystal)
Na       0.722222670   0.722222670   0.722222670
Na       0.277777330   0.277777330   0.277777330
Na       0.500000000   0.500000000   0.500000000



     Writing output data file na.9r.save
     NEW-OLD atomic charge density approx. for the potential
     extrapolated charge   27.02082, renormalised to   27.00000

     total cpu time spent up to now is     1338.8 secs

     per-process dynamical memory:    35.5 Mb

     Self-consistent Calculation

     iteration #  1     ecut=    40.00 Ry     beta=0.70
     Davidson diagonalization with overlap
     ethr =  1.00E-06,  avg # of iterations =  2.0

     total cpu time spent up to now is     1378.4 secs

     total energy              =    -285.31890239 Ry
     Harris-Foulkes estimate   =    -285.15891367 Ry
     estimated scf accuracy    <       0.00005314 Ry

     iteration #  2     ecut=    40.00 Ry     beta=0.70
     Davidson diagonalization with overlap
     ethr =  1.97E-07,  avg # of iterations =  3.0

     total cpu time spent up to now is     1424.4 secs

     total energy              =    -285.31899930 Ry
     Harris-Foulkes estimate   =    -285.31903837 Ry
     estimated scf accuracy    <       0.00008901 Ry

     iteration #  3     ecut=    40.00 Ry     beta=0.70
     Davidson diagonalization with overlap
     ethr =  1.97E-07,  avg # of iterations =  2.0

     total cpu time spent up to now is     1460.5 secs

     total energy              =    -285.31899930 Ry
     Harris-Foulkes estimate   =    -285.31900522 Ry
     estimated scf accuracy    <       0.00001709 Ry

     iteration #  4     ecut=    40.00 Ry     beta=0.70
     Davidson diagonalization with overlap
     ethr =  6.33E-08,  avg # of iterations =  1.0

     total cpu time spent up to now is     1492.1 secs

     total energy              =    -285.31899987 Ry
     Harris-Foulkes estimate   =    -285.31900000 Ry
     estimated scf accuracy    <       0.00000570 Ry

     iteration #  5     ecut=    40.00 Ry     beta=0.70
     Davidson diagonalization with overlap
     ethr =  2.11E-08,  avg # of iterations =  1.0

     total cpu time spent up to now is     1522.5 secs

     total energy              =    -285.31899835 Ry
     Harris-Foulkes estimate   =    -285.31899992 Ry
     estimated scf accuracy    <       0.00000546 Ry

     iteration #  6     ecut=    40.00 Ry     beta=0.70
     Davidson diagonalization with overlap
     ethr =  2.02E-08,  avg # of iterations =  1.0

     total cpu time spent up to now is     1552.9 secs

     total energy              =    -285.31899780 Ry
     Harris-Foulkes estimate   =    -285.31899851 Ry
     estimated scf accuracy    <       0.00000229 Ry

     iteration #  7     ecut=    40.00 Ry     beta=0.70
     Davidson diagonalization with overlap
     ethr =  8.49E-09,  avg # of iterations =  1.0

     total cpu time spent up to now is     1583.7 secs

     total energy              =    -285.31899742 Ry
     Harris-Foulkes estimate   =    -285.31899788 Ry
     estimated scf accuracy    <       0.00000084 Ry

     iteration #  8     ecut=    40.00 Ry     beta=0.70
     Davidson diagonalization with overlap
     ethr =  3.10E-09,  avg # of iterations =  2.0

     total cpu time spent up to now is     1621.0 secs

     total energy              =    -285.31899752 Ry
     Harris-Foulkes estimate   =    -285.31899753 Ry
     estimated scf accuracy    <       0.00000006 Ry

     iteration #  9     ecut=    40.00 Ry     beta=0.70
     Davidson diagonalization with overlap
     ethr =  2.10E-10,  avg # of iterations =  1.0

     total cpu time spent up to now is     1651.9 secs

     total energy              =    -285.31899750 Ry
     Harris-Foulkes estimate   =    -285.31899752 Ry
     estimated scf accuracy    <       0.00000004 Ry

     iteration # 10     ecut=    40.00 Ry     beta=0.70
     Davidson diagonalization with overlap
     ethr =  1.65E-10,  avg # of iterations =  1.0

     total cpu time spent up to now is     1682.7 secs

     total energy              =    -285.31899750 Ry
     Harris-Foulkes estimate   =    -285.31899751 Ry
     estimated scf accuracy    <          8.4E-09 Ry

     iteration # 11     ecut=    40.00 Ry     beta=0.70
     Davidson diagonalization with overlap
     ethr =  3.11E-11,  avg # of iterations =  2.0

     total cpu time spent up to now is     1721.8 secs

     total energy              =    -285.31899750 Ry
     Harris-Foulkes estimate   =    -285.31899750 Ry
     estimated scf accuracy    <          9.0E-12 Ry

     iteration # 12     ecut=    40.00 Ry     beta=0.70
     Davidson diagonalization with overlap
     ethr =  1.00E-13,  avg # of iterations =  3.0

     total cpu time spent up to now is     1755.9 secs

     total energy              =    -285.31899750 Ry
     Harris-Foulkes estimate   =    -285.31899750 Ry
     estimated scf accuracy    <          9.9E-12 Ry

     iteration # 13     ecut=    40.00 Ry     beta=0.70
     Davidson diagonalization with overlap
     ethr =  1.00E-13,  avg # of iterations =  1.0

     total cpu time spent up to now is     1786.4 secs

     total energy              =    -285.31899750 Ry
     Harris-Foulkes estimate   =    -285.31899750 Ry
     estimated scf accuracy    <          7.4E-12 Ry

     iteration # 14     ecut=    40.00 Ry     beta=0.70
     Davidson diagonalization with overlap
     ethr =  1.00E-13,  avg # of iterations =  1.0

     total cpu time spent up to now is     1817.1 secs

     total energy              =    -285.31899750 Ry
     Harris-Foulkes estimate   =    -285.31899750 Ry
     estimated scf accuracy    <          8.9E-12 Ry

     iteration # 15     ecut=    40.00 Ry     beta=0.70
     Davidson diagonalization with overlap
     ethr =  1.00E-13,  avg # of iterations =  1.0

     total cpu time spent up to now is     1847.6 secs

     End of self-consistent calculation

     Number of k-points >= 100: set verbosity='high' to print the bands.

     the Fermi energy is     1.8655 ev

!    total energy              =    -285.31899750 Ry
     Harris-Foulkes estimate   =    -285.31899750 Ry
     estimated scf accuracy    <          7.6E-13 Ry

     The total energy is the sum of the following terms:

     one-electron contribution =    -260.45687243 Ry
     hartree contribution      =     131.62367159 Ry
     xc contribution           =     -42.82934805 Ry
     ewald contribution        =    -113.65631719 Ry
     smearing contrib. (-TS)   =      -0.00013143 Ry

     convergence has been achieved in  15 iterations

     Forces acting on atoms (cartesian axes, Ry/au):

     atom    1 type  1   force =    -0.00000278   -0.00000278   -0.00000278
     atom    2 type  1   force =     0.00000278    0.00000278    0.00000278
     atom    3 type  1   force =     0.00000000   -0.00000000    0.00000000

     Total force =     0.000007     Total SCF correction =     0.000000


     Computing stress (Cartesian axis) and pressure

          total   stress  (Ry/bohr**3)                   (kbar)     P=    2.26
   0.00001534   0.00000038   0.00000038          2.26      0.06      0.06
   0.00000038   0.00001534   0.00000038          0.06      2.26      0.06
   0.00000038   0.00000038   0.00001534          0.06      0.06      2.26


     number of scf cycles    =   4
     number of bfgs steps    =   3

     enthalpy old            =    -285.3117916190 Ry
     enthalpy new            =    -285.3117946061 Ry

     CASE: enthalpy_new < enthalpy_old

     new trust radius        =       0.0020611322 bohr
     new conv_thr            =            1.0E-12 Ry

     new unit-cell volume =    707.20623 a.u.^3 (   104.79715 Ang^3 )
     density =      1.09285 g/cm^3

CELL_PARAMETERS (alat= 17.00000000)
   0.384374000   0.672825879   0.672825879
   0.672825879   0.384374000   0.672825879
   0.672825879   0.672825879   0.384374000

ATOMIC_POSITIONS (crystal)
Na       0.722222205   0.722222205   0.722222205
Na       0.277777795   0.277777795   0.277777795
Na       0.500000000   0.500000000   0.500000000



     Writing output data file na.9r.save
     NEW-OLD atomic charge density approx. for the potential
     extrapolated charge   27.03120, renormalised to   27.00000

     total cpu time spent up to now is     1854.4 secs

     per-process dynamical memory:    35.5 Mb

     Self-consistent Calculation

     iteration #  1     ecut=    40.00 Ry     beta=0.70
     Davidson diagonalization with overlap
     ethr =  1.00E-06,  avg # of iterations =  2.0

     total cpu time spent up to now is     1895.9 secs

     total energy              =    -285.31879572 Ry
     Harris-Foulkes estimate   =    -285.07898417 Ry
     estimated scf accuracy    <       0.00011956 Ry

     iteration #  2     ecut=    40.00 Ry     beta=0.70
     Davidson diagonalization with overlap
     ethr =  4.43E-07,  avg # of iterations =  3.0

     total cpu time spent up to now is     1941.4 secs

     total energy              =    -285.31901379 Ry
     Harris-Foulkes estimate   =    -285.31910171 Ry
     estimated scf accuracy    <       0.00020028 Ry

     iteration #  3     ecut=    40.00 Ry     beta=0.70
     Davidson diagonalization with overlap
     ethr =  4.43E-07,  avg # of iterations =  2.0

     total cpu time spent up to now is     1976.9 secs

     total energy              =    -285.31901370 Ry
     Harris-Foulkes estimate   =    -285.31902710 Ry
     estimated scf accuracy    <       0.00003847 Ry

     iteration #  4     ecut=    40.00 Ry     beta=0.70
     Davidson diagonalization with overlap
     ethr =  1.42E-07,  avg # of iterations =  1.0

     total cpu time spent up to now is     2007.3 secs

     total energy              =    -285.31901493 Ry
     Harris-Foulkes estimate   =    -285.31901530 Ry
     estimated scf accuracy    <       0.00001271 Ry

     iteration #  5     ecut=    40.00 Ry     beta=0.70
     Davidson diagonalization with overlap
     ethr =  4.71E-08,  avg # of iterations =  1.0

     total cpu time spent up to now is     2037.7 secs

     total energy              =    -285.31901171 Ry
     Harris-Foulkes estimate   =    -285.31901504 Ry
     estimated scf accuracy    <       0.00001202 Ry

     iteration #  6     ecut=    40.00 Ry     beta=0.70
     Davidson diagonalization with overlap
     ethr =  4.45E-08,  avg # of iterations =  1.0

     total cpu time spent up to now is     2068.0 secs

     total energy              =    -285.31901027 Ry
     Harris-Foulkes estimate   =    -285.31901204 Ry
     estimated scf accuracy    <       0.00000524 Ry

     iteration #  7     ecut=    40.00 Ry     beta=0.70
     Davidson diagonalization with overlap
     ethr =  1.94E-08,  avg # of iterations =  1.0

     total cpu time spent up to now is     2098.1 secs

     total energy              =    -285.31900950 Ry
     Harris-Foulkes estimate   =    -285.31901049 Ry
     estimated scf accuracy    <       0.00000171 Ry

     iteration #  8     ecut=    40.00 Ry     beta=0.70
     Davidson diagonalization with overlap
     ethr =  6.33E-09,  avg # of iterations =  2.0

     total cpu time spent up to now is     2134.7 secs

     total energy              =    -285.31900976 Ry
     Harris-Foulkes estimate   =    -285.31900976 Ry
     estimated scf accuracy    <       0.00000006 Ry

     iteration #  9     ecut=    40.00 Ry     beta=0.70
     Davidson diagonalization with overlap
     ethr =  2.35E-10,  avg # of iterations =  1.0

     total cpu time spent up to now is     2165.2 secs

     total energy              =    -285.31900973 Ry
     Harris-Foulkes estimate   =    -285.31900976 Ry
     estimated scf accuracy    <       0.00000007 Ry

     iteration # 10     ecut=    40.00 Ry     beta=0.70
     Davidson diagonalization with overlap
     ethr =  2.35E-10,  avg # of iterations =  1.0

     total cpu time spent up to now is     2195.4 secs

     total energy              =    -285.31900973 Ry
     Harris-Foulkes estimate   =    -285.31900973 Ry
     estimated scf accuracy    <       0.00000001 Ry

     iteration # 11     ecut=    40.00 Ry     beta=0.70
     Davidson diagonalization with overlap
     ethr =  3.84E-11,  avg # of iterations =  2.0

     total cpu time spent up to now is     2233.9 secs

     total energy              =    -285.31900973 Ry
     Harris-Foulkes estimate   =    -285.31900973 Ry
     estimated scf accuracy    <          4.1E-11 Ry

     iteration # 12     ecut=    40.00 Ry     beta=0.70
     Davidson diagonalization with overlap
     ethr =  1.50E-13,  avg # of iterations =  3.0

     total cpu time spent up to now is     2273.2 secs

     total energy              =    -285.31900973 Ry
     Harris-Foulkes estimate   =    -285.31900973 Ry
     estimated scf accuracy    <          2.7E-11 Ry

     iteration # 13     ecut=    40.00 Ry     beta=0.70
     Davidson diagonalization with overlap
     ethr =  1.01E-13,  avg # of iterations =  1.0

     total cpu time spent up to now is     2303.4 secs

     total energy              =    -285.31900973 Ry
     Harris-Foulkes estimate   =    -285.31900973 Ry
     estimated scf accuracy    <          4.0E-11 Ry

     iteration # 14     ecut=    40.00 Ry     beta=0.70
     Davidson diagonalization with overlap
     ethr =  1.01E-13,  avg # of iterations =  2.0

     total cpu time spent up to now is     2343.1 secs

     total energy              =    -285.31900973 Ry
     Harris-Foulkes estimate   =    -285.31900973 Ry
     estimated scf accuracy    <          1.9E-11 Ry

     iteration # 15     ecut=    40.00 Ry     beta=0.70
     Davidson diagonalization with overlap
     ethr =  1.00E-13,  avg # of iterations =  2.0

     total cpu time spent up to now is     2379.3 secs

     total energy              =    -285.31900973 Ry
     Harris-Foulkes estimate   =    -285.31900973 Ry
     estimated scf accuracy    <          1.6E-12 Ry

     iteration # 16     ecut=    40.00 Ry     beta=0.70
     Davidson diagonalization with overlap
     ethr =  1.00E-13,  avg # of iterations =  1.0

     total cpu time spent up to now is     2409.8 secs

     total energy              =    -285.31900973 Ry
     Harris-Foulkes estimate   =    -285.31900973 Ry
     estimated scf accuracy    <          2.6E-12 Ry

     iteration # 17     ecut=    40.00 Ry     beta=0.70
     Davidson diagonalization with overlap
     ethr =  1.00E-13,  avg # of iterations =  1.0

     total cpu time spent up to now is     2440.5 secs

     total energy              =    -285.31900973 Ry
     Harris-Foulkes estimate   =    -285.31900973 Ry
     estimated scf accuracy    <          1.6E-12 Ry

     iteration # 18     ecut=    40.00 Ry     beta=0.70
     Davidson diagonalization with overlap
     ethr =  1.00E-13,  avg # of iterations =  1.0

     total cpu time spent up to now is     2471.3 secs

     End of self-consistent calculation

     Number of k-points >= 100: set verbosity='high' to print the bands.

     the Fermi energy is     1.8603 ev

!    total energy              =    -285.31900973 Ry
     Harris-Foulkes estimate   =    -285.31900973 Ry
     estimated scf accuracy    <          2.5E-13 Ry

     The total energy is the sum of the following terms:

     one-electron contribution =    -260.53367272 Ry
     hartree contribution      =     131.65616717 Ry
     xc contribution           =     -42.82887894 Ry
     ewald contribution        =    -113.61249393 Ry
     smearing contrib. (-TS)   =      -0.00013131 Ry

     convergence has been achieved in  18 iterations

     Forces acting on atoms (cartesian axes, Ry/au):

     atom    1 type  1   force =    -0.00000252   -0.00000252   -0.00000252
     atom    2 type  1   force =     0.00000252    0.00000252    0.00000252
     atom    3 type  1   force =     0.00000000    0.00000000    0.00000000

     Total force =     0.000006     Total SCF correction =     0.000000


     Computing stress (Cartesian axis) and pressure

          total   stress  (Ry/bohr**3)                   (kbar)     P=    2.13
   0.00001447   0.00000035   0.00000035          2.13      0.05      0.05
   0.00000035   0.00001447   0.00000035          0.05      2.13      0.05
   0.00000035   0.00000035   0.00001447          0.05      0.05      2.13


     number of scf cycles    =   5
     number of bfgs steps    =   4

     enthalpy old            =    -285.3117946061 Ry
     enthalpy new            =    -285.3117984926 Ry

     CASE: enthalpy_new < enthalpy_old

     new trust radius        =       0.0030922693 bohr
     new conv_thr            =            1.0E-12 Ry

     new unit-cell volume =    708.43368 a.u.^3 (   104.97904 Ang^3 )
     density =      1.09095 g/cm^3

CELL_PARAMETERS (alat= 17.00000000)
   0.384654078   0.673260348   0.673260348
   0.673260348   0.384654078   0.673260348
   0.673260348   0.673260348   0.384654078

ATOMIC_POSITIONS (crystal)
Na       0.722221494   0.722221494   0.722221494
Na       0.277778506   0.277778506   0.277778506
Na       0.500000000   0.500000000   0.500000000



     Writing output data file na.9r.save
     NEW-OLD atomic charge density approx. for the potential
     extrapolated charge   27.04675, renormalised to   27.00000

     total cpu time spent up to now is     2478.2 secs

     per-process dynamical memory:    35.5 Mb

     Self-consistent Calculation

     iteration #  1     ecut=    40.00 Ry     beta=0.70
     Davidson diagonalization with overlap
     ethr =  1.00E-06,  avg # of iterations =  2.0

     total cpu time spent up to now is     2520.3 secs

     total energy              =    -285.31854522 Ry
     Harris-Foulkes estimate   =    -284.95919061 Ry
     estimated scf accuracy    <       0.00026897 Ry

     iteration #  2     ecut=    40.00 Ry     beta=0.70
     Davidson diagonalization with overlap
     ethr =  9.96E-07,  avg # of iterations =  3.0

     total cpu time spent up to now is     2566.5 secs

     total energy              =    -285.31903598 Ry
     Harris-Foulkes estimate   =    -285.31923379 Ry
     estimated scf accuracy    <       0.00045062 Ry

     iteration #  3     ecut=    40.00 Ry     beta=0.70
     Davidson diagonalization with overlap
     ethr =  9.96E-07,  avg # of iterations =  2.0

     total cpu time spent up to now is     2602.3 secs

     total energy              =    -285.31903557 Ry
     Harris-Foulkes estimate   =    -285.31906589 Ry
     estimated scf accuracy    <       0.00008665 Ry

     iteration #  4     ecut=    40.00 Ry     beta=0.70
     Davidson diagonalization with overlap
     ethr =  3.21E-07,  avg # of iterations =  1.0

     total cpu time spent up to now is     2634.9 secs

     total energy              =    -285.31903827 Ry
     Harris-Foulkes estimate   =    -285.31903921 Ry
     estimated scf accuracy    <       0.00002843 Ry

     iteration #  5     ecut=    40.00 Ry     beta=0.70
     Davidson diagonalization with overlap
     ethr =  1.05E-07,  avg # of iterations =  1.0

     total cpu time spent up to now is     2665.1 secs

     total energy              =    -285.31903120 Ry
     Harris-Foulkes estimate   =    -285.31903853 Ry
     estimated scf accuracy    <       0.00002664 Ry

     iteration #  6     ecut=    40.00 Ry     beta=0.70
     Davidson diagonalization with overlap
     ethr =  9.87E-08,  avg # of iterations =  1.0

     total cpu time spent up to now is     2695.5 secs

     total energy              =    -285.31902774 Ry
     Harris-Foulkes estimate   =    -285.31903193 Ry
     estimated scf accuracy    <       0.00001173 Ry

     iteration #  7     ecut=    40.00 Ry     beta=0.70
     Davidson diagonalization with overlap
     ethr =  4.34E-08,  avg # of iterations =  1.0

     total cpu time spent up to now is     2726.3 secs

     total energy              =    -285.31902625 Ry
     Harris-Foulkes estimate   =    -285.31902830 Ry
     estimated scf accuracy    <       0.00000351 Ry

     iteration #  8     ecut=    40.00 Ry     beta=0.70
     Davidson diagonalization with overlap
     ethr =  1.30E-08,  avg # of iterations =  2.0

     total cpu time spent up to now is     2763.9 secs

     total energy              =    -285.31902679 Ry
     Harris-Foulkes estimate   =    -285.31902680 Ry
     estimated scf accuracy    <       0.00000012 Ry

     iteration #  9     ecut=    40.00 Ry     beta=0.70
     Davidson diagonalization with overlap
     ethr =  4.52E-10,  avg # of iterations =  1.0

     total cpu time spent up to now is     2794.4 secs

     total energy              =    -285.31902675 Ry
     Harris-Foulkes estimate   =    -285.31902679 Ry
     estimated scf accuracy    <       0.00000011 Ry

     iteration # 10     ecut=    40.00 Ry     beta=0.70
     Davidson diagonalization with overlap
     ethr =  4.06E-10,  avg # of iterations =  1.0

     total cpu time spent up to now is     2825.4 secs

     total energy              =    -285.31902673 Ry
     Harris-Foulkes estimate   =    -285.31902676 Ry
     estimated scf accuracy    <       0.00000004 Ry

     iteration # 11     ecut=    40.00 Ry     beta=0.70
     Davidson diagonalization with overlap
     ethr =  1.37E-10,  avg # of iterations =  2.0

     total cpu time spent up to now is     2864.3 secs

     total energy              =    -285.31902674 Ry
     Harris-Foulkes estimate   =    -285.31902674 Ry
     estimated scf accuracy    <          6.6E-11 Ry

     iteration # 12     ecut=    40.00 Ry     beta=0.70
     Davidson diagonalization with overlap
     ethr =  2.45E-13,  avg # of iterations =  3.2

     total cpu time spent up to now is     2899.1 secs

     total energy              =    -285.31902674 Ry
     Harris-Foulkes estimate   =    -285.31902674 Ry
     estimated scf accuracy    <          5.7E-11 Ry

     iteration # 13     ecut=    40.00 Ry     beta=0.70
     Davidson diagonalization with overlap
     ethr =  2.13E-13,  avg # of iterations =  1.0

     total cpu time spent up to now is     2929.9 secs

     total energy              =    -285.31902674 Ry
     Harris-Foulkes estimate   =    -285.31902674 Ry
     estimated scf accuracy    <          5.9E-11 Ry

     iteration # 14     ecut=    40.00 Ry     beta=0.70
     Davidson diagonalization with overlap
     ethr =  2.13E-13,  avg # of iterations =  1.0

     total cpu time spent up to now is     2961.0 secs

     total energy              =    -285.31902674 Ry
     Harris-Foulkes estimate   =    -285.31902674 Ry
     estimated scf accuracy    <          4.5E-11 Ry

     iteration # 15     ecut=    40.00 Ry     beta=0.70
     Davidson diagonalization with overlap
     ethr =  1.68E-13,  avg # of iterations =  2.0

     total cpu time spent up to now is     2997.8 secs

     End of self-consistent calculation

     Number of k-points >= 100: set verbosity='high' to print the bands.

     the Fermi energy is     1.8526 ev

!    total energy              =    -285.31902674 Ry
     Harris-Foulkes estimate   =    -285.31902674 Ry
     estimated scf accuracy    <          5.7E-13 Ry

     The total energy is the sum of the following terms:

     one-electron contribution =    -260.64872424 Ry
     hartree contribution      =     131.70485005 Ry
     xc contribution           =     -42.82817597 Ry
     ewald contribution        =    -113.54684544 Ry
     smearing contrib. (-TS)   =      -0.00013113 Ry

     convergence has been achieved in  15 iterations

     Forces acting on atoms (cartesian axes, Ry/au):

     atom    1 type  1   force =    -0.00000212   -0.00000212   -0.00000212
     atom    2 type  1   force =     0.00000212    0.00000212    0.00000212
     atom    3 type  1   force =     0.00000000   -0.00000000    0.00000000

     Total force =     0.000005     Total SCF correction =     0.000000


     Computing stress (Cartesian axis) and pressure

          total   stress  (Ry/bohr**3)                   (kbar)     P=    1.93
   0.00001315   0.00000030   0.00000030          1.93      0.04      0.04
   0.00000030   0.00001315   0.00000030          0.04      1.93      0.04
   0.00000030   0.00000030   0.00001315          0.04      0.04      1.93


     number of scf cycles    =   6
     number of bfgs steps    =   5

     enthalpy old            =    -285.3117984926 Ry
     enthalpy new            =    -285.3118029899 Ry

     CASE: enthalpy_new < enthalpy_old

     new trust radius        =       0.0046396839 bohr
     new conv_thr            =            1.0E-12 Ry

     new unit-cell volume =    710.27653 a.u.^3 (   105.25212 Ang^3 )
     density =      1.08812 g/cm^3

CELL_PARAMETERS (alat= 17.00000000)
   0.385078098   0.673914947   0.673914947
   0.673914947   0.385078098   0.673914947
   0.673914947   0.673914947   0.385078098

ATOMIC_POSITIONS (crystal)
Na       0.722220401   0.722220401   0.722220401
Na       0.277779599   0.277779599   0.277779599
Na       0.500000000   0.500000000   0.500000000



     Writing output data file na.9r.save
     NEW-OLD atomic charge density approx. for the potential
     extrapolated charge   27.07000, renormalised to   27.00000

     total cpu time spent up to now is     3004.7 secs

     per-process dynamical memory:    35.5 Mb

     Self-consistent Calculation

     iteration #  1     ecut=    40.00 Ry     beta=0.70
     Davidson diagonalization with overlap
     ethr =  1.00E-06,  avg # of iterations =  2.9

     total cpu time spent up to now is     3048.9 secs

     total energy              =    -285.31796512 Ry
     Harris-Foulkes estimate   =    -284.77975409 Ry
     estimated scf accuracy    <       0.00060549 Ry

     iteration #  2     ecut=    40.00 Ry     beta=0.70
     Davidson diagonalization with overlap
     ethr =  2.24E-06,  avg # of iterations =  3.0

     total cpu time spent up to now is     3097.9 secs

     total energy              =    -285.31907044 Ry
     Harris-Foulkes estimate   =    -285.31951577 Ry
     estimated scf accuracy    <       0.00101453 Ry

     iteration #  3     ecut=    40.00 Ry     beta=0.70
     Davidson diagonalization with overlap
     ethr =  2.24E-06,  avg # of iterations =  2.0

     total cpu time spent up to now is     3133.8 secs

     total energy              =    -285.31906748 Ry
     Harris-Foulkes estimate   =    -285.31913777 Ry
     estimated scf accuracy    <       0.00019505 Ry

     iteration #  4     ecut=    40.00 Ry     beta=0.70
     Davidson diagonalization with overlap
     ethr =  7.22E-07,  avg # of iterations =  1.0

     total cpu time spent up to now is     3164.3 secs

     total energy              =    -285.31907567 Ry
     Harris-Foulkes estimate   =    -285.31907595 Ry
     estimated scf accuracy    <       0.00006119 Ry

     iteration #  5     ecut=    40.00 Ry     beta=0.70
     Davidson diagonalization with overlap
     ethr =  2.27E-07,  avg # of iterations =  1.0

     total cpu time spent up to now is     3194.9 secs

     total energy              =    -285.31906168 Ry
     Harris-Foulkes estimate   =    -285.31907623 Ry
     estimated scf accuracy    <       0.00006146 Ry

     iteration #  6     ecut=    40.00 Ry     beta=0.70
     Davidson diagonalization with overlap
     ethr =  2.27E-07,  avg # of iterations =  1.0

     total cpu time spent up to now is     3225.0 secs

     total energy              =    -285.31905435 Ry
     Harris-Foulkes estimate   =    -285.31906302 Ry
     estimated scf accuracy    <       0.00003073 Ry

     iteration #  7     ecut=    40.00 Ry     beta=0.70
     Davidson diagonalization with overlap
     ethr =  1.14E-07,  avg # of iterations =  1.0

     total cpu time spent up to now is     3255.8 secs

     total energy              =    -285.31904837 Ry
     Harris-Foulkes estimate   =    -285.31905523 Ry
     estimated scf accuracy    <       0.00001302 Ry

     iteration #  8     ecut=    40.00 Ry     beta=0.70
     Davidson diagonalization with overlap
     ethr =  4.82E-08,  avg # of iterations =  2.0

     total cpu time spent up to now is     3291.9 secs

     total energy              =    -285.31904937 Ry
     Harris-Foulkes estimate   =    -285.31904981 Ry
     estimated scf accuracy    <       0.00000115 Ry

     iteration #  9     ecut=    40.00 Ry     beta=0.70
     Davidson diagonalization with overlap
     ethr =  4.28E-09,  avg # of iterations =  1.8

     total cpu time spent up to now is     3324.1 secs

     total energy              =    -285.31904935 Ry
     Harris-Foulkes estimate   =    -285.31904944 Ry
     estimated scf accuracy    <       0.00000033 Ry

     iteration # 10     ecut=    40.00 Ry     beta=0.70
     Davidson diagonalization with overlap
     ethr =  1.21E-09,  avg # of iterations =  1.0

     total cpu time spent up to now is     3354.9 secs

     total energy              =    -285.31904927 Ry
     Harris-Foulkes estimate   =    -285.31904937 Ry
     estimated scf accuracy    <       0.00000014 Ry

     iteration # 11     ecut=    40.00 Ry     beta=0.70
     Davidson diagonalization with overlap
     ethr =  5.30E-10,  avg # of iterations =  2.0

     total cpu time spent up to now is     3394.0 secs

     total energy              =    -285.31904930 Ry
     Harris-Foulkes estimate   =    -285.31904930 Ry
     estimated scf accuracy    <          1.5E-10 Ry

     iteration # 12     ecut=    40.00 Ry     beta=0.70
     Davidson diagonalization with overlap
     ethr =  5.51E-13,  avg # of iterations =  3.4

     total cpu time spent up to now is     3430.5 secs

     total energy              =    -285.31904930 Ry
     Harris-Foulkes estimate   =    -285.31904930 Ry
     estimated scf accuracy    <          1.6E-10 Ry

     iteration # 13     ecut=    40.00 Ry     beta=0.70
     Davidson diagonalization with overlap
     ethr =  5.51E-13,  avg # of iterations =  1.0

     total cpu time spent up to now is     3461.1 secs

     total energy              =    -285.31904930 Ry
     Harris-Foulkes estimate   =    -285.31904930 Ry
     estimated scf accuracy    <          1.3E-10 Ry

     iteration # 14     ecut=    40.00 Ry     beta=0.70
     Davidson diagonalization with overlap
     ethr =  4.65E-13,  avg # of iterations =  1.0

     total cpu time spent up to now is     3492.1 secs

     total energy              =    -285.31904930 Ry
     Harris-Foulkes estimate   =    -285.31904930 Ry
     estimated scf accuracy    <          2.4E-10 Ry

     iteration # 15     ecut=    40.00 Ry     beta=0.70
     Davidson diagonalization with overlap
     ethr =  4.65E-13,  avg # of iterations =  2.0

     total cpu time spent up to now is     3530.9 secs

     total energy              =    -285.31904930 Ry
     Harris-Foulkes estimate   =    -285.31904930 Ry
     estimated scf accuracy    <          4.4E-11 Ry

     iteration # 16     ecut=    40.00 Ry     beta=0.70
     Davidson diagonalization with overlap
     ethr =  1.64E-13,  avg # of iterations =  1.0

     total cpu time spent up to now is     3561.8 secs

     total energy              =    -285.31904930 Ry
     Harris-Foulkes estimate   =    -285.31904930 Ry
     estimated scf accuracy    <          4.5E-11 Ry

     iteration # 17     ecut=    40.00 Ry     beta=0.70
     Davidson diagonalization with overlap
     ethr =  1.64E-13,  avg # of iterations =  1.0

     total cpu time spent up to now is     3592.6 secs

     total energy              =    -285.31904930 Ry
     Harris-Foulkes estimate   =    -285.31904930 Ry
     estimated scf accuracy    <          5.7E-11 Ry

     iteration # 18     ecut=    40.00 Ry     beta=0.70
     Davidson diagonalization with overlap
     ethr =  1.64E-13,  avg # of iterations =  1.0

     total cpu time spent up to now is     3623.4 secs

     total energy              =    -285.31904930 Ry
     Harris-Foulkes estimate   =    -285.31904930 Ry
     estimated scf accuracy    <          1.1E-11 Ry

     iteration # 19     ecut=    40.00 Ry     beta=0.70
     Davidson diagonalization with overlap
     ethr =  1.00E-13,  avg # of iterations =  1.0

     total cpu time spent up to now is     3654.3 secs

     End of self-consistent calculation

     Number of k-points >= 100: set verbosity='high' to print the bands.

     the Fermi energy is     1.8411 ev

!    total energy              =    -285.31904930 Ry
     Harris-Foulkes estimate   =    -285.31904930 Ry
     estimated scf accuracy    <          5.4E-13 Ry

     The total energy is the sum of the following terms:

     one-electron contribution =    -260.82098207 Ry
     hartree contribution      =     131.77775723 Ry
     xc contribution           =     -42.82712641 Ry
     ewald contribution        =    -113.44856720 Ry
     smearing contrib. (-TS)   =      -0.00013085 Ry

     convergence has been achieved in  19 iterations

     Forces acting on atoms (cartesian axes, Ry/au):

     atom    1 type  1   force =    -0.00000144   -0.00000144   -0.00000144
     atom    2 type  1   force =     0.00000144    0.00000144    0.00000144
     atom    3 type  1   force =     0.00000000    0.00000000   -0.00000000

     Total force =     0.000004     Total SCF correction =     0.000000


     Computing stress (Cartesian axis) and pressure

          total   stress  (Ry/bohr**3)                   (kbar)     P=    1.65
   0.00001124   0.00000022   0.00000022          1.65      0.03      0.03
   0.00000022   0.00001124   0.00000022          0.03      1.65      0.03
   0.00000022   0.00000022   0.00001124          0.03      0.03      1.65


     number of scf cycles    =   7
     number of bfgs steps    =   6

     enthalpy old            =    -285.3118029899 Ry
     enthalpy new            =    -285.3118067547 Ry

     CASE: enthalpy_new < enthalpy_old

     new trust radius        =       0.0025988830 bohr
     new conv_thr            =            1.0E-12 Ry

     new unit-cell volume =    711.30821 a.u.^3 (   105.40500 Ang^3 )
     density =      1.08655 g/cm^3

CELL_PARAMETERS (alat= 17.00000000)
   0.385321133   0.674285613   0.674285613
   0.674285613   0.385321133   0.674285613
   0.674285613   0.674285613   0.385321133

ATOMIC_POSITIONS (crystal)
Na       0.722219752   0.722219752   0.722219752
Na       0.277780248   0.277780248   0.277780248
Na       0.500000000   0.500000000   0.500000000



     Writing output data file na.9r.save
     NEW-OLD atomic charge density approx. for the potential
     extrapolated charge   27.03913, renormalised to   27.00000

     total cpu time spent up to now is     3661.2 secs

     per-process dynamical memory:    35.5 Mb

     Self-consistent Calculation

     iteration #  1     ecut=    40.00 Ry     beta=0.70
     Davidson diagonalization with overlap
     ethr =  1.00E-06,  avg # of iterations =  2.0

     total cpu time spent up to now is     3703.5 secs

     total energy              =    -285.31872322 Ry
     Harris-Foulkes estimate   =    -285.01751973 Ry
     estimated scf accuracy    <       0.00018833 Ry

     iteration #  2     ecut=    40.00 Ry     beta=0.70
     Davidson diagonalization with overlap
     ethr =  6.98E-07,  avg # of iterations =  3.0

     total cpu time spent up to now is     3749.7 secs

     total energy              =    -285.31906681 Ry
     Harris-Foulkes estimate   =    -285.31920532 Ry
     estimated scf accuracy    <       0.00031551 Ry

     iteration #  3     ecut=    40.00 Ry     beta=0.70
     Davidson diagonalization with overlap
     ethr =  6.98E-07,  avg # of iterations =  2.0

     total cpu time spent up to now is     3785.8 secs

     total energy              =    -285.31906659 Ry
     Harris-Foulkes estimate   =    -285.31908777 Ry
     estimated scf accuracy    <       0.00006064 Ry

     iteration #  4     ecut=    40.00 Ry     beta=0.70
     Davidson diagonalization with overlap
     ethr =  2.25E-07,  avg # of iterations =  1.0

     total cpu time spent up to now is     3816.4 secs

     total energy              =    -285.31906830 Ry
     Harris-Foulkes estimate   =    -285.31906913 Ry
     estimated scf accuracy    <       0.00001996 Ry

     iteration #  5     ecut=    40.00 Ry     beta=0.70
     Davidson diagonalization with overlap
     ethr =  7.39E-08,  avg # of iterations =  1.0

     total cpu time spent up to now is     3847.2 secs

     total energy              =    -285.31906349 Ry
     Harris-Foulkes estimate   =    -285.31906849 Ry
     estimated scf accuracy    <       0.00001827 Ry

     iteration #  6     ecut=    40.00 Ry     beta=0.70
     Davidson diagonalization with overlap
     ethr =  6.77E-08,  avg # of iterations =  1.0

     total cpu time spent up to now is     3877.9 secs

     total energy              =    -285.31906063 Ry
     Harris-Foulkes estimate   =    -285.31906397 Ry
     estimated scf accuracy    <       0.00000813 Ry

     iteration #  7     ecut=    40.00 Ry     beta=0.70
     Davidson diagonalization with overlap
     ethr =  3.01E-08,  avg # of iterations =  1.0

     total cpu time spent up to now is     3908.1 secs

     total energy              =    -285.31906008 Ry
     Harris-Foulkes estimate   =    -285.31906114 Ry
     estimated scf accuracy    <       0.00000181 Ry

     iteration #  8     ecut=    40.00 Ry     beta=0.70
     Davidson diagonalization with overlap
     ethr =  6.69E-09,  avg # of iterations =  2.0

     total cpu time spent up to now is     3944.9 secs

     total energy              =    -285.31906040 Ry
     Harris-Foulkes estimate   =    -285.31906040 Ry
     estimated scf accuracy    <       0.00000006 Ry

     iteration #  9     ecut=    40.00 Ry     beta=0.70
     Davidson diagonalization with overlap
     ethr =  2.07E-10,  avg # of iterations =  1.2

     total cpu time spent up to now is     3975.9 secs

     total energy              =    -285.31906037 Ry
     Harris-Foulkes estimate   =    -285.31906041 Ry
     estimated scf accuracy    <       0.00000007 Ry

     iteration # 10     ecut=    40.00 Ry     beta=0.70
     Davidson diagonalization with overlap
     ethr =  2.07E-10,  avg # of iterations =  2.0

     total cpu time spent up to now is     4011.8 secs

     total energy              =    -285.31906037 Ry
     Harris-Foulkes estimate   =    -285.31906038 Ry
     estimated scf accuracy    <          7.8E-09 Ry

     iteration # 11     ecut=    40.00 Ry     beta=0.70
     Davidson diagonalization with overlap
     ethr =  2.89E-11,  avg # of iterations =  2.0

     total cpu time spent up to now is     4050.4 secs

     total energy              =    -285.31906038 Ry
     Harris-Foulkes estimate   =    -285.31906038 Ry
     estimated scf accuracy    <          4.3E-11 Ry

     iteration # 12     ecut=    40.00 Ry     beta=0.70
     Davidson diagonalization with overlap
     ethr =  1.59E-13,  avg # of iterations =  2.8

     total cpu time spent up to now is     4085.0 secs

     total energy              =    -285.31906038 Ry
     Harris-Foulkes estimate   =    -285.31906038 Ry
     estimated scf accuracy    <          3.2E-11 Ry

     iteration # 13     ecut=    40.00 Ry     beta=0.70
     Davidson diagonalization with overlap
     ethr =  1.19E-13,  avg # of iterations =  1.0

     total cpu time spent up to now is     4115.4 secs

     total energy              =    -285.31906038 Ry
     Harris-Foulkes estimate   =    -285.31906038 Ry
     estimated scf accuracy    <          2.8E-11 Ry

     iteration # 14     ecut=    40.00 Ry     beta=0.70
     Davidson diagonalization with overlap
     ethr =  1.03E-13,  avg # of iterations =  1.0

     total cpu time spent up to now is     4146.4 secs

     total energy              =    -285.31906038 Ry
     Harris-Foulkes estimate   =    -285.31906038 Ry
     estimated scf accuracy    <          1.5E-12 Ry

     iteration # 15     ecut=    40.00 Ry     beta=0.70
     Davidson diagonalization with overlap
     ethr =  1.00E-13,  avg # of iterations =  1.0

     total cpu time spent up to now is     4177.1 secs

     total energy              =    -285.31906038 Ry
     Harris-Foulkes estimate   =    -285.31906038 Ry
     estimated scf accuracy    <          1.2E-12 Ry

     iteration # 16     ecut=    40.00 Ry     beta=0.70
     Davidson diagonalization with overlap
     ethr =  1.00E-13,  avg # of iterations =  1.0

     total cpu time spent up to now is     4207.7 secs

     End of self-consistent calculation

     Number of k-points >= 100: set verbosity='high' to print the bands.

     the Fermi energy is     1.8347 ev

!    total energy              =    -285.31906038 Ry
     Harris-Foulkes estimate   =    -285.31906038 Ry
     estimated scf accuracy    <          8.9E-13 Ry

     The total energy is the sum of the following terms:

     one-electron contribution =    -260.91716265 Ry
     hartree contribution      =     131.81846994 Ry
     xc contribution           =     -42.82654070 Ry
     ewald contribution        =    -113.39369630 Ry
     smearing contrib. (-TS)   =      -0.00013067 Ry

     convergence has been achieved in  16 iterations

     Forces acting on atoms (cartesian axes, Ry/au):

     atom    1 type  1   force =    -0.00000110   -0.00000110   -0.00000110
     atom    2 type  1   force =     0.00000110    0.00000110    0.00000110
     atom    3 type  1   force =    -0.00000000    0.00000000    0.00000000

     Total force =     0.000003     Total SCF correction =     0.000000


     Computing stress (Cartesian axis) and pressure

          total   stress  (Ry/bohr**3)                   (kbar)     P=    1.50
   0.00001017   0.00000017   0.00000017          1.50      0.03      0.03
   0.00000017   0.00001017   0.00000017          0.03      1.50      0.03
   0.00000017   0.00000017   0.00001017          0.03      0.03      1.50


     bfgs converged in   8 scf cycles and   7 bfgs steps
     (criteria: energy <  1.0E-04 Ry, force <  1.0E-03Ry/Bohr, cell <  5.0E-02kbar)

     End of BFGS Geometry Optimization

     Final enthalpy =    -285.3118073117 Ry
Begin final coordinates
     new unit-cell volume =    711.30821 a.u.^3 (   105.40500 Ang^3 )
     density =      1.08655 g/cm^3

CELL_PARAMETERS (alat= 17.00000000)
   0.385321133   0.674285613   0.674285613
   0.674285613   0.385321133   0.674285613
   0.674285613   0.674285613   0.385321133

ATOMIC_POSITIONS (crystal)
Na       0.722219752   0.722219752   0.722219752
Na       0.277780248   0.277780248   0.277780248
Na       0.500000000   0.500000000   0.500000000
End final coordinates



     A final scf calculation at the relaxed structure.
     The G-vectors are recalculated for the final unit cell
     Results may differ from those at the preceding step.

     Parallelization info
     --------------------
     sticks:   dense  smooth     PW     G-vecs:    dense   smooth      PW
     Min         189      94     31                 4302     1508     290
     Max         190      95     32                 4303     1509     291
     Sum        3031    1509    511                68845    24141    4653



     bravais-lattice index     =            0
     lattice parameter (alat)  =      17.0000  a.u.
     unit-cell volume          =     711.3082 (a.u.)^3
     number of atoms/cell      =            3
     number of atomic types    =            1
     number of electrons       =        27.00
     number of Kohn-Sham states=           18
     kinetic-energy cutoff     =      40.0000  Ry
     charge density cutoff     =     320.0000  Ry
     convergence threshold     =      1.0E-12
     mixing beta               =       0.7000
     number of iterations used =            8  plain     mixing
     Exchange-correlation      = SLA  PW   PBE  PBE ( 1  4  3  4 0 0)

     celldm(1)=  17.000000  celldm(2)=   0.000000  celldm(3)=   0.000000
     celldm(4)=   0.000000  celldm(5)=   0.000000  celldm(6)=   0.000000

     crystal axes: (cart. coord. in units of alat)
               a(1) = (   0.385321   0.674286   0.674286 )  
               a(2) = (   0.674286   0.385321   0.674286 )  
               a(3) = (   0.674286   0.674286   0.385321 )  

     reciprocal axes: (cart. coord. in units 2 pi/alat)
               b(1) = ( -2.114843  1.345790  1.345790 )  
               b(2) = (  1.345790 -2.114843  1.345790 )  
               b(3) = (  1.345790  1.345790 -2.114843 )  


     PseudoPot. # 1 for Na read from file:
     /home/s1333534/quantum_espresso/qe-6.1/pseudo/Na_pbe_v1.uspp.F.UPF
     MD5 check sum: 76a99c7e9422403d3e93cbc85ab7bccb
     Pseudo is Ultrasoft, Zval =  9.0
     Generated by new atomic code, or converted to UPF format
     Using radial grid of  819 points,  5 beta functions with: 
                l(1) =   0
                l(2) =   0
                l(3) =   1
                l(4) =   1
                l(5) =   2
     Q(r) pseudized with  8 coefficients,  rinner =    1.250   1.250   1.250
                                                       1.250   1.250

     atomic species   valence    mass     pseudopotential
        Na             9.00    22.99000     Na( 1.00)

     12 Sym. Ops., with inversion, found



   Cartesian axes

     site n.     atom                  positions (alat units)
         1           Na  tau(   1) = (   1.2522513   1.2522513   1.2522513  )
         2           Na  tau(   2) = (   0.4816410   0.4816410   0.4816410  )
         3           Na  tau(   3) = (   0.8669462   0.8669462   0.8669462  )

     number of k points=   770  Marzari-Vanderbilt smearing, width (Ry)=  0.0200

     Number of k-points >= 100: set verbosity='high' to print them.

     Dense  grid:    68845 G-vectors     FFT dimensions: ( 100, 100, 100)

     Smooth grid:    24141 G-vectors     FFT dimensions: (  72,  72,  72)

     Estimated max dynamical RAM per process >      17.28MB

     Estimated total allocated dynamical RAM >    1105.67MB

     Initial potential from superposition of free atoms

     starting charge   26.98113, renormalised to   27.00000
     Starting wfc are   15 randomized atomic wfcs +    3 random wfc

     Writing output data file na.9r.save

     total cpu time spent up to now is     4226.4 secs

     per-process dynamical memory:    34.7 Mb

     Self-consistent Calculation

     iteration #  1     ecut=    40.00 Ry     beta=0.70
     Davidson diagonalization with overlap
     c_bands:  1 eigenvalues not converged
     c_bands:  1 eigenvalues not converged
     c_bands:  1 eigenvalues not converged
     c_bands:  1 eigenvalues not converged
     c_bands:  1 eigenvalues not converged
     c_bands:  1 eigenvalues not converged
     ethr =  1.00E-06,  avg # of iterations = 13.9

     total cpu time spent up to now is     4310.3 secs

     total energy              =    -285.31883321 Ry
     Harris-Foulkes estimate   =    -285.31953022 Ry
     estimated scf accuracy    <       0.00269766 Ry

     iteration #  2     ecut=    40.00 Ry     beta=0.70
     Davidson diagonalization with overlap
     ethr =  9.99E-06,  avg # of iterations =  2.0

     total cpu time spent up to now is     4347.1 secs

     total energy              =    -285.31915479 Ry
     Harris-Foulkes estimate   =    -285.31922648 Ry
     estimated scf accuracy    <       0.00030404 Ry

     iteration #  3     ecut=    40.00 Ry     beta=0.70
     Davidson diagonalization with overlap
     ethr =  1.13E-06,  avg # of iterations =  2.0

     total cpu time spent up to now is     4385.8 secs

     total energy              =    -285.31918616 Ry
     Harris-Foulkes estimate   =    -285.31919070 Ry
     estimated scf accuracy    <       0.00001981 Ry

     iteration #  4     ecut=    40.00 Ry     beta=0.70
     Davidson diagonalization with overlap
     ethr =  7.34E-08,  avg # of iterations =  1.6

     total cpu time spent up to now is     4417.8 secs

     total energy              =    -285.31918766 Ry
     Harris-Foulkes estimate   =    -285.31918873 Ry
     estimated scf accuracy    <       0.00000357 Ry

     iteration #  5     ecut=    40.00 Ry     beta=0.70
     Davidson diagonalization with overlap
     ethr =  1.32E-08,  avg # of iterations =  1.2

     total cpu time spent up to now is     4448.8 secs

     total energy              =    -285.31918840 Ry
     Harris-Foulkes estimate   =    -285.31918840 Ry
     estimated scf accuracy    <       0.00000009 Ry

     iteration #  6     ecut=    40.00 Ry     beta=0.70
     Davidson diagonalization with overlap
     ethr =  3.35E-10,  avg # of iterations =  2.2

     total cpu time spent up to now is     4487.4 secs

     total energy              =    -285.31918842 Ry
     Harris-Foulkes estimate   =    -285.31918843 Ry
     estimated scf accuracy    <       0.00000001 Ry

     iteration #  7     ecut=    40.00 Ry     beta=0.70
     Davidson diagonalization with overlap
     ethr =  4.65E-11,  avg # of iterations =  2.0

     total cpu time spent up to now is     4526.4 secs

     total energy              =    -285.31918843 Ry
     Harris-Foulkes estimate   =    -285.31918843 Ry
     estimated scf accuracy    <          9.3E-11 Ry

     iteration #  8     ecut=    40.00 Ry     beta=0.70
     Davidson diagonalization with overlap
     ethr =  3.43E-13,  avg # of iterations =  2.7

     total cpu time spent up to now is     4565.7 secs

     total energy              =    -285.31918843 Ry
     Harris-Foulkes estimate   =    -285.31918843 Ry
     estimated scf accuracy    <          2.8E-12 Ry

     iteration #  9     ecut=    40.00 Ry     beta=0.70
     Davidson diagonalization with overlap
     ethr =  1.00E-13,  avg # of iterations =  1.0

     total cpu time spent up to now is     4595.8 secs

     End of self-consistent calculation

     Number of k-points >= 100: set verbosity='high' to print the bands.

     the Fermi energy is     1.8348 ev

!    total energy              =    -285.31918843 Ry
     Harris-Foulkes estimate   =    -285.31918843 Ry
     estimated scf accuracy    <          4.0E-13 Ry

     The total energy is the sum of the following terms:

     one-electron contribution =    -260.91733453 Ry
     hartree contribution      =     131.81855666 Ry
     xc contribution           =     -42.82658359 Ry
     ewald contribution        =    -113.39369630 Ry
     smearing contrib. (-TS)   =      -0.00013067 Ry

     convergence has been achieved in   9 iterations

     Forces acting on atoms (cartesian axes, Ry/au):

     atom    1 type  1   force =     0.00000229    0.00000229    0.00000229
     atom    2 type  1   force =    -0.00000229   -0.00000229   -0.00000229
     atom    3 type  1   force =     0.00000000   -0.00000000    0.00000000

     Total force =     0.000006     Total SCF correction =     0.000001


     Computing stress (Cartesian axis) and pressure

          total   stress  (Ry/bohr**3)                   (kbar)     P=    1.65
   0.00001120   0.00000021   0.00000021          1.65      0.03      0.03
   0.00000021   0.00001120   0.00000021          0.03      1.65      0.03
   0.00000021   0.00000021   0.00001120          0.03      0.03      1.65


     Writing output data file na.9r.save

     init_run     :     23.91s CPU     24.39s WALL (       2 calls)
     electrons    :   4467.50s CPU   4517.05s WALL (       9 calls)
     update_pot   :      4.92s CPU      5.16s WALL (       7 calls)
     forces       :      6.09s CPU      6.16s WALL (       9 calls)
     stress       :     18.57s CPU     18.66s WALL (       9 calls)

     Called by init_run:
     wfcinit      :     22.03s CPU     22.42s WALL (       2 calls)
     potinit      :      0.68s CPU      0.71s WALL (       2 calls)

     Called by electrons:
     c_bands      :   3677.65s CPU   3717.26s WALL (     128 calls)
     sum_band     :    763.47s CPU    772.30s WALL (     128 calls)
     v_of_rho     :     17.66s CPU     18.17s WALL (     134 calls)
     newd         :      5.45s CPU      5.52s WALL (     134 calls)
     mix_rho      :      1.56s CPU      1.70s WALL (     128 calls)

     Called by c_bands:
     init_us_2    :     17.82s CPU     18.14s WALL (   53268 calls)
     cegterg      :   3470.60s CPU   3508.45s WALL (   24704 calls)

     Called by sum_band:
     sum_band:bec :      1.10s CPU      1.12s WALL (   24704 calls)
     addusdens    :      5.64s CPU      5.77s WALL (     128 calls)

     Called by *egterg:
     h_psi        :   3279.59s CPU   3314.51s WALL (   69900 calls)
     s_psi        :     13.26s CPU     13.75s WALL (   69900 calls)
     g_psi        :      1.99s CPU      2.02s WALL (   44810 calls)
     cdiaghg      :    109.72s CPU    110.71s WALL (   67584 calls)

     Called by h_psi:
     h_psi:pot    :   3276.98s CPU   3311.83s WALL (   69900 calls)
     h_psi:calbec :     29.60s CPU     30.33s WALL (   69900 calls)
     vloc_psi     :   3232.35s CPU   3266.11s WALL (   69900 calls)
     add_vuspsi   :     14.25s CPU     14.64s WALL (   69900 calls)

     General routines
     calbec       :     45.56s CPU     46.48s WALL (  103289 calls)
     fft          :     10.97s CPU     11.90s WALL (    2199 calls)
     ffts         :      0.46s CPU      0.51s WALL (     262 calls)
     fftw         :   3402.29s CPU   3438.56s WALL ( 2551384 calls)
     interpolate  :      1.82s CPU      1.96s WALL (     262 calls)
     davcio       :      0.01s CPU      0.21s WALL (     386 calls)

     Parallel routines
     fft_scatter  :    803.23s CPU    817.69s WALL ( 2553845 calls)

     PWSCF        :     1h15m CPU        1h16m WALL


   This run was terminated on:  13: 1: 2   7Mar2018            

=------------------------------------------------------------------------------=
   JOB DONE.
=------------------------------------------------------------------------------=
