
     Program PWSCF v.6.1 (svn rev. 13369) starts on 12Feb2018 at 11: 3:33 

     This program is part of the open-source Quantum ESPRESSO suite
     for quantum simulation of materials; please cite
         "P. Giannozzi et al., J. Phys.:Condens. Matter 21 395502 (2009);
          URL http://www.quantum-espresso.org", 
     in publications or presentations arising from this work. More details at
     http://www.quantum-espresso.org/quote

     Parallel version (MPI), running on    64 processors
     K-points division:     npool     =       4
     R & G space division:  proc/nbgrp/npool/nimage =      16
     Waiting for input...
     Reading input from standard input

     Current dimensions of program PWSCF are:
     Max number of different atomic species (ntypx) = 10
     Max number of k-points (npk) =  80000
     Max angular momentum in pseudopotentials (lmaxx) =  3

     Subspace diagonalization in iterative solution of the eigenvalue problem:
     a serial algorithm will be used


     Parallelization info
     --------------------
     sticks:   dense  smooth     PW     G-vecs:    dense   smooth      PW
     Min         180      90     29                 4007     1420     274
     Max         181      91     30                 4009     1421     277
     Sum        2893    1447    473                64127    22723    4407



     bravais-lattice index     =           -5
     lattice parameter (alat)  =      17.0000  a.u.
     unit-cell volume          =     662.3628 (a.u.)^3
     number of atoms/cell      =            3
     number of atomic types    =            1
     number of electrons       =        27.00
     number of Kohn-Sham states=           18
     kinetic-energy cutoff     =      40.0000  Ry
     charge density cutoff     =     320.0000  Ry
     convergence threshold     =      1.0E-10
     mixing beta               =       0.7000
     number of iterations used =            8  plain     mixing
     Exchange-correlation      = SLA  PW   PBE  PBE ( 1  4  3  4 0 0)
     nstep                     =           50


     celldm(1)=  17.000000  celldm(2)=   0.000000  celldm(3)=   0.000000
     celldm(4)=   0.920000  celldm(5)=   0.000000  celldm(6)=   0.000000

     crystal axes: (cart. coord. in units of alat)
               a(1) = (   0.373182   0.656024   0.656024 )  
               a(2) = (   0.656024   0.373182   0.656024 )  
               a(3) = (   0.656024   0.656024   0.373182 )  

     reciprocal axes: (cart. coord. in units 2 pi/alat)
               b(1) = ( -2.159226  1.376308  1.376308 )  
               b(2) = (  1.376308 -2.159226  1.376308 )  
               b(3) = (  1.376308  1.376308 -2.159226 )  


     PseudoPot. # 1 for Na read from file:
     /home/s1333534/quantum_espresso/qe-6.1/pseudo/Na_pbe_v1.uspp.F.UPF
     MD5 check sum: 76a99c7e9422403d3e93cbc85ab7bccb
     Pseudo is Ultrasoft, Zval =  9.0
     Generated by new atomic code, or converted to UPF format
     Using radial grid of  819 points,  5 beta functions with: 
                l(1) =   0
                l(2) =   0
                l(3) =   1
                l(4) =   1
                l(5) =   2
     Q(r) pseudized with  8 coefficients,  rinner =    1.250   1.250   1.250
                                                       1.250   1.250

     atomic species   valence    mass     pseudopotential
        Na             9.00    22.99000     Na( 1.00)

     12 Sym. Ops., with inversion, found



   Cartesian axes

     site n.     atom                  positions (alat units)
         1           Na  tau(   1) = (   1.2171236   1.2171236   1.2171236  )
         2           Na  tau(   2) = (   0.4681063   0.4681063   0.4681063  )
         3           Na  tau(   3) = (   0.8426150   0.8426150   0.8426150  )

     number of k points=   770  Marzari-Vanderbilt smearing, width (Ry)=  0.0200

     Number of k-points >= 100: set verbosity='high' to print them.

     Dense  grid:    64127 G-vectors     FFT dimensions: ( 100, 100, 100)

     Smooth grid:    22723 G-vectors     FFT dimensions: (  72,  72,  72)

     Estimated max dynamical RAM per process >      16.43MB

     Estimated total allocated dynamical RAM >    1051.57MB

     Initial potential from superposition of free atoms

     starting charge   26.98113, renormalised to   27.00000
     Starting wfc are   15 randomized atomic wfcs +    3 random wfc

     total cpu time spent up to now is       12.4 secs

     per-process dynamical memory:    26.9 Mb

     Self-consistent Calculation

     iteration #  1     ecut=    40.00 Ry     beta=0.70
     Davidson diagonalization with overlap
     ethr =  1.00E-02,  avg # of iterations =  5.5

     Threshold (ethr) on eigenvalues was too large:
     Diagonalizing with lowered threshold

     Davidson diagonalization with overlap
     ethr =  9.94E-06,  avg # of iterations =  7.4

     total cpu time spent up to now is      103.8 secs

     total energy              =    -285.31611804 Ry
     Harris-Foulkes estimate   =    -285.31691275 Ry
     estimated scf accuracy    <       0.00278138 Ry

     iteration #  2     ecut=    40.00 Ry     beta=0.70
     Davidson diagonalization with overlap
     ethr =  1.03E-05,  avg # of iterations =  2.0

     total cpu time spent up to now is      140.5 secs

     total energy              =    -285.31642367 Ry
     Harris-Foulkes estimate   =    -285.31648847 Ry
     estimated scf accuracy    <       0.00029290 Ry

     iteration #  3     ecut=    40.00 Ry     beta=0.70
     Davidson diagonalization with overlap
     ethr =  1.08E-06,  avg # of iterations =  2.0

     total cpu time spent up to now is      178.9 secs

     total energy              =    -285.31645236 Ry
     Harris-Foulkes estimate   =    -285.31645641 Ry
     estimated scf accuracy    <       0.00001799 Ry

     iteration #  4     ecut=    40.00 Ry     beta=0.70
     Davidson diagonalization with overlap
     ethr =  6.66E-08,  avg # of iterations =  2.0

     total cpu time spent up to now is      212.8 secs

     total energy              =    -285.31645427 Ry
     Harris-Foulkes estimate   =    -285.31645415 Ry
     estimated scf accuracy    <       0.00000006 Ry

     iteration #  5     ecut=    40.00 Ry     beta=0.70
     Davidson diagonalization with overlap
     ethr =  2.37E-10,  avg # of iterations =  3.3

     total cpu time spent up to now is      253.6 secs

     total energy              =    -285.31645434 Ry
     Harris-Foulkes estimate   =    -285.31645441 Ry
     estimated scf accuracy    <       0.00000026 Ry

     iteration #  6     ecut=    40.00 Ry     beta=0.70
     Davidson diagonalization with overlap
     ethr =  2.37E-10,  avg # of iterations =  1.3

     total cpu time spent up to now is      284.6 secs

     total energy              =    -285.31645438 Ry
     Harris-Foulkes estimate   =    -285.31645438 Ry
     estimated scf accuracy    <          1.7E-09 Ry

     iteration #  7     ecut=    40.00 Ry     beta=0.70
     Davidson diagonalization with overlap
     ethr =  6.46E-12,  avg # of iterations =  2.0

     total cpu time spent up to now is      316.8 secs

     total energy              =    -285.31645438 Ry
     Harris-Foulkes estimate   =    -285.31645438 Ry
     estimated scf accuracy    <          2.5E-10 Ry

     iteration #  8     ecut=    40.00 Ry     beta=0.70
     Davidson diagonalization with overlap
     ethr =  9.24E-13,  avg # of iterations =  1.9

     total cpu time spent up to now is      348.8 secs

     End of self-consistent calculation

     Number of k-points >= 100: set verbosity='high' to print the bands.

     the Fermi energy is     2.1616 ev

!    total energy              =    -285.31645438 Ry
     Harris-Foulkes estimate   =    -285.31645438 Ry
     estimated scf accuracy    <          6.2E-13 Ry

     The total energy is the sum of the following terms:

     one-electron contribution =    -256.14327683 Ry
     hartree contribution      =     129.80226548 Ry
     xc contribution           =     -42.85565928 Ry
     ewald contribution        =    -116.11964061 Ry
     smearing contrib. (-TS)   =      -0.00014315 Ry

     convergence has been achieved in   8 iterations

     Forces acting on atoms (cartesian axes, Ry/au):

     atom    1 type  1   force =    -0.00000461   -0.00000461   -0.00000461
     atom    2 type  1   force =     0.00000461    0.00000461    0.00000461
     atom    3 type  1   force =    -0.00000000   -0.00000000    0.00000000

     Total force =     0.000011     Total SCF correction =     0.000000


     Computing stress (Cartesian axis) and pressure

          total   stress  (Ry/bohr**3)                   (kbar)     P=    9.02
   0.00006132   0.00000277   0.00000277          9.02      0.41      0.41
   0.00000277   0.00006132   0.00000277          0.41      9.02      0.41
   0.00000277   0.00000277   0.00006132          0.41      0.41      9.02


     BFGS Geometry Optimization

     number of scf cycles    =   1
     number of bfgs steps    =   0

     enthalpy new            =    -285.3434702906 Ry

     new trust radius        =       0.0131495541 bohr
     new conv_thr            =            1.0E-10 Ry

     new unit-cell volume =    667.44834 a.u.^3 (    98.90564 Ang^3 )
     density =      1.15795 g/cm^3

CELL_PARAMETERS (alat= 17.00000000)
   0.374224956   0.657770132   0.657770132
   0.657770132   0.374224956   0.657770132
   0.657770132   0.657770132   0.374224956

ATOMIC_POSITIONS (crystal)
Na       0.722229839   0.722229839   0.722229839
Na       0.277770161   0.277770161   0.277770161
Na       0.500000000   0.500000000   0.500000000



     Writing output data file na.9r.save
     NEW-OLD atomic charge density approx. for the potential
     extrapolated charge   27.20558, renormalised to   27.00000

     total cpu time spent up to now is      355.2 secs

     per-process dynamical memory:    35.6 Mb

     Self-consistent Calculation

     iteration #  1     ecut=    40.00 Ry     beta=0.70
     Davidson diagonalization with overlap
     ethr =  1.00E-06,  avg # of iterations =  3.1

     total cpu time spent up to now is      404.1 secs

     total energy              =    -285.30727854 Ry
     Harris-Foulkes estimate   =    -283.75888438 Ry
     estimated scf accuracy    <       0.00528893 Ry

     iteration #  2     ecut=    40.00 Ry     beta=0.70
     Davidson diagonalization with overlap
     ethr =  1.96E-05,  avg # of iterations =  3.0

     total cpu time spent up to now is      452.4 secs

     total energy              =    -285.31694981 Ry
     Harris-Foulkes estimate   =    -285.32084157 Ry
     estimated scf accuracy    <       0.00886849 Ry

     iteration #  3     ecut=    40.00 Ry     beta=0.70
     Davidson diagonalization with overlap
     ethr =  1.96E-05,  avg # of iterations =  2.0

     total cpu time spent up to now is      488.0 secs

     total energy              =    -285.31691964 Ry
     Harris-Foulkes estimate   =    -285.31753184 Ry
     estimated scf accuracy    <       0.00172423 Ry

     iteration #  4     ecut=    40.00 Ry     beta=0.70
     Davidson diagonalization with overlap
     ethr =  6.39E-06,  avg # of iterations =  1.0

     total cpu time spent up to now is      518.4 secs

     total energy              =    -285.31699658 Ry
     Harris-Foulkes estimate   =    -285.31699255 Ry
     estimated scf accuracy    <       0.00055442 Ry

     iteration #  5     ecut=    40.00 Ry     beta=0.70
     Davidson diagonalization with overlap
     ethr =  2.05E-06,  avg # of iterations =  1.0

     total cpu time spent up to now is      549.1 secs

     total energy              =    -285.31685104 Ry
     Harris-Foulkes estimate   =    -285.31700112 Ry
     estimated scf accuracy    <       0.00057296 Ry

     iteration #  6     ecut=    40.00 Ry     beta=0.70
     Davidson diagonalization with overlap
     ethr =  2.05E-06,  avg # of iterations =  1.0

     total cpu time spent up to now is      579.5 secs

     total energy              =    -285.31680966 Ry
     Harris-Foulkes estimate   =    -285.31686586 Ry
     estimated scf accuracy    <       0.00026203 Ry

     iteration #  7     ecut=    40.00 Ry     beta=0.70
     Davidson diagonalization with overlap
     ethr =  9.70E-07,  avg # of iterations =  1.0

     total cpu time spent up to now is      609.8 secs

     total energy              =    -285.31675087 Ry
     Harris-Foulkes estimate   =    -285.31681465 Ry
     estimated scf accuracy    <       0.00014039 Ry

     iteration #  8     ecut=    40.00 Ry     beta=0.70
     Davidson diagonalization with overlap
     ethr =  5.20E-07,  avg # of iterations =  1.0

     total cpu time spent up to now is      639.9 secs

     total energy              =    -285.31674509 Ry
     Harris-Foulkes estimate   =    -285.31676012 Ry
     estimated scf accuracy    <       0.00002605 Ry

     iteration #  9     ecut=    40.00 Ry     beta=0.70
     Davidson diagonalization with overlap
     ethr =  9.65E-08,  avg # of iterations =  2.0

     total cpu time spent up to now is      677.1 secs

     total energy              =    -285.31674977 Ry
     Harris-Foulkes estimate   =    -285.31674966 Ry
     estimated scf accuracy    <       0.00000094 Ry

     iteration # 10     ecut=    40.00 Ry     beta=0.70
     Davidson diagonalization with overlap
     ethr =  3.49E-09,  avg # of iterations =  1.0

     total cpu time spent up to now is      707.5 secs

     total energy              =    -285.31674897 Ry
     Harris-Foulkes estimate   =    -285.31674979 Ry
     estimated scf accuracy    <       0.00000121 Ry

     iteration # 11     ecut=    40.00 Ry     beta=0.70
     Davidson diagonalization with overlap
     ethr =  3.49E-09,  avg # of iterations =  2.0

     total cpu time spent up to now is      746.0 secs

     total energy              =    -285.31674923 Ry
     Harris-Foulkes estimate   =    -285.31674923 Ry
     estimated scf accuracy    <          3.2E-09 Ry

     iteration # 12     ecut=    40.00 Ry     beta=0.70
     Davidson diagonalization with overlap
     ethr =  1.18E-11,  avg # of iterations =  2.7

     total cpu time spent up to now is      783.6 secs

     total energy              =    -285.31674923 Ry
     Harris-Foulkes estimate   =    -285.31674923 Ry
     estimated scf accuracy    <          4.6E-09 Ry

     iteration # 13     ecut=    40.00 Ry     beta=0.70
     Davidson diagonalization with overlap
     ethr =  1.18E-11,  avg # of iterations =  1.0

     total cpu time spent up to now is      813.9 secs

     total energy              =    -285.31674923 Ry
     Harris-Foulkes estimate   =    -285.31674923 Ry
     estimated scf accuracy    <          3.7E-09 Ry

     iteration # 14     ecut=    40.00 Ry     beta=0.70
     Davidson diagonalization with overlap
     ethr =  1.18E-11,  avg # of iterations =  1.0

     total cpu time spent up to now is      844.5 secs

     total energy              =    -285.31674923 Ry
     Harris-Foulkes estimate   =    -285.31674923 Ry
     estimated scf accuracy    <          2.2E-09 Ry

     iteration # 15     ecut=    40.00 Ry     beta=0.70
     Davidson diagonalization with overlap
     ethr =  8.22E-12,  avg # of iterations =  1.0

     total cpu time spent up to now is      875.1 secs

     total energy              =    -285.31674923 Ry
     Harris-Foulkes estimate   =    -285.31674923 Ry
     estimated scf accuracy    <          2.2E-09 Ry

     iteration # 16     ecut=    40.00 Ry     beta=0.70
     Davidson diagonalization with overlap
     ethr =  8.22E-12,  avg # of iterations =  1.0

     total cpu time spent up to now is      905.8 secs

     total energy              =    -285.31674923 Ry
     Harris-Foulkes estimate   =    -285.31674923 Ry
     estimated scf accuracy    <          2.6E-09 Ry

     iteration # 17     ecut=    40.00 Ry     beta=0.70
     Davidson diagonalization with overlap
     ethr =  8.22E-12,  avg # of iterations =  1.0

     total cpu time spent up to now is      936.0 secs

     total energy              =    -285.31674923 Ry
     Harris-Foulkes estimate   =    -285.31674923 Ry
     estimated scf accuracy    <          2.9E-09 Ry

     iteration # 18     ecut=    40.00 Ry     beta=0.70
     Davidson diagonalization with overlap
     ethr =  8.22E-12,  avg # of iterations =  1.9

     total cpu time spent up to now is      967.9 secs

     total energy              =    -285.31674923 Ry
     Harris-Foulkes estimate   =    -285.31674923 Ry
     estimated scf accuracy    <          5.3E-10 Ry

     iteration # 19     ecut=    40.00 Ry     beta=0.70
     Davidson diagonalization with overlap
     ethr =  1.96E-12,  avg # of iterations =  1.0

     total cpu time spent up to now is      997.9 secs

     total energy              =    -285.31674923 Ry
     Harris-Foulkes estimate   =    -285.31674923 Ry
     estimated scf accuracy    <          4.6E-10 Ry

     iteration # 20     ecut=    40.00 Ry     beta=0.70
     Davidson diagonalization with overlap
     ethr =  1.69E-12,  avg # of iterations =  1.0

     total cpu time spent up to now is     1028.3 secs

     total energy              =    -285.31674923 Ry
     Harris-Foulkes estimate   =    -285.31674923 Ry
     estimated scf accuracy    <          2.6E-10 Ry

     iteration # 21     ecut=    40.00 Ry     beta=0.70
     Davidson diagonalization with overlap
     ethr =  9.48E-13,  avg # of iterations =  1.9

     total cpu time spent up to now is     1060.3 secs

     total energy              =    -285.31674923 Ry
     Harris-Foulkes estimate   =    -285.31674923 Ry
     estimated scf accuracy    <          2.2E-10 Ry

     iteration # 22     ecut=    40.00 Ry     beta=0.70
     Davidson diagonalization with overlap
     ethr =  8.26E-13,  avg # of iterations =  2.0

     total cpu time spent up to now is     1097.8 secs

     End of self-consistent calculation

     Number of k-points >= 100: set verbosity='high' to print the bands.

     the Fermi energy is     2.1252 ev

!    total energy              =    -285.31674923 Ry
     Harris-Foulkes estimate   =    -285.31674923 Ry
     estimated scf accuracy    <          2.5E-13 Ry

     The total energy is the sum of the following terms:

     one-electron contribution =    -256.66032549 Ry
     hartree contribution      =     130.02017723 Ry
     xc contribution           =     -42.85243800 Ry
     ewald contribution        =    -115.82402032 Ry
     smearing contrib. (-TS)   =      -0.00014265 Ry

     convergence has been achieved in  22 iterations

     Forces acting on atoms (cartesian axes, Ry/au):

     atom    1 type  1   force =    -0.00000401   -0.00000401   -0.00000401
     atom    2 type  1   force =     0.00000401    0.00000401    0.00000401
     atom    3 type  1   force =     0.00000000    0.00000000    0.00000000

     Total force =     0.000010     Total SCF correction =     0.000000


     Computing stress (Cartesian axis) and pressure

          total   stress  (Ry/bohr**3)                   (kbar)     P=    8.00
   0.00005437   0.00000263   0.00000263          8.00      0.39      0.39
   0.00000263   0.00005437   0.00000263          0.39      8.00      0.39
   0.00000263   0.00000263   0.00005437          0.39      0.39      8.00


     number of scf cycles    =   2
     number of bfgs steps    =   1

     enthalpy old            =    -285.3434702906 Ry
     enthalpy new            =    -285.3439725653 Ry

     CASE: enthalpy_new < enthalpy_old


     WARNING: bfgs curvature condition failed, Theta= 0.854
     new trust radius        =       0.0144828506 bohr
     new conv_thr            =            1.0E-12 Ry

     new unit-cell volume =    673.07232 a.u.^3 (    99.73903 Ang^3 )
     density =      1.14827 g/cm^3

CELL_PARAMETERS (alat= 17.00000000)
   0.375373984   0.659691585   0.659691585
   0.659691585   0.375373984   0.659691585
   0.659691585   0.659691585   0.375373984

ATOMIC_POSITIONS (crystal)
Na       0.722229670   0.722229670   0.722229670
Na       0.277770330   0.277770330   0.277770330
Na       0.500000000   0.500000000   0.500000000



     Writing output data file na.9r.save
     NEW-OLD atomic charge density approx. for the potential
     extrapolated charge   27.22545, renormalised to   27.00000

     total cpu time spent up to now is     1104.1 secs

     per-process dynamical memory:    35.6 Mb

     Self-consistent Calculation

     iteration #  1     ecut=    40.00 Ry     beta=0.70
     Davidson diagonalization with overlap
     ethr =  1.00E-06,  avg # of iterations =  3.1

     total cpu time spent up to now is     1152.8 secs

     total energy              =    -285.30560638 Ry
     Harris-Foulkes estimate   =    -283.60441464 Ry
     estimated scf accuracy    <       0.00638081 Ry

     iteration #  2     ecut=    40.00 Ry     beta=0.70
     Davidson diagonalization with overlap
     ethr =  2.36E-05,  avg # of iterations =  3.0

     total cpu time spent up to now is     1200.7 secs

     total energy              =    -285.31727979 Ry
     Harris-Foulkes estimate   =    -285.32197525 Ry
     estimated scf accuracy    <       0.01069993 Ry

     iteration #  3     ecut=    40.00 Ry     beta=0.70
     Davidson diagonalization with overlap
     ethr =  2.36E-05,  avg # of iterations =  2.0

     total cpu time spent up to now is     1235.9 secs

     total energy              =    -285.31723864 Ry
     Harris-Foulkes estimate   =    -285.31798098 Ry
     estimated scf accuracy    <       0.00208332 Ry

     iteration #  4     ecut=    40.00 Ry     beta=0.70
     Davidson diagonalization with overlap
     ethr =  7.72E-06,  avg # of iterations =  1.0

     total cpu time spent up to now is     1266.2 secs

     total energy              =    -285.31733504 Ry
     Harris-Foulkes estimate   =    -285.31732721 Ry
     estimated scf accuracy    <       0.00066634 Ry

     iteration #  5     ecut=    40.00 Ry     beta=0.70
     Davidson diagonalization with overlap
     ethr =  2.47E-06,  avg # of iterations =  1.0

     total cpu time spent up to now is     1296.3 secs

     total energy              =    -285.31716060 Ry
     Harris-Foulkes estimate   =    -285.31734051 Ry
     estimated scf accuracy    <       0.00069528 Ry

     iteration #  6     ecut=    40.00 Ry     beta=0.70
     Davidson diagonalization with overlap
     ethr =  2.47E-06,  avg # of iterations =  1.0

     total cpu time spent up to now is     1326.3 secs

     total energy              =    -285.31711116 Ry
     Harris-Foulkes estimate   =    -285.31717820 Ry
     estimated scf accuracy    <       0.00032167 Ry

     iteration #  7     ecut=    40.00 Ry     beta=0.70
     Davidson diagonalization with overlap
     ethr =  1.19E-06,  avg # of iterations =  1.0

     total cpu time spent up to now is     1356.1 secs

     total energy              =    -285.31703898 Ry
     Harris-Foulkes estimate   =    -285.31711698 Ry
     estimated scf accuracy    <       0.00017605 Ry

     iteration #  8     ecut=    40.00 Ry     beta=0.70
     Davidson diagonalization with overlap
     ethr =  6.52E-07,  avg # of iterations =  1.0

     total cpu time spent up to now is     1386.5 secs

     total energy              =    -285.31702865 Ry
     Harris-Foulkes estimate   =    -285.31704984 Ry
     estimated scf accuracy    <       0.00003545 Ry

     iteration #  9     ecut=    40.00 Ry     beta=0.70
     Davidson diagonalization with overlap
     ethr =  1.31E-07,  avg # of iterations =  2.0

     total cpu time spent up to now is     1423.6 secs

     total energy              =    -285.31703534 Ry
     Harris-Foulkes estimate   =    -285.31703521 Ry
     estimated scf accuracy    <       0.00000081 Ry

     iteration # 10     ecut=    40.00 Ry     beta=0.70
     Davidson diagonalization with overlap
     ethr =  2.98E-09,  avg # of iterations =  1.2

     total cpu time spent up to now is     1454.0 secs

     total energy              =    -285.31703460 Ry
     Harris-Foulkes estimate   =    -285.31703536 Ry
     estimated scf accuracy    <       0.00000110 Ry

     iteration # 11     ecut=    40.00 Ry     beta=0.70
     Davidson diagonalization with overlap
     ethr =  2.98E-09,  avg # of iterations =  2.0

     total cpu time spent up to now is     1492.3 secs

     total energy              =    -285.31703485 Ry
     Harris-Foulkes estimate   =    -285.31703485 Ry
     estimated scf accuracy    <       0.00000001 Ry

     iteration # 12     ecut=    40.00 Ry     beta=0.70
     Davidson diagonalization with overlap
     ethr =  4.19E-11,  avg # of iterations =  2.0

     total cpu time spent up to now is     1524.3 secs

     total energy              =    -285.31703485 Ry
     Harris-Foulkes estimate   =    -285.31703485 Ry
     estimated scf accuracy    <       0.00000002 Ry

     iteration # 13     ecut=    40.00 Ry     beta=0.70
     Davidson diagonalization with overlap
     ethr =  4.19E-11,  avg # of iterations =  1.0

     total cpu time spent up to now is     1554.7 secs

     total energy              =    -285.31703485 Ry
     Harris-Foulkes estimate   =    -285.31703485 Ry
     estimated scf accuracy    <       0.00000002 Ry

     iteration # 14     ecut=    40.00 Ry     beta=0.70
     Davidson diagonalization with overlap
     ethr =  4.19E-11,  avg # of iterations =  1.0

     total cpu time spent up to now is     1584.7 secs

     total energy              =    -285.31703485 Ry
     Harris-Foulkes estimate   =    -285.31703485 Ry
     estimated scf accuracy    <       0.00000002 Ry

     iteration # 15     ecut=    40.00 Ry     beta=0.70
     Davidson diagonalization with overlap
     ethr =  4.19E-11,  avg # of iterations =  2.0

     total cpu time spent up to now is     1623.4 secs

     total energy              =    -285.31703485 Ry
     Harris-Foulkes estimate   =    -285.31703485 Ry
     estimated scf accuracy    <          5.7E-09 Ry

     iteration # 16     ecut=    40.00 Ry     beta=0.70
     Davidson diagonalization with overlap
     ethr =  2.10E-11,  avg # of iterations =  1.0

     total cpu time spent up to now is     1653.7 secs

     total energy              =    -285.31703485 Ry
     Harris-Foulkes estimate   =    -285.31703485 Ry
     estimated scf accuracy    <          4.2E-09 Ry

     iteration # 17     ecut=    40.00 Ry     beta=0.70
     Davidson diagonalization with overlap
     ethr =  1.55E-11,  avg # of iterations =  1.0

     total cpu time spent up to now is     1684.2 secs

     total energy              =    -285.31703485 Ry
     Harris-Foulkes estimate   =    -285.31703485 Ry
     estimated scf accuracy    <          4.4E-09 Ry

     iteration # 18     ecut=    40.00 Ry     beta=0.70
     Davidson diagonalization with overlap
     ethr =  1.55E-11,  avg # of iterations =  1.9

     total cpu time spent up to now is     1716.1 secs

     total energy              =    -285.31703485 Ry
     Harris-Foulkes estimate   =    -285.31703485 Ry
     estimated scf accuracy    <          5.1E-09 Ry

     iteration # 19     ecut=    40.00 Ry     beta=0.70
     Davidson diagonalization with overlap
     ethr =  1.55E-11,  avg # of iterations =  1.0

     total cpu time spent up to now is     1746.5 secs

     total energy              =    -285.31703485 Ry
     Harris-Foulkes estimate   =    -285.31703485 Ry
     estimated scf accuracy    <          5.3E-10 Ry

     iteration # 20     ecut=    40.00 Ry     beta=0.70
     Davidson diagonalization with overlap
     ethr =  1.97E-12,  avg # of iterations =  1.0

     total cpu time spent up to now is     1776.5 secs

     total energy              =    -285.31703485 Ry
     Harris-Foulkes estimate   =    -285.31703485 Ry
     estimated scf accuracy    <          7.4E-11 Ry

     iteration # 21     ecut=    40.00 Ry     beta=0.70
     Davidson diagonalization with overlap
     ethr =  2.72E-13,  avg # of iterations =  2.0

     total cpu time spent up to now is     1815.0 secs

     total energy              =    -285.31703485 Ry
     Harris-Foulkes estimate   =    -285.31703485 Ry
     estimated scf accuracy    <          2.5E-12 Ry

     iteration # 22     ecut=    40.00 Ry     beta=0.70
     Davidson diagonalization with overlap
     ethr =  1.00E-13,  avg # of iterations =  1.0

     total cpu time spent up to now is     1845.1 secs

     End of self-consistent calculation

     Number of k-points >= 100: set verbosity='high' to print the bands.

     the Fermi energy is     2.0857 ev

!    total energy              =    -285.31703485 Ry
     Harris-Foulkes estimate   =    -285.31703485 Ry
     estimated scf accuracy    <          4.1E-14 Ry

     The total energy is the sum of the following terms:

     one-electron contribution =    -257.22618885 Ry
     hartree contribution      =     130.25879813 Ry
     xc contribution           =     -42.84892393 Ry
     ewald contribution        =    -115.50057807 Ry
     smearing contrib. (-TS)   =      -0.00014214 Ry

     convergence has been achieved in  22 iterations

     Forces acting on atoms (cartesian axes, Ry/au):

     atom    1 type  1   force =    -0.00000389   -0.00000389   -0.00000389
     atom    2 type  1   force =     0.00000389    0.00000389    0.00000389
     atom    3 type  1   force =     0.00000000   -0.00000000    0.00000000

     Total force =     0.000010     Total SCF correction =     0.000000


     Computing stress (Cartesian axis) and pressure

          total   stress  (Ry/bohr**3)                   (kbar)     P=    6.91
   0.00004697   0.00000249   0.00000249          6.91      0.37      0.37
   0.00000249   0.00004697   0.00000249          0.37      6.91      0.37
   0.00000249   0.00000249   0.00004697          0.37      0.37      6.91


     number of scf cycles    =   3
     number of bfgs steps    =   2

     enthalpy old            =    -285.3439725653 Ry
     enthalpy new            =    -285.3444875688 Ry

     CASE: enthalpy_new < enthalpy_old

     new trust radius        =       0.0217544936 bohr
     new conv_thr            =            1.0E-12 Ry

     new unit-cell volume =    681.56709 a.u.^3 (   100.99782 Ang^3 )
     density =      1.13396 g/cm^3

CELL_PARAMETERS (alat= 17.00000000)
   0.377100388   0.662575964   0.662575964
   0.662575964   0.377100388   0.662575964
   0.662575964   0.662575964   0.377100388

ATOMIC_POSITIONS (crystal)
Na       0.722229406   0.722229406   0.722229406
Na       0.277770594   0.277770594   0.277770594
Na       0.500000000   0.500000000   0.500000000



     Writing output data file na.9r.save
     NEW-OLD atomic charge density approx. for the potential
     extrapolated charge   27.33628, renormalised to   27.00000

     total cpu time spent up to now is     1851.5 secs

     per-process dynamical memory:    35.6 Mb

     Self-consistent Calculation

     iteration #  1     ecut=    40.00 Ry     beta=0.70
     Davidson diagonalization with overlap
     ethr =  1.00E-06,  avg # of iterations =  3.6

     total cpu time spent up to now is     1904.0 secs

     total energy              =    -285.29155350 Ry
     Harris-Foulkes estimate   =    -282.75233365 Ry
     estimated scf accuracy    <       0.01441377 Ry

     iteration #  2     ecut=    40.00 Ry     beta=0.70
     Davidson diagonalization with overlap
     ethr =  5.34E-05,  avg # of iterations =  3.0

     total cpu time spent up to now is     1951.2 secs

     total energy              =    -285.31797887 Ry
     Harris-Foulkes estimate   =    -285.32858707 Ry
     estimated scf accuracy    <       0.02417423 Ry

     iteration #  3     ecut=    40.00 Ry     beta=0.70
     Davidson diagonalization with overlap
     ethr =  5.34E-05,  avg # of iterations =  2.0

     total cpu time spent up to now is     1986.6 secs

     total energy              =    -285.31785134 Ry
     Harris-Foulkes estimate   =    -285.31954934 Ry
     estimated scf accuracy    <       0.00474743 Ry

     iteration #  4     ecut=    40.00 Ry     beta=0.70
     Davidson diagonalization with overlap
     ethr =  1.76E-05,  avg # of iterations =  1.0

     total cpu time spent up to now is     2016.5 secs

     total energy              =    -285.31807202 Ry
     Harris-Foulkes estimate   =    -285.31805394 Ry
     estimated scf accuracy    <       0.00151236 Ry

     iteration #  5     ecut=    40.00 Ry     beta=0.70
     Davidson diagonalization with overlap
     ethr =  5.60E-06,  avg # of iterations =  1.0

     total cpu time spent up to now is     2046.8 secs

     total energy              =    -285.31768789 Ry
     Harris-Foulkes estimate   =    -285.31808451 Ry
     estimated scf accuracy    <       0.00157938 Ry

     iteration #  6     ecut=    40.00 Ry     beta=0.70
     Davidson diagonalization with overlap
     ethr =  5.60E-06,  avg # of iterations =  1.0

     total cpu time spent up to now is     2076.8 secs

     total energy              =    -285.31757650 Ry
     Harris-Foulkes estimate   =    -285.31772560 Ry
     estimated scf accuracy    <       0.00075239 Ry

     iteration #  7     ecut=    40.00 Ry     beta=0.70
     Davidson diagonalization with overlap
     ethr =  2.79E-06,  avg # of iterations =  1.0

     total cpu time spent up to now is     2107.1 secs

     total energy              =    -285.31741023 Ry
     Harris-Foulkes estimate   =    -285.31758877 Ry
     estimated scf accuracy    <       0.00042718 Ry

     iteration #  8     ecut=    40.00 Ry     beta=0.70
     Davidson diagonalization with overlap
     ethr =  1.58E-06,  avg # of iterations =  1.0

     total cpu time spent up to now is     2137.1 secs

     total energy              =    -285.31737216 Ry
     Harris-Foulkes estimate   =    -285.31743302 Ry
     estimated scf accuracy    <       0.00010143 Ry

     iteration #  9     ecut=    40.00 Ry     beta=0.70
     Davidson diagonalization with overlap
     ethr =  3.76E-07,  avg # of iterations =  2.0

     total cpu time spent up to now is     2174.5 secs

     total energy              =    -285.31738924 Ry
     Harris-Foulkes estimate   =    -285.31739022 Ry
     estimated scf accuracy    <       0.00000229 Ry

     iteration # 10     ecut=    40.00 Ry     beta=0.70
     Davidson diagonalization with overlap
     ethr =  8.47E-09,  avg # of iterations =  1.4

     total cpu time spent up to now is     2207.3 secs

     total energy              =    -285.31738906 Ry
     Harris-Foulkes estimate   =    -285.31738941 Ry
     estimated scf accuracy    <       0.00000056 Ry

     iteration # 11     ecut=    40.00 Ry     beta=0.70
     Davidson diagonalization with overlap
     ethr =  2.06E-09,  avg # of iterations =  2.0

     total cpu time spent up to now is     2246.0 secs

     total energy              =    -285.31738922 Ry
     Harris-Foulkes estimate   =    -285.31738921 Ry
     estimated scf accuracy    <       0.00000007 Ry

     iteration # 12     ecut=    40.00 Ry     beta=0.70
     Davidson diagonalization with overlap
     ethr =  2.50E-10,  avg # of iterations =  1.0

     total cpu time spent up to now is     2276.4 secs

     total energy              =    -285.31738922 Ry
     Harris-Foulkes estimate   =    -285.31738922 Ry
     estimated scf accuracy    <       0.00000009 Ry

     iteration # 13     ecut=    40.00 Ry     beta=0.70
     Davidson diagonalization with overlap
     ethr =  2.50E-10,  avg # of iterations =  1.0

     total cpu time spent up to now is     2306.5 secs

     total energy              =    -285.31738929 Ry
     Harris-Foulkes estimate   =    -285.31738922 Ry
     estimated scf accuracy    <       0.00000011 Ry

     iteration # 14     ecut=    40.00 Ry     beta=0.70
     Davidson diagonalization with overlap
     ethr =  2.50E-10,  avg # of iterations =  2.0

     total cpu time spent up to now is     2346.3 secs

     total energy              =    -285.31738913 Ry
     Harris-Foulkes estimate   =    -285.31738932 Ry
     estimated scf accuracy    <       0.00000031 Ry

     iteration # 15     ecut=    40.00 Ry     beta=0.70
     Davidson diagonalization with overlap
     ethr =  2.50E-10,  avg # of iterations =  2.0

     total cpu time spent up to now is     2384.9 secs

     total energy              =    -285.31738918 Ry
     Harris-Foulkes estimate   =    -285.31738918 Ry
     estimated scf accuracy    <          8.1E-11 Ry

     iteration # 16     ecut=    40.00 Ry     beta=0.70
     Davidson diagonalization with overlap
     ethr =  3.01E-13,  avg # of iterations =  2.6

     total cpu time spent up to now is     2424.1 secs

     total energy              =    -285.31738918 Ry
     Harris-Foulkes estimate   =    -285.31738918 Ry
     estimated scf accuracy    <          3.7E-10 Ry

     iteration # 17     ecut=    40.00 Ry     beta=0.70
     Davidson diagonalization with overlap
     ethr =  3.01E-13,  avg # of iterations =  1.9

     total cpu time spent up to now is     2456.4 secs

     total energy              =    -285.31738918 Ry
     Harris-Foulkes estimate   =    -285.31738918 Ry
     estimated scf accuracy    <          7.3E-11 Ry

     iteration # 18     ecut=    40.00 Ry     beta=0.70
     Davidson diagonalization with overlap
     ethr =  2.71E-13,  avg # of iterations =  1.9

     total cpu time spent up to now is     2488.6 secs

     total energy              =    -285.31738918 Ry
     Harris-Foulkes estimate   =    -285.31738918 Ry
     estimated scf accuracy    <          4.5E-12 Ry

     iteration # 19     ecut=    40.00 Ry     beta=0.70
     Davidson diagonalization with overlap
     ethr =  1.00E-13,  avg # of iterations =  2.0

     total cpu time spent up to now is     2525.5 secs

     total energy              =    -285.31738918 Ry
     Harris-Foulkes estimate   =    -285.31738918 Ry
     estimated scf accuracy    <          5.3E-12 Ry

     iteration # 20     ecut=    40.00 Ry     beta=0.70
     Davidson diagonalization with overlap
     ethr =  1.00E-13,  avg # of iterations =  1.0

     total cpu time spent up to now is     2555.8 secs

     End of self-consistent calculation

     Number of k-points >= 100: set verbosity='high' to print the bands.

     the Fermi energy is     2.0273 ev

!    total energy              =    -285.31738918 Ry
     Harris-Foulkes estimate   =    -285.31738918 Ry
     estimated scf accuracy    <          5.0E-15 Ry

     The total energy is the sum of the following terms:

     one-electron contribution =    -258.06934741 Ry
     hartree contribution      =     130.61461070 Ry
     xc contribution           =     -42.84370848 Ry
     ewald contribution        =    -115.01880256 Ry
     smearing contrib. (-TS)   =      -0.00014142 Ry

     convergence has been achieved in  20 iterations

     Forces acting on atoms (cartesian axes, Ry/au):

     atom    1 type  1   force =    -0.00000379   -0.00000379   -0.00000379
     atom    2 type  1   force =     0.00000379    0.00000379    0.00000379
     atom    3 type  1   force =     0.00000000    0.00000000    0.00000000

     Total force =     0.000009     Total SCF correction =     0.000000


     Computing stress (Cartesian axis) and pressure

          total   stress  (Ry/bohr**3)                   (kbar)     P=    5.34
   0.00003630   0.00000228   0.00000228          5.34      0.34      0.34
   0.00000228   0.00003630   0.00000228          0.34      5.34      0.34
   0.00000228   0.00000228   0.00003630          0.34      0.34      5.34


     number of scf cycles    =   4
     number of bfgs steps    =   3

     enthalpy old            =    -285.3444875688 Ry
     enthalpy new            =    -285.3451883831 Ry

     CASE: enthalpy_new < enthalpy_old

     new trust radius        =       0.0326995957 bohr
     new conv_thr            =            1.0E-12 Ry

     new unit-cell volume =    694.44228 a.u.^3 (   102.90573 Ang^3 )
     density =      1.11293 g/cm^3

CELL_PARAMETERS (alat= 17.00000000)
   0.379694673   0.666906131   0.666906131
   0.666906131   0.379694673   0.666906131
   0.666906131   0.666906131   0.379694673

ATOMIC_POSITIONS (crystal)
Na       0.722228989   0.722228989   0.722228989
Na       0.277771011   0.277771011   0.277771011
Na       0.500000000   0.500000000   0.500000000



     Writing output data file na.9r.save
     NEW-OLD atomic charge density approx. for the potential
     extrapolated charge   27.50024, renormalised to   27.00000

     total cpu time spent up to now is     2562.5 secs

     per-process dynamical memory:    35.6 Mb

     Self-consistent Calculation

     iteration #  1     ecut=    40.00 Ry     beta=0.70
     Davidson diagonalization with overlap
     ethr =  1.00E-06,  avg # of iterations =  4.5

     total cpu time spent up to now is     2617.9 secs

     total energy              =    -285.25919898 Ry
     Harris-Foulkes estimate   =    -281.47910197 Ry
     estimated scf accuracy    <       0.03264029 Ry

     iteration #  2     ecut=    40.00 Ry     beta=0.70
     Davidson diagonalization with overlap
     ethr =  1.21E-04,  avg # of iterations =  3.0

     total cpu time spent up to now is     2665.7 secs

     total energy              =    -285.31921745 Ry
     Harris-Foulkes estimate   =    -285.34323987 Ry
     estimated scf accuracy    <       0.05473963 Ry

     iteration #  3     ecut=    40.00 Ry     beta=0.70
     Davidson diagonalization with overlap
     ethr =  1.21E-04,  avg # of iterations =  2.0

     total cpu time spent up to now is     2701.0 secs

     total energy              =    -285.31882008 Ry
     Harris-Foulkes estimate   =    -285.32272720 Ry
     estimated scf accuracy    <       0.01088927 Ry

     iteration #  4     ecut=    40.00 Ry     beta=0.70
     Davidson diagonalization with overlap
     ethr =  4.03E-05,  avg # of iterations =  1.0

     total cpu time spent up to now is     2731.2 secs

     total energy              =    -285.31929811 Ry
     Harris-Foulkes estimate   =    -285.31928632 Ry
     estimated scf accuracy    <       0.00346113 Ry

     iteration #  5     ecut=    40.00 Ry     beta=0.70
     Davidson diagonalization with overlap
     ethr =  1.28E-05,  avg # of iterations =  1.0

     total cpu time spent up to now is     2761.5 secs

     total energy              =    -285.31841580 Ry
     Harris-Foulkes estimate   =    -285.31932729 Ry
     estimated scf accuracy    <       0.00355102 Ry

     iteration #  6     ecut=    40.00 Ry     beta=0.70
     Davidson diagonalization with overlap
     ethr =  1.28E-05,  avg # of iterations =  1.0

     total cpu time spent up to now is     2791.5 secs

     total energy              =    -285.31814866 Ry
     Harris-Foulkes estimate   =    -285.31850371 Ry
     estimated scf accuracy    <       0.00166144 Ry

     iteration #  7     ecut=    40.00 Ry     beta=0.70
     Davidson diagonalization with overlap
     ethr =  6.15E-06,  avg # of iterations =  1.0

     total cpu time spent up to now is     2821.7 secs

     total energy              =    -285.31778498 Ry
     Harris-Foulkes estimate   =    -285.31817924 Ry
     estimated scf accuracy    <       0.00089724 Ry

     iteration #  8     ecut=    40.00 Ry     beta=0.70
     Davidson diagonalization with overlap
     ethr =  3.32E-06,  avg # of iterations =  1.0

     total cpu time spent up to now is     2851.7 secs

     total energy              =    -285.31771639 Ry
     Harris-Foulkes estimate   =    -285.31783940 Ry
     estimated scf accuracy    <       0.00018559 Ry

     iteration #  9     ecut=    40.00 Ry     beta=0.70
     Davidson diagonalization with overlap
     ethr =  6.87E-07,  avg # of iterations =  2.0

     total cpu time spent up to now is     2890.3 secs

     total energy              =    -285.31776032 Ry
     Harris-Foulkes estimate   =    -285.31776029 Ry
     estimated scf accuracy    <       0.00000032 Ry

     iteration # 10     ecut=    40.00 Ry     beta=0.70
     Davidson diagonalization with overlap
     ethr =  1.18E-09,  avg # of iterations =  2.8

     total cpu time spent up to now is     2925.0 secs

     total energy              =    -285.31776025 Ry
     Harris-Foulkes estimate   =    -285.31776036 Ry
     estimated scf accuracy    <       0.00000038 Ry

     iteration # 11     ecut=    40.00 Ry     beta=0.70
     Davidson diagonalization with overlap
     ethr =  1.18E-09,  avg # of iterations =  2.0

     total cpu time spent up to now is     2963.0 secs

     total energy              =    -285.31776035 Ry
     Harris-Foulkes estimate   =    -285.31776032 Ry
     estimated scf accuracy    <       0.00000031 Ry

     iteration # 12     ecut=    40.00 Ry     beta=0.70
     Davidson diagonalization with overlap
     ethr =  1.14E-09,  avg # of iterations =  1.0

     total cpu time spent up to now is     2993.2 secs

     total energy              =    -285.31776034 Ry
     Harris-Foulkes estimate   =    -285.31776036 Ry
     estimated scf accuracy    <       0.00000042 Ry

     iteration # 13     ecut=    40.00 Ry     beta=0.70
     Davidson diagonalization with overlap
     ethr =  1.14E-09,  avg # of iterations =  1.0

     total cpu time spent up to now is     3023.2 secs

     total energy              =    -285.31776089 Ry
     Harris-Foulkes estimate   =    -285.31776034 Ry
     estimated scf accuracy    <       0.00000037 Ry

     iteration # 14     ecut=    40.00 Ry     beta=0.70
     Davidson diagonalization with overlap
     ethr =  1.14E-09,  avg # of iterations =  2.0

     total cpu time spent up to now is     3062.8 secs

     total energy              =    -285.31775982 Ry
     Harris-Foulkes estimate   =    -285.31776112 Ry
     estimated scf accuracy    <       0.00000214 Ry

     iteration # 15     ecut=    40.00 Ry     beta=0.70
     Davidson diagonalization with overlap
     ethr =  1.14E-09,  avg # of iterations =  3.0

     total cpu time spent up to now is     3107.2 secs

     total energy              =    -285.31776022 Ry
     Harris-Foulkes estimate   =    -285.31776025 Ry
     estimated scf accuracy    <       0.00000009 Ry

     iteration # 16     ecut=    40.00 Ry     beta=0.70
     Davidson diagonalization with overlap
     ethr =  3.15E-10,  avg # of iterations =  1.0

     total cpu time spent up to now is     3137.4 secs

     total energy              =    -285.31776022 Ry
     Harris-Foulkes estimate   =    -285.31776022 Ry
     estimated scf accuracy    <       0.00000003 Ry

     iteration # 17     ecut=    40.00 Ry     beta=0.70
     Davidson diagonalization with overlap
     ethr =  1.20E-10,  avg # of iterations =  1.0

     total cpu time spent up to now is     3167.4 secs

     total energy              =    -285.31776021 Ry
     Harris-Foulkes estimate   =    -285.31776022 Ry
     estimated scf accuracy    <       0.00000003 Ry

     iteration # 18     ecut=    40.00 Ry     beta=0.70
     Davidson diagonalization with overlap
     ethr =  1.18E-10,  avg # of iterations =  1.0

     total cpu time spent up to now is     3197.6 secs

     total energy              =    -285.31776022 Ry
     Harris-Foulkes estimate   =    -285.31776021 Ry
     estimated scf accuracy    <       0.00000001 Ry

     iteration # 19     ecut=    40.00 Ry     beta=0.70
     Davidson diagonalization with overlap
     ethr =  4.02E-11,  avg # of iterations =  1.9

     total cpu time spent up to now is     3229.8 secs

     total energy              =    -285.31776022 Ry
     Harris-Foulkes estimate   =    -285.31776022 Ry
     estimated scf accuracy    <          9.7E-10 Ry

     iteration # 20     ecut=    40.00 Ry     beta=0.70
     Davidson diagonalization with overlap
     ethr =  3.59E-12,  avg # of iterations =  1.0

     total cpu time spent up to now is     3259.9 secs

     total energy              =    -285.31776022 Ry
     Harris-Foulkes estimate   =    -285.31776022 Ry
     estimated scf accuracy    <          1.0E-10 Ry

     iteration # 21     ecut=    40.00 Ry     beta=0.70
     Davidson diagonalization with overlap
     ethr =  3.71E-13,  avg # of iterations =  2.0

     total cpu time spent up to now is     3299.8 secs

     total energy              =    -285.31776022 Ry
     Harris-Foulkes estimate   =    -285.31776022 Ry
     estimated scf accuracy    <          5.1E-12 Ry

     iteration # 22     ecut=    40.00 Ry     beta=0.70
     Davidson diagonalization with overlap
     ethr =  1.00E-13,  avg # of iterations =  1.0

     total cpu time spent up to now is     3330.1 secs

     End of self-consistent calculation

     Number of k-points >= 100: set verbosity='high' to print the bands.

     the Fermi energy is     1.9416 ev

!    total energy              =    -285.31776022 Ry
     Harris-Foulkes estimate   =    -285.31776022 Ry
     estimated scf accuracy    <          1.4E-13 Ry

     The total energy is the sum of the following terms:

     one-electron contribution =    -259.32159419 Ry
     hartree contribution      =     131.14363825 Ry
     xc contribution           =     -42.83601147 Ry
     ewald contribution        =    -114.30365232 Ry
     smearing contrib. (-TS)   =      -0.00014048 Ry

     convergence has been achieved in  22 iterations

     Forces acting on atoms (cartesian axes, Ry/au):

     atom    1 type  1   force =    -0.00000368   -0.00000368   -0.00000368
     atom    2 type  1   force =     0.00000368    0.00000368    0.00000368
     atom    3 type  1   force =     0.00000000    0.00000000    0.00000000

     Total force =     0.000009     Total SCF correction =     0.000000


     Computing stress (Cartesian axis) and pressure

          total   stress  (Ry/bohr**3)                   (kbar)     P=    3.14
   0.00002131   0.00000198   0.00000198          3.14      0.29      0.29
   0.00000198   0.00002131   0.00000198          0.29      3.14      0.29
   0.00000198   0.00000198   0.00002131          0.29      0.29      3.14


     number of scf cycles    =   5
     number of bfgs steps    =   4

     enthalpy old            =    -285.3451883831 Ry
     enthalpy new            =    -285.3460845561 Ry

     CASE: enthalpy_new < enthalpy_old

     new trust radius        =       0.0492016324 bohr
     new conv_thr            =            1.0E-12 Ry

     new unit-cell volume =    714.05650 a.u.^3 (   105.81225 Ang^3 )
     density =      1.08236 g/cm^3

CELL_PARAMETERS (alat= 17.00000000)
   0.383594283   0.673407671   0.673407671
   0.673407671   0.383594283   0.673407671
   0.673407671   0.673407671   0.383594283

ATOMIC_POSITIONS (crystal)
Na       0.722228324   0.722228324   0.722228324
Na       0.277771676   0.277771676   0.277771676
Na       0.500000000   0.500000000   0.500000000



     Writing output data file na.9r.save
     NEW-OLD atomic charge density approx. for the potential
     extrapolated charge   27.74114, renormalised to   27.00000

     total cpu time spent up to now is     3336.7 secs

     per-process dynamical memory:    35.6 Mb

     Self-consistent Calculation

     iteration #  1     ecut=    40.00 Ry     beta=0.70
     Davidson diagonalization with overlap
     ethr =  1.00E-06,  avg # of iterations =  5.1

     total cpu time spent up to now is     3393.8 secs

     total energy              =    -285.18463967 Ry
     Harris-Foulkes estimate   =    -279.58081187 Ry
     estimated scf accuracy    <       0.07424394 Ry

     iteration #  2     ecut=    40.00 Ry     beta=0.70
     Davidson diagonalization with overlap
     ethr =  2.75E-04,  avg # of iterations =  3.0

     total cpu time spent up to now is     3441.8 secs

     total energy              =    -285.32169807 Ry
     Harris-Foulkes estimate   =    -285.37631071 Ry
     estimated scf accuracy    <       0.12441187 Ry

     iteration #  3     ecut=    40.00 Ry     beta=0.70
     Davidson diagonalization with overlap
     ethr =  2.75E-04,  avg # of iterations =  2.0

     total cpu time spent up to now is     3477.0 secs

     total energy              =    -285.32045479 Ry
     Harris-Foulkes estimate   =    -285.32951841 Ry
     estimated scf accuracy    <       0.02522929 Ry

     iteration #  4     ecut=    40.00 Ry     beta=0.70
     Davidson diagonalization with overlap
     ethr =  9.34E-05,  avg # of iterations =  1.0

     total cpu time spent up to now is     3507.0 secs

     total energy              =    -285.32130509 Ry
     Harris-Foulkes estimate   =    -285.32153803 Ry
     estimated scf accuracy    <       0.00803126 Ry

     iteration #  5     ecut=    40.00 Ry     beta=0.70
     Davidson diagonalization with overlap
     ethr =  2.97E-05,  avg # of iterations =  1.0

     total cpu time spent up to now is     3537.5 secs

     total energy              =    -285.31936123 Ry
     Harris-Foulkes estimate   =    -285.32138006 Ry
     estimated scf accuracy    <       0.00764723 Ry

     iteration #  6     ecut=    40.00 Ry     beta=0.70
     Davidson diagonalization with overlap
     ethr =  2.83E-05,  avg # of iterations =  1.0

     total cpu time spent up to now is     3567.7 secs

     total energy              =    -285.31757985 Ry
     Harris-Foulkes estimate   =    -285.31955438 Ry
     estimated scf accuracy    <       0.00351944 Ry

     iteration #  7     ecut=    40.00 Ry     beta=0.70
     Davidson diagonalization with overlap
     ethr =  1.30E-05,  avg # of iterations =  2.0

     total cpu time spent up to now is     3604.2 secs

     total energy              =    -285.31799579 Ry
     Harris-Foulkes estimate   =    -285.31805917 Ry
     estimated scf accuracy    <       0.00017881 Ry

     iteration #  8     ecut=    40.00 Ry     beta=0.70
     Davidson diagonalization with overlap
     ethr =  6.62E-07,  avg # of iterations =  1.2

     total cpu time spent up to now is     3635.0 secs

     total energy              =    -285.31797928 Ry
     Harris-Foulkes estimate   =    -285.31800365 Ry
     estimated scf accuracy    <       0.00006065 Ry

     iteration #  9     ecut=    40.00 Ry     beta=0.70
     Davidson diagonalization with overlap
     ethr =  2.25E-07,  avg # of iterations =  1.0

     total cpu time spent up to now is     3665.0 secs

     total energy              =    -285.31797446 Ry
     Harris-Foulkes estimate   =    -285.31798335 Ry
     estimated scf accuracy    <       0.00001429 Ry

     iteration # 10     ecut=    40.00 Ry     beta=0.70
     Davidson diagonalization with overlap
     ethr =  5.29E-08,  avg # of iterations =  2.0

     total cpu time spent up to now is     3703.1 secs

     total energy              =    -285.31797709 Ry
     Harris-Foulkes estimate   =    -285.31797725 Ry
     estimated scf accuracy    <       0.00000059 Ry

     iteration # 11     ecut=    40.00 Ry     beta=0.70
     Davidson diagonalization with overlap
     ethr =  2.20E-09,  avg # of iterations =  2.3

     total cpu time spent up to now is     3740.9 secs

     total energy              =    -285.31797717 Ry
     Harris-Foulkes estimate   =    -285.31797719 Ry
     estimated scf accuracy    <       0.00000047 Ry

     iteration # 12     ecut=    40.00 Ry     beta=0.70
     Davidson diagonalization with overlap
     ethr =  1.76E-09,  avg # of iterations =  1.0

     total cpu time spent up to now is     3771.1 secs

     total energy              =    -285.31797709 Ry
     Harris-Foulkes estimate   =    -285.31797717 Ry
     estimated scf accuracy    <       0.00000041 Ry

     iteration # 13     ecut=    40.00 Ry     beta=0.70
     Davidson diagonalization with overlap
     ethr =  1.53E-09,  avg # of iterations =  1.0

     total cpu time spent up to now is     3801.3 secs

     total energy              =    -285.31797705 Ry
     Harris-Foulkes estimate   =    -285.31797709 Ry
     estimated scf accuracy    <       0.00000015 Ry

     iteration # 14     ecut=    40.00 Ry     beta=0.70
     Davidson diagonalization with overlap
     ethr =  5.60E-10,  avg # of iterations =  1.0

     total cpu time spent up to now is     3831.7 secs

     total energy              =    -285.31797704 Ry
     Harris-Foulkes estimate   =    -285.31797705 Ry
     estimated scf accuracy    <       0.00000004 Ry

     iteration # 15     ecut=    40.00 Ry     beta=0.70
     Davidson diagonalization with overlap
     ethr =  1.51E-10,  avg # of iterations =  1.0

     total cpu time spent up to now is     3861.8 secs

     total energy              =    -285.31797704 Ry
     Harris-Foulkes estimate   =    -285.31797704 Ry
     estimated scf accuracy    <          3.6E-09 Ry

     iteration # 16     ecut=    40.00 Ry     beta=0.70
     Davidson diagonalization with overlap
     ethr =  1.33E-11,  avg # of iterations =  1.2

     total cpu time spent up to now is     3892.4 secs

     total energy              =    -285.31797704 Ry
     Harris-Foulkes estimate   =    -285.31797704 Ry
     estimated scf accuracy    <          1.1E-09 Ry

     iteration # 17     ecut=    40.00 Ry     beta=0.70
     Davidson diagonalization with overlap
     ethr =  4.02E-12,  avg # of iterations =  1.1

     total cpu time spent up to now is     3922.8 secs

     total energy              =    -285.31797704 Ry
     Harris-Foulkes estimate   =    -285.31797704 Ry
     estimated scf accuracy    <          1.3E-10 Ry

     iteration # 18     ecut=    40.00 Ry     beta=0.70
     Davidson diagonalization with overlap
     ethr =  4.82E-13,  avg # of iterations =  2.1

     total cpu time spent up to now is     3961.9 secs

     End of self-consistent calculation

     Number of k-points >= 100: set verbosity='high' to print the bands.

     the Fermi energy is     1.8173 ev

!    total energy              =    -285.31797704 Ry
     Harris-Foulkes estimate   =    -285.31797704 Ry
     estimated scf accuracy    <          5.5E-13 Ry

     The total energy is the sum of the following terms:

     one-electron contribution =    -261.17244035 Ry
     hartree contribution      =     131.92684065 Ry
     xc contribution           =     -42.82474977 Ry
     ewald contribution        =    -113.24748819 Ry
     smearing contrib. (-TS)   =      -0.00013937 Ry

     convergence has been achieved in  18 iterations

     Forces acting on atoms (cartesian axes, Ry/au):

     atom    1 type  1   force =    -0.00000366   -0.00000366   -0.00000366
     atom    2 type  1   force =     0.00000366    0.00000366    0.00000366
     atom    3 type  1   force =     0.00000000    0.00000000    0.00000000

     Total force =     0.000009     Total SCF correction =     0.000001


     Computing stress (Cartesian axis) and pressure

          total   stress  (Ry/bohr**3)                   (kbar)     P=    0.16
   0.00000110   0.00000157   0.00000157          0.16      0.23      0.23
   0.00000157   0.00000110   0.00000157          0.23      0.16      0.23
   0.00000157   0.00000157   0.00000110          0.23      0.23      0.16


     number of scf cycles    =   6
     number of bfgs steps    =   5

     enthalpy old            =    -285.3460845561 Ry
     enthalpy new            =    -285.3471013906 Ry

     CASE: enthalpy_new < enthalpy_old

     new trust radius        =       0.0741435624 bohr
     new conv_thr            =            1.0E-12 Ry

     new unit-cell volume =    744.16274 a.u.^3 (   110.27354 Ang^3 )
     density =      1.03858 g/cm^3

CELL_PARAMETERS (alat= 17.00000000)
   0.389460314   0.683172751   0.683172751
   0.683172751   0.389460314   0.683172751
   0.683172751   0.683172751   0.389460314

ATOMIC_POSITIONS (crystal)
Na       0.722227236   0.722227236   0.722227236
Na       0.277772764   0.277772764   0.277772764
Na       0.500000000   0.500000000   0.500000000



     Writing output data file na.9r.save
     NEW-OLD atomic charge density approx. for the potential
     extrapolated charge   28.09156, renormalised to   27.00000

     total cpu time spent up to now is     3968.3 secs

     per-process dynamical memory:    35.6 Mb

     Self-consistent Calculation

     iteration #  1     ecut=    40.00 Ry     beta=0.70
     Davidson diagonalization with overlap
     ethr =  1.00E-06,  avg # of iterations =  6.6

     total cpu time spent up to now is     4028.9 secs

     total energy              =    -285.01160311 Ry
     Harris-Foulkes estimate   =    -276.76127158 Ry
     estimated scf accuracy    <       0.17030012 Ry

     iteration #  2     ecut=    40.00 Ry     beta=0.70
     Davidson diagonalization with overlap
     ethr =  6.31E-04,  avg # of iterations =  3.0

     total cpu time spent up to now is     4077.2 secs

     total energy              =    -285.32749858 Ry
     Harris-Foulkes estimate   =    -285.45253418 Ry
     estimated scf accuracy    <       0.28458899 Ry

     iteration #  3     ecut=    40.00 Ry     beta=0.70
     Davidson diagonalization with overlap
     ethr =  6.31E-04,  avg # of iterations =  2.0

     total cpu time spent up to now is     4111.7 secs

     total energy              =    -285.32350011 Ry
     Harris-Foulkes estimate   =    -285.34486588 Ry
     estimated scf accuracy    <       0.05933976 Ry

     iteration #  4     ecut=    40.00 Ry     beta=0.70
     Davidson diagonalization with overlap
     ethr =  2.20E-04,  avg # of iterations =  1.0

     total cpu time spent up to now is     4142.1 secs

     total energy              =    -285.32402013 Ry
     Harris-Foulkes estimate   =    -285.32606902 Ry
     estimated scf accuracy    <       0.01890595 Ry

     iteration #  5     ecut=    40.00 Ry     beta=0.70
     Davidson diagonalization with overlap
     ethr =  7.00E-05,  avg # of iterations =  1.0

     total cpu time spent up to now is     4172.3 secs

     total energy              =    -285.32034965 Ry
     Harris-Foulkes estimate   =    -285.32427626 Ry
     estimated scf accuracy    <       0.01444252 Ry

     iteration #  6     ecut=    40.00 Ry     beta=0.70
     Davidson diagonalization with overlap
     ethr =  5.35E-05,  avg # of iterations =  1.0

     total cpu time spent up to now is     4202.6 secs

     total energy              =    -285.31896842 Ry
     Harris-Foulkes estimate   =    -285.32066486 Ry
     estimated scf accuracy    <       0.00676807 Ry

     iteration #  7     ecut=    40.00 Ry     beta=0.70
     Davidson diagonalization with overlap
     ethr =  2.51E-05,  avg # of iterations =  1.0

     total cpu time spent up to now is     4232.7 secs

     total energy              =    -285.31724768 Ry
     Harris-Foulkes estimate   =    -285.31912193 Ry
     estimated scf accuracy    <       0.00325491 Ry

     iteration #  8     ecut=    40.00 Ry     beta=0.70
     Davidson diagonalization with overlap
     ethr =  1.21E-05,  avg # of iterations =  2.0

     total cpu time spent up to now is     4269.0 secs

     total energy              =    -285.31757087 Ry
     Harris-Foulkes estimate   =    -285.31768148 Ry
     estimated scf accuracy    <       0.00015539 Ry

     iteration #  9     ecut=    40.00 Ry     beta=0.70
     Davidson diagonalization with overlap
     ethr =  5.76E-07,  avg # of iterations =  2.6

     total cpu time spent up to now is     4309.6 secs

     total energy              =    -285.31761028 Ry
     Harris-Foulkes estimate   =    -285.31761112 Ry
     estimated scf accuracy    <       0.00000114 Ry

     iteration # 10     ecut=    40.00 Ry     beta=0.70
     Davidson diagonalization with overlap
     ethr =  4.21E-09,  avg # of iterations =  2.6

     total cpu time spent up to now is     4350.2 secs

     total energy              =    -285.31761062 Ry
     Harris-Foulkes estimate   =    -285.31761107 Ry
     estimated scf accuracy    <       0.00000068 Ry

     iteration # 11     ecut=    40.00 Ry     beta=0.70
     Davidson diagonalization with overlap
     ethr =  2.52E-09,  avg # of iterations =  2.0

     total cpu time spent up to now is     4388.9 secs

     total energy              =    -285.31761076 Ry
     Harris-Foulkes estimate   =    -285.31761077 Ry
     estimated scf accuracy    <       0.00000004 Ry

     iteration # 12     ecut=    40.00 Ry     beta=0.70
     Davidson diagonalization with overlap
     ethr =  1.50E-10,  avg # of iterations =  1.4

     total cpu time spent up to now is     4419.9 secs

     total energy              =    -285.31761076 Ry
     Harris-Foulkes estimate   =    -285.31761076 Ry
     estimated scf accuracy    <          1.9E-09 Ry

     iteration # 13     ecut=    40.00 Ry     beta=0.70
     Davidson diagonalization with overlap
     ethr =  7.20E-12,  avg # of iterations =  2.0

     total cpu time spent up to now is     4452.0 secs

     total energy              =    -285.31761076 Ry
     Harris-Foulkes estimate   =    -285.31761076 Ry
     estimated scf accuracy    <          1.4E-10 Ry

     iteration # 14     ecut=    40.00 Ry     beta=0.70
     Davidson diagonalization with overlap
     ethr =  5.29E-13,  avg # of iterations =  2.4

     total cpu time spent up to now is     4492.3 secs

     total energy              =    -285.31761076 Ry
     Harris-Foulkes estimate   =    -285.31761076 Ry
     estimated scf accuracy    <          1.3E-09 Ry

     iteration # 15     ecut=    40.00 Ry     beta=0.70
     Davidson diagonalization with overlap
     ethr =  5.29E-13,  avg # of iterations =  2.0

     total cpu time spent up to now is     4525.8 secs

     total energy              =    -285.31761076 Ry
     Harris-Foulkes estimate   =    -285.31761076 Ry
     estimated scf accuracy    <          2.6E-11 Ry

     iteration # 16     ecut=    40.00 Ry     beta=0.70
     Davidson diagonalization with overlap
     ethr =  1.00E-13,  avg # of iterations =  1.6

     total cpu time spent up to now is     4556.9 secs

     End of self-consistent calculation

     Number of k-points >= 100: set verbosity='high' to print the bands.

     the Fermi energy is     1.6396 ev

!    total energy              =    -285.31761076 Ry
     Harris-Foulkes estimate   =    -285.31761076 Ry
     estimated scf accuracy    <          6.7E-13 Ry

     The total energy is the sum of the following terms:

     one-electron contribution =    -263.88853934 Ry
     hartree contribution      =     133.07896094 Ry
     xc contribution           =     -42.80847629 Ry
     ewald contribution        =    -111.69941759 Ry
     smearing contrib. (-TS)   =      -0.00013848 Ry

     convergence has been achieved in  16 iterations

     Forces acting on atoms (cartesian axes, Ry/au):

     atom    1 type  1   force =    -0.00000379   -0.00000379   -0.00000379
     atom    2 type  1   force =     0.00000379    0.00000379    0.00000379
     atom    3 type  1   force =     0.00000000    0.00000000    0.00000000

     Total force =     0.000009     Total SCF correction =     0.000001


     Computing stress (Cartesian axis) and pressure

          total   stress  (Ry/bohr**3)                   (kbar)     P=   -3.60
  -0.00002450   0.00000105   0.00000105         -3.60      0.15      0.15
   0.00000105  -0.00002450   0.00000105          0.15     -3.60      0.15
   0.00000105   0.00000105  -0.00002450          0.15      0.15     -3.60


     number of scf cycles    =   7
     number of bfgs steps    =   6

     enthalpy old            =    -285.3471013906 Ry
     enthalpy new            =    -285.3479630589 Ry

     CASE: enthalpy_new < enthalpy_old

     new trust radius        =       0.0498078181 bohr
     new conv_thr            =            1.0E-12 Ry

     new unit-cell volume =    764.71009 a.u.^3 (   113.31834 Ang^3 )
     density =      1.01067 g/cm^3

CELL_PARAMETERS (alat= 17.00000000)
   0.393399210   0.689707274   0.689707274
   0.689707274   0.393399210   0.689707274
   0.689707274   0.689707274   0.393399210

ATOMIC_POSITIONS (crystal)
Na       0.722226368   0.722226368   0.722226368
Na       0.277773632   0.277773632   0.277773632
Na       0.500000000   0.500000000   0.500000000



     Writing output data file na.9r.save
     NEW-OLD atomic charge density approx. for the potential
     extrapolated charge   27.72497, renormalised to   27.00000

     total cpu time spent up to now is     4563.4 secs

     per-process dynamical memory:    35.6 Mb

     Self-consistent Calculation

     iteration #  1     ecut=    40.00 Ry     beta=0.70
     Davidson diagonalization with overlap
     ethr =  1.00E-06,  avg # of iterations =  5.5

     total cpu time spent up to now is     4621.1 secs

     total energy              =    -285.18880789 Ry
     Harris-Foulkes estimate   =    -279.60114624 Ry
     estimated scf accuracy    <       0.07129960 Ry

     iteration #  2     ecut=    40.00 Ry     beta=0.70
     Davidson diagonalization with overlap
     ethr =  2.64E-04,  avg # of iterations =  3.0

     total cpu time spent up to now is     4668.8 secs

     total energy              =    -285.32051461 Ry
     Harris-Foulkes estimate   =    -285.37296659 Ry
     estimated scf accuracy    <       0.11948587 Ry

     iteration #  3     ecut=    40.00 Ry     beta=0.70
     Davidson diagonalization with overlap
     ethr =  2.64E-04,  avg # of iterations =  2.0

     total cpu time spent up to now is     4703.7 secs

     total energy              =    -285.31915909 Ry
     Harris-Foulkes estimate   =    -285.32804324 Ry
     estimated scf accuracy    <       0.02417030 Ry

     iteration #  4     ecut=    40.00 Ry     beta=0.70
     Davidson diagonalization with overlap
     ethr =  8.95E-05,  avg # of iterations =  1.0

     total cpu time spent up to now is     4733.9 secs

     total energy              =    -285.32043714 Ry
     Harris-Foulkes estimate   =    -285.32023120 Ry
     estimated scf accuracy    <       0.00741767 Ry

     iteration #  5     ecut=    40.00 Ry     beta=0.70
     Davidson diagonalization with overlap
     ethr =  2.75E-05,  avg # of iterations =  1.0

     total cpu time spent up to now is     4763.7 secs

     total energy              =    -285.31869385 Ry
     Harris-Foulkes estimate   =    -285.32050152 Ry
     estimated scf accuracy    <       0.00800621 Ry

     iteration #  6     ecut=    40.00 Ry     beta=0.70
     Davidson diagonalization with overlap
     ethr =  2.75E-05,  avg # of iterations =  1.0

     total cpu time spent up to now is     4793.8 secs

     total energy              =    -285.31825366 Ry
     Harris-Foulkes estimate   =    -285.31885042 Ry
     estimated scf accuracy    <       0.00417825 Ry

     iteration #  7     ecut=    40.00 Ry     beta=0.70
     Davidson diagonalization with overlap
     ethr =  1.55E-05,  avg # of iterations =  1.0

     total cpu time spent up to now is     4823.5 secs

     total energy              =    -285.31759017 Ry
     Harris-Foulkes estimate   =    -285.31829285 Ry
     estimated scf accuracy    <       0.00282987 Ry

     iteration #  8     ecut=    40.00 Ry     beta=0.70
     Davidson diagonalization with overlap
     ethr =  1.05E-05,  avg # of iterations =  1.0

     total cpu time spent up to now is     4853.6 secs

     total energy              =    -285.31666466 Ry
     Harris-Foulkes estimate   =    -285.31763426 Ry
     estimated scf accuracy    <       0.00146821 Ry

     iteration #  9     ecut=    40.00 Ry     beta=0.70
     Davidson diagonalization with overlap
     ethr =  5.44E-06,  avg # of iterations =  2.0

     total cpu time spent up to now is     4891.1 secs

     total energy              =    -285.31696155 Ry
     Harris-Foulkes estimate   =    -285.31696263 Ry
     estimated scf accuracy    <       0.00001259 Ry

     iteration # 10     ecut=    40.00 Ry     beta=0.70
     Davidson diagonalization with overlap
     ethr =  4.66E-08,  avg # of iterations =  1.7

     total cpu time spent up to now is     4922.5 secs

     total energy              =    -285.31696299 Ry
     Harris-Foulkes estimate   =    -285.31696226 Ry
     estimated scf accuracy    <       0.00001285 Ry

     iteration # 11     ecut=    40.00 Ry     beta=0.70
     Davidson diagonalization with overlap
     ethr =  4.66E-08,  avg # of iterations =  1.0

     total cpu time spent up to now is     4952.2 secs

     total energy              =    -285.31696640 Ry
     Harris-Foulkes estimate   =    -285.31696314 Ry
     estimated scf accuracy    <       0.00001413 Ry

     iteration # 12     ecut=    40.00 Ry     beta=0.70
     Davidson diagonalization with overlap
     ethr =  4.66E-08,  avg # of iterations =  1.0

     total cpu time spent up to now is     4982.0 secs

     total energy              =    -285.31696156 Ry
     Harris-Foulkes estimate   =    -285.31696656 Ry
     estimated scf accuracy    <       0.00002478 Ry

     iteration # 13     ecut=    40.00 Ry     beta=0.70
     Davidson diagonalization with overlap
     ethr =  4.66E-08,  avg # of iterations =  1.0

     total cpu time spent up to now is     5011.7 secs

     total energy              =    -285.31695913 Ry
     Harris-Foulkes estimate   =    -285.31696177 Ry
     estimated scf accuracy    <       0.00001002 Ry

     iteration # 14     ecut=    40.00 Ry     beta=0.70
     Davidson diagonalization with overlap
     ethr =  3.71E-08,  avg # of iterations =  1.0

     total cpu time spent up to now is     5042.0 secs

     total energy              =    -285.31695794 Ry
     Harris-Foulkes estimate   =    -285.31695967 Ry
     estimated scf accuracy    <       0.00000265 Ry

     iteration # 15     ecut=    40.00 Ry     beta=0.70
     Davidson diagonalization with overlap
     ethr =  9.81E-09,  avg # of iterations =  2.0

     total cpu time spent up to now is     5080.0 secs

     total energy              =    -285.31695845 Ry
     Harris-Foulkes estimate   =    -285.31695845 Ry
     estimated scf accuracy    <          8.2E-09 Ry

     iteration # 16     ecut=    40.00 Ry     beta=0.70
     Davidson diagonalization with overlap
     ethr =  3.05E-11,  avg # of iterations =  2.7

     total cpu time spent up to now is     5113.2 secs

     total energy              =    -285.31695845 Ry
     Harris-Foulkes estimate   =    -285.31695845 Ry
     estimated scf accuracy    <          1.9E-09 Ry

     iteration # 17     ecut=    40.00 Ry     beta=0.70
     Davidson diagonalization with overlap
     ethr =  6.95E-12,  avg # of iterations =  2.0

     total cpu time spent up to now is     5150.9 secs

     total energy              =    -285.31695845 Ry
     Harris-Foulkes estimate   =    -285.31695845 Ry
     estimated scf accuracy    <          4.5E-09 Ry

     iteration # 18     ecut=    40.00 Ry     beta=0.70
     Davidson diagonalization with overlap
     ethr =  6.95E-12,  avg # of iterations =  2.0

     total cpu time spent up to now is     5188.3 secs

     total energy              =    -285.31695845 Ry
     Harris-Foulkes estimate   =    -285.31695845 Ry
     estimated scf accuracy    <          9.5E-10 Ry

     iteration # 19     ecut=    40.00 Ry     beta=0.70
     Davidson diagonalization with overlap
     ethr =  3.51E-12,  avg # of iterations =  1.9

     total cpu time spent up to now is     5220.4 secs

     total energy              =    -285.31695845 Ry
     Harris-Foulkes estimate   =    -285.31695845 Ry
     estimated scf accuracy    <          3.1E-10 Ry

     iteration # 20     ecut=    40.00 Ry     beta=0.70
     Davidson diagonalization with overlap
     ethr =  1.13E-12,  avg # of iterations =  2.0

     total cpu time spent up to now is     5256.8 secs

     total energy              =    -285.31695845 Ry
     Harris-Foulkes estimate   =    -285.31695845 Ry
     estimated scf accuracy    <          2.9E-12 Ry

     iteration # 21     ecut=    40.00 Ry     beta=0.70
     Davidson diagonalization with overlap
     ethr =  1.00E-13,  avg # of iterations =  1.2

     total cpu time spent up to now is     5287.1 secs

     End of self-consistent calculation

     Number of k-points >= 100: set verbosity='high' to print the bands.

     the Fermi energy is     1.5267 ev

!    total energy              =    -285.31695845 Ry
     Harris-Foulkes estimate   =    -285.31695845 Ry
     estimated scf accuracy    <          1.5E-13 Ry

     The total energy is the sum of the following terms:

     one-electron contribution =    -265.66169025 Ry
     hartree contribution      =     133.83289190 Ry
     xc contribution           =     -42.79802266 Ry
     ewald contribution        =    -110.68999908 Ry
     smearing contrib. (-TS)   =      -0.00013837 Ry

     convergence has been achieved in  21 iterations

     Forces acting on atoms (cartesian axes, Ry/au):

     atom    1 type  1   force =    -0.00000396   -0.00000396   -0.00000396
     atom    2 type  1   force =     0.00000396    0.00000396    0.00000396
     atom    3 type  1   force =     0.00000000    0.00000000    0.00000000

     Total force =     0.000010     Total SCF correction =     0.000000


     Computing stress (Cartesian axis) and pressure

          total   stress  (Ry/bohr**3)                   (kbar)     P=   -5.69
  -0.00003866   0.00000075   0.00000075         -5.69      0.11      0.11
   0.00000075  -0.00003866   0.00000075          0.11     -5.69      0.11
   0.00000075   0.00000075  -0.00003866          0.11      0.11     -5.69


     number of scf cycles    =   8
     number of bfgs steps    =   7

     enthalpy old            =    -285.3479630589 Ry
     enthalpy new            =    -285.3481488160 Ry

     CASE: enthalpy_new < enthalpy_old

     new trust radius        =       0.0078264271 bohr
     new conv_thr            =            1.0E-12 Ry

     new unit-cell volume =    767.95482 a.u.^3 (   113.79916 Ang^3 )
     density =      1.00640 g/cm^3

CELL_PARAMETERS (alat= 17.00000000)
   0.394040429   0.690748603   0.690748603
   0.690748603   0.394040429   0.690748603
   0.690748603   0.690748603   0.394040429

ATOMIC_POSITIONS (crystal)
Na       0.722226086   0.722226086   0.722226086
Na       0.277773914   0.277773914   0.277773914
Na       0.500000000   0.500000000   0.500000000



     Writing output data file na.9r.save
     NEW-OLD atomic charge density approx. for the potential
     extrapolated charge   27.11400, renormalised to   27.00000

     total cpu time spent up to now is     5293.6 secs

     per-process dynamical memory:    35.6 Mb

     Self-consistent Calculation

     iteration #  1     ecut=    40.00 Ry     beta=0.70
     Davidson diagonalization with overlap
     ethr =  1.00E-06,  avg # of iterations =  3.0

     total cpu time spent up to now is     5339.7 secs

     total energy              =    -285.31391354 Ry
     Harris-Foulkes estimate   =    -284.41984487 Ry
     estimated scf accuracy    <       0.00162630 Ry

     iteration #  2     ecut=    40.00 Ry     beta=0.70
     Davidson diagonalization with overlap
     ethr =  6.02E-06,  avg # of iterations =  3.0

     total cpu time spent up to now is     5387.3 secs

     total energy              =    -285.31688869 Ry
     Harris-Foulkes estimate   =    -285.31808568 Ry
     estimated scf accuracy    <       0.00272705 Ry

     iteration #  3     ecut=    40.00 Ry     beta=0.70
     Davidson diagonalization with overlap
     ethr =  6.02E-06,  avg # of iterations =  2.0

     total cpu time spent up to now is     5423.0 secs

     total energy              =    -285.31687079 Ry
     Harris-Foulkes estimate   =    -285.31706927 Ry
     estimated scf accuracy    <       0.00052535 Ry

     iteration #  4     ecut=    40.00 Ry     beta=0.70
     Davidson diagonalization with overlap
     ethr =  1.95E-06,  avg # of iterations =  1.0

     total cpu time spent up to now is     5453.2 secs

     total energy              =    -285.31689904 Ry
     Harris-Foulkes estimate   =    -285.31689554 Ry
     estimated scf accuracy    <       0.00015165 Ry

     iteration #  5     ecut=    40.00 Ry     beta=0.70
     Davidson diagonalization with overlap
     ethr =  5.62E-07,  avg # of iterations =  1.0

     total cpu time spent up to now is     5483.1 secs

     total energy              =    -285.31687057 Ry
     Harris-Foulkes estimate   =    -285.31690051 Ry
     estimated scf accuracy    <       0.00016152 Ry

     iteration #  6     ecut=    40.00 Ry     beta=0.70
     Davidson diagonalization with overlap
     ethr =  5.62E-07,  avg # of iterations =  1.0

[...]

     Total force =     0.000001     Total SCF correction =     0.000000


     Computing stress (Cartesian axis) and pressure

          total   stress  (Ry/bohr**3)                   (kbar)     P=   -6.07
  -0.00004124   0.00000014   0.00000014         -6.07      0.02      0.02
   0.00000014  -0.00004124   0.00000014          0.02     -6.07      0.02
   0.00000014   0.00000014  -0.00004124          0.02      0.02     -6.07


     number of scf cycles    =  14
     number of bfgs steps    =  13

     enthalpy old            =    -285.3481534344 Ry
     enthalpy new            =    -285.3481538338 Ry

     CASE: enthalpy_new < enthalpy_old

     new trust radius        =       0.0016771827 bohr
     new conv_thr            =            1.0E-12 Ry

     new unit-cell volume =    768.55335 a.u.^3 (   113.88785 Ang^3 )
     density =      1.00562 g/cm^3

CELL_PARAMETERS (alat= 17.00000000)
   0.395353322   0.691878859   0.691878859
   0.691878859   0.395353322   0.691878859
   0.691878859   0.691878859   0.395353322

ATOMIC_POSITIONS (crystal)
Na       0.722219090   0.722219090   0.722219090
Na       0.277780910   0.277780910   0.277780910
Na       0.500000000   0.500000000   0.500000000



     Writing output data file na.9r.save
     NEW-OLD atomic charge density approx. for the potential
     extrapolated charge   26.98763, renormalised to   27.00000

     total cpu time spent up to now is     8433.6 secs

     per-process dynamical memory:    35.6 Mb

     Self-consistent Calculation

     iteration #  1     ecut=    40.00 Ry     beta=0.70
     Davidson diagonalization with overlap
     ethr =  1.00E-06,  avg # of iterations =  2.0

     Threshold (ethr) on eigenvalues was too large:
     Diagonalizing with lowered threshold

     Davidson diagonalization with overlap
     ethr =  6.86E-08,  avg # of iterations =  1.1

     total cpu time spent up to now is     8502.0 secs

     total energy              =    -285.31677354 Ry
     Harris-Foulkes estimate   =    -285.41406928 Ry
     estimated scf accuracy    <       0.00001865 Ry

     iteration #  2     ecut=    40.00 Ry     beta=0.70
     Davidson diagonalization with overlap
     ethr =  6.91E-08,  avg # of iterations =  3.0

     total cpu time spent up to now is     8547.6 secs

     total energy              =    -285.31680751 Ry
     Harris-Foulkes estimate   =    -285.31682122 Ry
     estimated scf accuracy    <       0.00003124 Ry

     iteration #  3     ecut=    40.00 Ry     beta=0.70
     Davidson diagonalization with overlap
     ethr =  6.91E-08,  avg # of iterations =  2.0

     total cpu time spent up to now is     8583.3 secs

     total energy              =    -285.31680772 Ry
     Harris-Foulkes estimate   =    -285.31680960 Ry
     estimated scf accuracy    <       0.00000597 Ry

     iteration #  4     ecut=    40.00 Ry     beta=0.70
     Davidson diagonalization with overlap
     ethr =  2.21E-08,  avg # of iterations =  1.0

     total cpu time spent up to now is     8612.8 secs

     total energy              =    -285.31680754 Ry
     Harris-Foulkes estimate   =    -285.31680792 Ry
     estimated scf accuracy    <       0.00000232 Ry

     iteration #  5     ecut=    40.00 Ry     beta=0.70
     Davidson diagonalization with overlap
     ethr =  8.59E-09,  avg # of iterations =  1.0

     total cpu time spent up to now is     8642.7 secs

     total energy              =    -285.31680697 Ry
     Harris-Foulkes estimate   =    -285.31680758 Ry
     estimated scf accuracy    <       0.00000147 Ry

     iteration #  6     ecut=    40.00 Ry     beta=0.70
     Davidson diagonalization with overlap
     ethr =  5.43E-09,  avg # of iterations =  1.0

     total cpu time spent up to now is     8672.1 secs

     total energy              =    -285.31680678 Ry
     Harris-Foulkes estimate   =    -285.31680705 Ry
     estimated scf accuracy    <       0.00000036 Ry

     iteration #  7     ecut=    40.00 Ry     beta=0.70
     Davidson diagonalization with overlap
     ethr =  1.34E-09,  avg # of iterations =  2.0

     total cpu time spent up to now is     8710.1 secs

     total energy              =    -285.31680689 Ry
     Harris-Foulkes estimate   =    -285.31680690 Ry
     estimated scf accuracy    <       0.00000001 Ry

     iteration #  8     ecut=    40.00 Ry     beta=0.70
     Davidson diagonalization with overlap
     ethr =  4.82E-11,  avg # of iterations =  1.3

     total cpu time spent up to now is     8740.8 secs

     total energy              =    -285.31680689 Ry
     Harris-Foulkes estimate   =    -285.31680689 Ry
     estimated scf accuracy    <          6.8E-09 Ry

     iteration #  9     ecut=    40.00 Ry     beta=0.70
     Davidson diagonalization with overlap
     ethr =  2.50E-11,  avg # of iterations =  1.0

     total cpu time spent up to now is     8771.4 secs

     total energy              =    -285.31680689 Ry
     Harris-Foulkes estimate   =    -285.31680689 Ry
     estimated scf accuracy    <          4.4E-09 Ry

     iteration # 10     ecut=    40.00 Ry     beta=0.70
     Davidson diagonalization with overlap
     ethr =  1.64E-11,  avg # of iterations =  2.0

     total cpu time spent up to now is     8809.5 secs

     total energy              =    -285.31680689 Ry
     Harris-Foulkes estimate   =    -285.31680689 Ry
     estimated scf accuracy    <          5.5E-11 Ry

     iteration # 11     ecut=    40.00 Ry     beta=0.70
     Davidson diagonalization with overlap
     ethr =  2.05E-13,  avg # of iterations =  1.6

     total cpu time spent up to now is     8840.8 secs

     total energy              =    -285.31680689 Ry
     Harris-Foulkes estimate   =    -285.31680689 Ry
     estimated scf accuracy    <          2.2E-11 Ry

     iteration # 12     ecut=    40.00 Ry     beta=0.70
     Davidson diagonalization with overlap
     ethr =  1.00E-13,  avg # of iterations =  1.0

     total cpu time spent up to now is     8871.1 secs

     total energy              =    -285.31680689 Ry
     Harris-Foulkes estimate   =    -285.31680689 Ry
     estimated scf accuracy    <          1.2E-11 Ry

     iteration # 13     ecut=    40.00 Ry     beta=0.70
     Davidson diagonalization with overlap
     ethr =  1.00E-13,  avg # of iterations =  1.0

     total cpu time spent up to now is     8901.2 secs

     total energy              =    -285.31680689 Ry
     Harris-Foulkes estimate   =    -285.31680689 Ry
     estimated scf accuracy    <          1.7E-12 Ry

     iteration # 14     ecut=    40.00 Ry     beta=0.70
     Davidson diagonalization with overlap
     ethr =  1.00E-13,  avg # of iterations =  1.0

     total cpu time spent up to now is     8931.4 secs

     End of self-consistent calculation

     Number of k-points >= 100: set verbosity='high' to print the bands.

     the Fermi energy is     1.5062 ev

!    total energy              =    -285.31680689 Ry
     Harris-Foulkes estimate   =    -285.31680689 Ry
     estimated scf accuracy    <          2.9E-13 Ry

     The total energy is the sum of the following terms:

     one-electron contribution =    -265.98609628 Ry
     hartree contribution      =     133.97094705 Ry
     xc contribution           =     -42.79612310 Ry
     ewald contribution        =    -110.50540021 Ry
     smearing contrib. (-TS)   =      -0.00013435 Ry

     convergence has been achieved in  14 iterations

     Forces acting on atoms (cartesian axes, Ry/au):

     atom    1 type  1   force =     0.00000034    0.00000034    0.00000034
     atom    2 type  1   force =    -0.00000034   -0.00000034   -0.00000034
     atom    3 type  1   force =     0.00000000    0.00000000    0.00000000

     Total force =     0.000001     Total SCF correction =     0.000000


     Computing stress (Cartesian axis) and pressure

          total   stress  (Ry/bohr**3)                   (kbar)     P=   -6.03
  -0.00004101  -0.00000001  -0.00000001         -6.03     -0.00     -0.00
  -0.00000001  -0.00004101  -0.00000001         -0.00     -6.03     -0.00
  -0.00000001  -0.00000001  -0.00004101         -0.00     -0.00     -6.03


     bfgs converged in  15 scf cycles and  14 bfgs steps
     (criteria: energy <  1.0E-04 Ry, force <  1.0E-03Ry/Bohr, cell <  5.0E-02kbar)

     End of BFGS Geometry Optimization

     Final enthalpy =    -285.3481540135 Ry
Begin final coordinates
     new unit-cell volume =    768.55335 a.u.^3 (   113.88785 Ang^3 )
     density =      1.00562 g/cm^3

CELL_PARAMETERS (alat= 17.00000000)
   0.395353322   0.691878859   0.691878859
   0.691878859   0.395353322   0.691878859
   0.691878859   0.691878859   0.395353322

ATOMIC_POSITIONS (crystal)
Na       0.722219090   0.722219090   0.722219090
Na       0.277780910   0.277780910   0.277780910
Na       0.500000000   0.500000000   0.500000000
End final coordinates



     A final scf calculation at the relaxed structure.
     The G-vectors are recalculated for the final unit cell
     Results may differ from those at the preceding step.

     Parallelization info
     --------------------
     sticks:   dense  smooth     PW     G-vecs:    dense   smooth      PW
     Min         199     100     33                 4632     1641     315
     Max         200     101     34                 4633     1643     316
     Sum        3197    1605    533                74121    26267    5051



     bravais-lattice index     =           -5
     lattice parameter (alat)  =      17.0000  a.u.
     unit-cell volume          =     768.5533 (a.u.)^3
     number of atoms/cell      =            3
     number of atomic types    =            1
     number of electrons       =        27.00
     number of Kohn-Sham states=           18
     kinetic-energy cutoff     =      40.0000  Ry
     charge density cutoff     =     320.0000  Ry
     convergence threshold     =      1.0E-12
     mixing beta               =       0.7000
     number of iterations used =            8  plain     mixing
     Exchange-correlation      = SLA  PW   PBE  PBE ( 1  4  3  4 0 0)

     celldm(1)=  17.000000  celldm(2)=   0.000000  celldm(3)=   0.000000
     celldm(4)=   0.920000  celldm(5)=   0.000000  celldm(6)=   0.000000

     crystal axes: (cart. coord. in units of alat)
               a(1) = (   0.395353   0.691879   0.691879 )  
               a(2) = (   0.691879   0.395353   0.691879 )  
               a(3) = (   0.691879   0.691879   0.395353 )  

     reciprocal axes: (cart. coord. in units 2 pi/alat)
               b(1) = ( -2.060901  1.311490  1.311490 )  
               b(2) = (  1.311490 -2.060901  1.311490 )  
               b(3) = (  1.311490  1.311490 -2.060901 )  


     PseudoPot. # 1 for Na read from file:
     /home/s1333534/quantum_espresso/qe-6.1/pseudo/Na_pbe_v1.uspp.F.UPF
     MD5 check sum: 76a99c7e9422403d3e93cbc85ab7bccb
     Pseudo is Ultrasoft, Zval =  9.0
     Generated by new atomic code, or converted to UPF format
     Using radial grid of  819 points,  5 beta functions with: 
                l(1) =   0
                l(2) =   0
                l(3) =   1
                l(4) =   1
                l(5) =   2
     Q(r) pseudized with  8 coefficients,  rinner =    1.250   1.250   1.250
                                                       1.250   1.250

     atomic species   valence    mass     pseudopotential
        Na             9.00    22.99000     Na( 1.00)

     12 Sym. Ops., with inversion, found



   Cartesian axes

     site n.     atom                  positions (alat units)
         1           Na  tau(   1) = (   1.2849080   1.2849080   1.2849080  )
         2           Na  tau(   2) = (   0.4942031   0.4942031   0.4942031  )
         3           Na  tau(   3) = (   0.8895555   0.8895555   0.8895555  )

     number of k points=   770  Marzari-Vanderbilt smearing, width (Ry)=  0.0200

     Number of k-points >= 100: set verbosity='high' to print them.

     Dense  grid:    74121 G-vectors     FFT dimensions: ( 108, 108, 108)

     Smooth grid:    26267 G-vectors     FFT dimensions: (  75,  75,  75)

     Estimated max dynamical RAM per process >      19.10MB

     Estimated total allocated dynamical RAM >    1222.64MB

     Initial potential from superposition of free atoms

     starting charge   26.98113, renormalised to   27.00000
     Starting wfc are   15 randomized atomic wfcs +    3 random wfc

     Writing output data file na.9r.save

     total cpu time spent up to now is     8952.3 secs

     per-process dynamical memory:    36.8 Mb

     Self-consistent Calculation

     iteration #  1     ecut=    40.00 Ry     beta=0.70
     Davidson diagonalization with overlap
     c_bands:  1 eigenvalues not converged
     c_bands:  1 eigenvalues not converged
     c_bands:  1 eigenvalues not converged
     c_bands:  1 eigenvalues not converged
     ethr =  1.00E-06,  avg # of iterations = 14.0

     total cpu time spent up to now is     9054.4 secs

     total energy              =    -285.31933986 Ry
     Harris-Foulkes estimate   =    -285.31993307 Ry
     estimated scf accuracy    <       0.00261816 Ry

     iteration #  2     ecut=    40.00 Ry     beta=0.70
     Davidson diagonalization with overlap
     ethr =  9.70E-06,  avg # of iterations =  2.0

     total cpu time spent up to now is     9098.8 secs

     total energy              =    -285.31963929 Ry
     Harris-Foulkes estimate   =    -285.31970504 Ry
     estimated scf accuracy    <       0.00029343 Ry

     iteration #  3     ecut=    40.00 Ry     beta=0.70
     Davidson diagonalization with overlap
     ethr =  1.09E-06,  avg # of iterations =  2.0

     total cpu time spent up to now is     9146.2 secs

     total energy              =    -285.31966864 Ry
     Harris-Foulkes estimate   =    -285.31967343 Ry
     estimated scf accuracy    <       0.00001978 Ry

     iteration #  4     ecut=    40.00 Ry     beta=0.70
     Davidson diagonalization with overlap
     ethr =  7.32E-08,  avg # of iterations =  1.7

     total cpu time spent up to now is     9184.8 secs

     total energy              =    -285.31967003 Ry
     Harris-Foulkes estimate   =    -285.31967179 Ry
     estimated scf accuracy    <       0.00000584 Ry

     iteration #  5     ecut=    40.00 Ry     beta=0.70
     Davidson diagonalization with overlap
     ethr =  2.16E-08,  avg # of iterations =  1.2

     total cpu time spent up to now is     9222.3 secs

     total energy              =    -285.31967107 Ry
     Harris-Foulkes estimate   =    -285.31967107 Ry
     estimated scf accuracy    <       0.00000008 Ry

     iteration #  6     ecut=    40.00 Ry     beta=0.70
     Davidson diagonalization with overlap
     ethr =  2.82E-10,  avg # of iterations =  2.4

     total cpu time spent up to now is     9269.7 secs

     total energy              =    -285.31967110 Ry
     Harris-Foulkes estimate   =    -285.31967111 Ry
     estimated scf accuracy    <       0.00000001 Ry

     iteration #  7     ecut=    40.00 Ry     beta=0.70
     Davidson diagonalization with overlap
     ethr =  5.12E-11,  avg # of iterations =  2.0

     total cpu time spent up to now is     9317.0 secs

     total energy              =    -285.31967110 Ry
     Harris-Foulkes estimate   =    -285.31967110 Ry
     estimated scf accuracy    <          9.0E-11 Ry

     iteration #  8     ecut=    40.00 Ry     beta=0.70
     Davidson diagonalization with overlap
     ethr =  3.32E-13,  avg # of iterations =  2.8

     total cpu time spent up to now is     9363.0 secs

     total energy              =    -285.31967110 Ry
     Harris-Foulkes estimate   =    -285.31967110 Ry
     estimated scf accuracy    <          7.7E-12 Ry

     iteration #  9     ecut=    40.00 Ry     beta=0.70
     Davidson diagonalization with overlap
     ethr =  1.00E-13,  avg # of iterations =  1.0

     total cpu time spent up to now is     9400.8 secs

     End of self-consistent calculation

     Number of k-points >= 100: set verbosity='high' to print the bands.

     the Fermi energy is     1.5074 ev

!    total energy              =    -285.31967110 Ry
     Harris-Foulkes estimate   =    -285.31967110 Ry
     estimated scf accuracy    <          7.3E-13 Ry

     The total energy is the sum of the following terms:

     one-electron contribution =    -265.98821193 Ry
     hartree contribution      =     133.97058349 Ry
     xc contribution           =     -42.79650806 Ry
     ewald contribution        =    -110.50540021 Ry
     smearing contrib. (-TS)   =      -0.00013440 Ry

     convergence has been achieved in   9 iterations

     Forces acting on atoms (cartesian axes, Ry/au):

     atom    1 type  1   force =    -0.00000055   -0.00000055   -0.00000055
     atom    2 type  1   force =     0.00000055    0.00000055    0.00000055
     atom    3 type  1   force =     0.00000000    0.00000000   -0.00000000

     Total force =     0.000001     Total SCF correction =     0.000001
     SCF correction compared to forces is large: reduce conv_thr to get better values


     Computing stress (Cartesian axis) and pressure

          total   stress  (Ry/bohr**3)                   (kbar)     P=   -4.47
  -0.00003039   0.00000008   0.00000008         -4.47      0.01      0.01
   0.00000008  -0.00003039   0.00000008          0.01     -4.47      0.01
   0.00000008   0.00000008  -0.00003039          0.01      0.01     -4.47


     Writing output data file na.9r.save

     init_run     :     26.44s CPU     26.76s WALL (       2 calls)
     electrons    :   9184.13s CPU   9277.85s WALL (      16 calls)
     update_pot   :      9.53s CPU     10.03s WALL (      14 calls)
     forces       :     10.33s CPU     10.43s WALL (      16 calls)
     stress       :     31.49s CPU     31.64s WALL (      16 calls)

     Called by init_run:
     wfcinit      :     24.47s CPU     24.70s WALL (       2 calls)
     potinit      :      0.67s CPU      0.70s WALL (       2 calls)

     Called by electrons:
     c_bands      :   7562.37s CPU   7637.67s WALL (     264 calls)
     sum_band     :   1568.07s CPU   1584.23s WALL (     264 calls)
     v_of_rho     :     36.24s CPU     37.32s WALL (     273 calls)
     newd         :     10.65s CPU     10.82s WALL (     273 calls)
     mix_rho      :      3.23s CPU      3.49s WALL (     264 calls)

     Called by c_bands:
     init_us_2    :     31.25s CPU     31.74s WALL (  108466 calls)
     cegterg      :   7180.78s CPU   7252.94s WALL (   50952 calls)

     Called by sum_band:
     sum_band:bec :      2.21s CPU      2.27s WALL (   50952 calls)
     addusdens    :     10.88s CPU     11.03s WALL (     264 calls)

     Called by *egterg:
     h_psi        :   6778.68s CPU   6844.02s WALL (  141128 calls)
     s_psi        :     26.36s CPU     27.35s WALL (  141128 calls)
     g_psi        :      3.94s CPU      4.02s WALL (   89790 calls)
     cdiaghg      :    220.91s CPU    223.21s WALL (  136689 calls)

     Called by h_psi:
     h_psi:pot    :   6773.56s CPU   6838.73s WALL (  141128 calls)
     h_psi:calbec :     57.94s CPU     59.51s WALL (  141128 calls)
     vloc_psi     :   6685.74s CPU   6748.57s WALL (  141128 calls)
     add_vuspsi   :     28.28s CPU     29.13s WALL (  141128 calls)

     General routines
     calbec       :     86.85s CPU     88.78s WALL (  207520 calls)
     fft          :     22.57s CPU     24.42s WALL (    4474 calls)
     ffts         :      0.93s CPU      1.04s WALL (     537 calls)
     fftw         :   7034.39s CPU   7100.76s WALL ( 5259376 calls)
     interpolate  :      3.63s CPU      3.93s WALL (     537 calls)
     davcio       :      0.02s CPU      0.36s WALL (     386 calls)

     Parallel routines
     fft_scatter  :   1624.30s CPU   1646.18s WALL ( 5264387 calls)

     PWSCF        :     2h35m CPU        2h36m WALL


   This run was terminated on:  13:40:21  12Feb2018            

=------------------------------------------------------------------------------=
   JOB DONE.
=------------------------------------------------------------------------------=
