
     Program PWSCF v.6.1 (svn rev. 13369) starts on 12Feb2018 at 13:40:21 

     This program is part of the open-source Quantum ESPRESSO suite
     for quantum simulation of materials; please cite
         "P. Giannozzi et al., J. Phys.:Condens. Matter 21 395502 (2009);
          URL http://www.quantum-espresso.org", 
     in publications or presentations arising from this work. More details at
     http://www.quantum-espresso.org/quote

     Parallel version (MPI), running on    64 processors
     K-points division:     npool     =       4
     R & G space division:  proc/nbgrp/npool/nimage =      16
     Waiting for input...
     Reading input from standard input

     Current dimensions of program PWSCF are:
     Max number of different atomic species (ntypx) = 10
     Max number of k-points (npk) =  80000
     Max angular momentum in pseudopotentials (lmaxx) =  3

     Subspace diagonalization in iterative solution of the eigenvalue problem:
     a serial algorithm will be used


     Parallelization info
     --------------------
     sticks:   dense  smooth     PW     G-vecs:    dense   smooth      PW
     Min         180      90     29                 4007     1420     274
     Max         181      91     30                 4009     1421     277
     Sum        2893    1447    473                64127    22723    4407



     bravais-lattice index     =           -5
     lattice parameter (alat)  =      17.0000  a.u.
     unit-cell volume          =     662.3628 (a.u.)^3
     number of atoms/cell      =            3
     number of atomic types    =            1
     number of electrons       =        27.00
     number of Kohn-Sham states=           18
     kinetic-energy cutoff     =      40.0000  Ry
     charge density cutoff     =     320.0000  Ry
     convergence threshold     =      1.0E-10
     mixing beta               =       0.7000
     number of iterations used =            8  plain     mixing
     Exchange-correlation      = SLA  PW   PBE  PBE ( 1  4  3  4 0 0)
     nstep                     =           50


     celldm(1)=  17.000000  celldm(2)=   0.000000  celldm(3)=   0.000000
     celldm(4)=   0.920000  celldm(5)=   0.000000  celldm(6)=   0.000000

     crystal axes: (cart. coord. in units of alat)
               a(1) = (   0.373182   0.656024   0.656024 )  
               a(2) = (   0.656024   0.373182   0.656024 )  
               a(3) = (   0.656024   0.656024   0.373182 )  

     reciprocal axes: (cart. coord. in units 2 pi/alat)
               b(1) = ( -2.159226  1.376308  1.376308 )  
               b(2) = (  1.376308 -2.159226  1.376308 )  
               b(3) = (  1.376308  1.376308 -2.159226 )  


     PseudoPot. # 1 for Na read from file:
     /home/s1333534/quantum_espresso/qe-6.1/pseudo/Na_pbe_v1.uspp.F.UPF
     MD5 check sum: 76a99c7e9422403d3e93cbc85ab7bccb
     Pseudo is Ultrasoft, Zval =  9.0
     Generated by new atomic code, or converted to UPF format
     Using radial grid of  819 points,  5 beta functions with: 
                l(1) =   0
                l(2) =   0
                l(3) =   1
                l(4) =   1
                l(5) =   2
     Q(r) pseudized with  8 coefficients,  rinner =    1.250   1.250   1.250
                                                       1.250   1.250

     atomic species   valence    mass     pseudopotential
        Na             9.00    22.99000     Na( 1.00)

     12 Sym. Ops., with inversion, found



   Cartesian axes

     site n.     atom                  positions (alat units)
         1           Na  tau(   1) = (   1.2171236   1.2171236   1.2171236  )
         2           Na  tau(   2) = (   0.4681063   0.4681063   0.4681063  )
         3           Na  tau(   3) = (   0.8426150   0.8426150   0.8426150  )

     number of k points=   770  Marzari-Vanderbilt smearing, width (Ry)=  0.0200

     Number of k-points >= 100: set verbosity='high' to print them.

     Dense  grid:    64127 G-vectors     FFT dimensions: ( 100, 100, 100)

     Smooth grid:    22723 G-vectors     FFT dimensions: (  72,  72,  72)

     Estimated max dynamical RAM per process >      16.43MB

     Estimated total allocated dynamical RAM >    1051.57MB

     Initial potential from superposition of free atoms

     starting charge   26.98113, renormalised to   27.00000
     Starting wfc are   15 randomized atomic wfcs +    3 random wfc

     total cpu time spent up to now is       12.4 secs

     per-process dynamical memory:    27.1 Mb

     Self-consistent Calculation

     iteration #  1     ecut=    40.00 Ry     beta=0.70
     Davidson diagonalization with overlap
     ethr =  1.00E-02,  avg # of iterations =  5.5

     Threshold (ethr) on eigenvalues was too large:
     Diagonalizing with lowered threshold

     Davidson diagonalization with overlap
     ethr =  9.94E-06,  avg # of iterations =  7.4

     total cpu time spent up to now is      103.9 secs

     total energy              =    -285.31611804 Ry
     Harris-Foulkes estimate   =    -285.31691275 Ry
     estimated scf accuracy    <       0.00278138 Ry

     iteration #  2     ecut=    40.00 Ry     beta=0.70
     Davidson diagonalization with overlap
     ethr =  1.03E-05,  avg # of iterations =  2.0

     total cpu time spent up to now is      140.8 secs

     total energy              =    -285.31642367 Ry
     Harris-Foulkes estimate   =    -285.31648847 Ry
     estimated scf accuracy    <       0.00029290 Ry

     iteration #  3     ecut=    40.00 Ry     beta=0.70
     Davidson diagonalization with overlap
     ethr =  1.08E-06,  avg # of iterations =  2.0

     total cpu time spent up to now is      179.5 secs

     total energy              =    -285.31645236 Ry
     Harris-Foulkes estimate   =    -285.31645641 Ry
     estimated scf accuracy    <       0.00001799 Ry

     iteration #  4     ecut=    40.00 Ry     beta=0.70
     Davidson diagonalization with overlap
     ethr =  6.66E-08,  avg # of iterations =  2.0

     total cpu time spent up to now is      213.7 secs

     total energy              =    -285.31645427 Ry
     Harris-Foulkes estimate   =    -285.31645415 Ry
     estimated scf accuracy    <       0.00000006 Ry

     iteration #  5     ecut=    40.00 Ry     beta=0.70
     Davidson diagonalization with overlap
     ethr =  2.37E-10,  avg # of iterations =  3.3

     total cpu time spent up to now is      254.6 secs

     total energy              =    -285.31645434 Ry
     Harris-Foulkes estimate   =    -285.31645441 Ry
     estimated scf accuracy    <       0.00000026 Ry

     iteration #  6     ecut=    40.00 Ry     beta=0.70
     Davidson diagonalization with overlap
     ethr =  2.37E-10,  avg # of iterations =  1.3

     total cpu time spent up to now is      285.7 secs

     total energy              =    -285.31645438 Ry
     Harris-Foulkes estimate   =    -285.31645438 Ry
     estimated scf accuracy    <          1.7E-09 Ry

     iteration #  7     ecut=    40.00 Ry     beta=0.70
     Davidson diagonalization with overlap
     ethr =  6.46E-12,  avg # of iterations =  2.0

     total cpu time spent up to now is      318.5 secs

     total energy              =    -285.31645438 Ry
     Harris-Foulkes estimate   =    -285.31645438 Ry
     estimated scf accuracy    <          2.5E-10 Ry

     iteration #  8     ecut=    40.00 Ry     beta=0.70
     Davidson diagonalization with overlap
     ethr =  9.24E-13,  avg # of iterations =  1.9

     total cpu time spent up to now is      350.6 secs

     End of self-consistent calculation

     Number of k-points >= 100: set verbosity='high' to print the bands.

     the Fermi energy is     2.1616 ev

!    total energy              =    -285.31645438 Ry
     Harris-Foulkes estimate   =    -285.31645438 Ry
     estimated scf accuracy    <          6.2E-13 Ry

     The total energy is the sum of the following terms:

     one-electron contribution =    -256.14327683 Ry
     hartree contribution      =     129.80226548 Ry
     xc contribution           =     -42.85565928 Ry
     ewald contribution        =    -116.11964061 Ry
     smearing contrib. (-TS)   =      -0.00014315 Ry

     convergence has been achieved in   8 iterations

     Forces acting on atoms (cartesian axes, Ry/au):

     atom    1 type  1   force =    -0.00000461   -0.00000461   -0.00000461
     atom    2 type  1   force =     0.00000461    0.00000461    0.00000461
     atom    3 type  1   force =    -0.00000000   -0.00000000    0.00000000

     Total force =     0.000011     Total SCF correction =     0.000000


     Computing stress (Cartesian axis) and pressure

          total   stress  (Ry/bohr**3)                   (kbar)     P=    9.02
   0.00006132   0.00000277   0.00000277          9.02      0.41      0.41
   0.00000277   0.00006132   0.00000277          0.41      9.02      0.41
   0.00000277   0.00000277   0.00006132          0.41      0.41      9.02


     BFGS Geometry Optimization

     number of scf cycles    =   1
     number of bfgs steps    =   0

     enthalpy new            =    -285.3299623363 Ry

     new trust radius        =       0.0105276716 bohr
     new conv_thr            =            1.0E-10 Ry

     new unit-cell volume =    666.43058 a.u.^3 (    98.75482 Ang^3 )
     density =      1.15971 g/cm^3

CELL_PARAMETERS (alat= 17.00000000)
   0.374034693   0.657435665   0.657435665
   0.657435665   0.374034693   0.657435665
   0.657435665   0.657435665   0.374034693

ATOMIC_POSITIONS (crystal)
Na       0.722229839   0.722229839   0.722229839
Na       0.277770161   0.277770161   0.277770161
Na       0.500000000   0.500000000   0.500000000



     Writing output data file na.9r.save
     NEW-OLD atomic charge density approx. for the potential
     extrapolated charge   27.16469, renormalised to   27.00000

     total cpu time spent up to now is      357.0 secs

     per-process dynamical memory:    35.0 Mb

     Self-consistent Calculation

     iteration #  1     ecut=    40.00 Ry     beta=0.70
     Davidson diagonalization with overlap
     ethr =  1.00E-06,  avg # of iterations =  3.0

     total cpu time spent up to now is      404.8 secs

     total energy              =    -285.31064883 Ry
     Harris-Foulkes estimate   =    -284.06950822 Ry
     estimated scf accuracy    <       0.00337639 Ry

     iteration #  2     ecut=    40.00 Ry     beta=0.70
     Davidson diagonalization with overlap
     ethr =  1.25E-05,  avg # of iterations =  3.0

     total cpu time spent up to now is      453.1 secs

     total energy              =    -285.31681812 Ry
     Harris-Foulkes estimate   =    -285.31930239 Ry
     estimated scf accuracy    <       0.00566093 Ry

     iteration #  3     ecut=    40.00 Ry     beta=0.70
     Davidson diagonalization with overlap
     ethr =  1.25E-05,  avg # of iterations =  2.0

     total cpu time spent up to now is      489.3 secs

     total energy              =    -285.31680116 Ry
     Harris-Foulkes estimate   =    -285.31719085 Ry
     estimated scf accuracy    <       0.00109701 Ry

     iteration #  4     ecut=    40.00 Ry     beta=0.70
     Davidson diagonalization with overlap
     ethr =  4.06E-06,  avg # of iterations =  1.0

     total cpu time spent up to now is      519.6 secs

     total energy              =    -285.31685110 Ry
     Harris-Foulkes estimate   =    -285.31684762 Ry
     estimated scf accuracy    <       0.00035220 Ry

     iteration #  5     ecut=    40.00 Ry     beta=0.70
     Davidson diagonalization with overlap
     ethr =  1.30E-06,  avg # of iterations =  1.0

     total cpu time spent up to now is      550.2 secs

     total energy              =    -285.31675799 Ry
     Harris-Foulkes estimate   =    -285.31685398 Ry
     estimated scf accuracy    <       0.00036595 Ry

     iteration #  6     ecut=    40.00 Ry     beta=0.70
     Davidson diagonalization with overlap
     ethr =  1.30E-06,  avg # of iterations =  1.0

     total cpu time spent up to now is      580.5 secs

     total energy              =    -285.31673236 Ry
     Harris-Foulkes estimate   =    -285.31676750 Ry
     estimated scf accuracy    <       0.00016702 Ry

     iteration #  7     ecut=    40.00 Ry     beta=0.70
     Davidson diagonalization with overlap
     ethr =  6.19E-07,  avg # of iterations =  1.0

     total cpu time spent up to now is      611.2 secs

     total energy              =    -285.31669486 Ry
     Harris-Foulkes estimate   =    -285.31673546 Ry
     estimated scf accuracy    <       0.00009065 Ry

     iteration #  8     ecut=    40.00 Ry     beta=0.70
     Davidson diagonalization with overlap
     ethr =  3.36E-07,  avg # of iterations =  1.0

     total cpu time spent up to now is      641.5 secs

     total energy              =    -285.31669104 Ry
     Harris-Foulkes estimate   =    -285.31670061 Ry
     estimated scf accuracy    <       0.00001762 Ry

     iteration #  9     ecut=    40.00 Ry     beta=0.70
     Davidson diagonalization with overlap
     ethr =  6.53E-08,  avg # of iterations =  2.0

     total cpu time spent up to now is      678.0 secs

     total energy              =    -285.31669374 Ry
     Harris-Foulkes estimate   =    -285.31669371 Ry
     estimated scf accuracy    <       0.00000113 Ry

     iteration # 10     ecut=    40.00 Ry     beta=0.70
     Davidson diagonalization with overlap
     ethr =  4.18E-09,  avg # of iterations =  1.0

     total cpu time spent up to now is      708.0 secs

     total energy              =    -285.31669293 Ry
     Harris-Foulkes estimate   =    -285.31669375 Ry
     estimated scf accuracy    <       0.00000122 Ry

     iteration # 11     ecut=    40.00 Ry     beta=0.70
     Davidson diagonalization with overlap
     ethr =  4.18E-09,  avg # of iterations =  2.0

     total cpu time spent up to now is      746.6 secs

     total energy              =    -285.31669319 Ry
     Harris-Foulkes estimate   =    -285.31669319 Ry
     estimated scf accuracy    <          1.9E-09 Ry

     iteration # 12     ecut=    40.00 Ry     beta=0.70
     Davidson diagonalization with overlap
     ethr =  6.99E-12,  avg # of iterations =  2.9

     total cpu time spent up to now is      782.4 secs

     total energy              =    -285.31669319 Ry
     Harris-Foulkes estimate   =    -285.31669319 Ry
     estimated scf accuracy    <          2.2E-09 Ry

     iteration # 13     ecut=    40.00 Ry     beta=0.70
     Davidson diagonalization with overlap
     ethr =  6.99E-12,  avg # of iterations =  1.0

     total cpu time spent up to now is      813.0 secs

     total energy              =    -285.31669319 Ry
     Harris-Foulkes estimate   =    -285.31669319 Ry
     estimated scf accuracy    <          2.0E-09 Ry

     iteration # 14     ecut=    40.00 Ry     beta=0.70
     Davidson diagonalization with overlap
     ethr =  6.99E-12,  avg # of iterations =  1.0

     total cpu time spent up to now is      843.6 secs

     total energy              =    -285.31669319 Ry
     Harris-Foulkes estimate   =    -285.31669319 Ry
     estimated scf accuracy    <          1.7E-09 Ry

     iteration # 15     ecut=    40.00 Ry     beta=0.70
     Davidson diagonalization with overlap
     ethr =  6.38E-12,  avg # of iterations =  2.0

     total cpu time spent up to now is      882.2 secs

     total energy              =    -285.31669319 Ry
     Harris-Foulkes estimate   =    -285.31669319 Ry
     estimated scf accuracy    <          1.3E-09 Ry

     iteration # 16     ecut=    40.00 Ry     beta=0.70
     Davidson diagonalization with overlap
     ethr =  4.92E-12,  avg # of iterations =  1.0

     total cpu time spent up to now is      913.0 secs

     total energy              =    -285.31669319 Ry
     Harris-Foulkes estimate   =    -285.31669319 Ry
     estimated scf accuracy    <          1.2E-09 Ry

     iteration # 17     ecut=    40.00 Ry     beta=0.70
     Davidson diagonalization with overlap
     ethr =  4.34E-12,  avg # of iterations =  1.0

     total cpu time spent up to now is      943.2 secs

     total energy              =    -285.31669319 Ry
     Harris-Foulkes estimate   =    -285.31669319 Ry
     estimated scf accuracy    <          1.1E-09 Ry

     iteration # 18     ecut=    40.00 Ry     beta=0.70
     Davidson diagonalization with overlap
     ethr =  3.91E-12,  avg # of iterations =  2.0

     total cpu time spent up to now is      982.9 secs

     total energy              =    -285.31669319 Ry
     Harris-Foulkes estimate   =    -285.31669319 Ry
     estimated scf accuracy    <          1.6E-09 Ry

     iteration # 19     ecut=    40.00 Ry     beta=0.70
     Davidson diagonalization with overlap
     ethr =  3.91E-12,  avg # of iterations =  2.0

     total cpu time spent up to now is     1021.2 secs

     End of self-consistent calculation

     Number of k-points >= 100: set verbosity='high' to print the bands.

     the Fermi energy is     2.1325 ev

!    total energy              =    -285.31669319 Ry
     Harris-Foulkes estimate   =    -285.31669319 Ry
     estimated scf accuracy    <          4.5E-11 Ry

     The total energy is the sum of the following terms:

     one-electron contribution =    -256.55722329 Ry
     hartree contribution      =     129.97669934 Ry
     xc contribution           =     -42.85307492 Ry
     ewald contribution        =    -115.88295165 Ry
     smearing contrib. (-TS)   =      -0.00014267 Ry

     convergence has been achieved in  19 iterations

     Forces acting on atoms (cartesian axes, Ry/au):

     atom    1 type  1   force =    -0.00000388   -0.00000388   -0.00000388
     atom    2 type  1   force =     0.00000388    0.00000388    0.00000388
     atom    3 type  1   force =     0.00000000    0.00000000   -0.00000000

     Total force =     0.000010     Total SCF correction =     0.000001


     Computing stress (Cartesian axis) and pressure

          total   stress  (Ry/bohr**3)                   (kbar)     P=    8.19
   0.00005570   0.00000264   0.00000264          8.19      0.39      0.39
   0.00000264   0.00005570   0.00000264          0.39      8.19      0.39
   0.00000264   0.00000264   0.00005570          0.39      0.39      8.19


     number of scf cycles    =   2
     number of bfgs steps    =   1

     enthalpy old            =    -285.3299623363 Ry
     enthalpy new            =    -285.3302841046 Ry

     CASE: enthalpy_new < enthalpy_old


     WARNING: bfgs curvature condition failed, Theta= 0.856
     new trust radius        =       0.0115921519 bohr
     new conv_thr            =            1.0E-12 Ry

     new unit-cell volume =    670.92417 a.u.^3 (    99.42070 Ang^3 )
     density =      1.15195 g/cm^3

CELL_PARAMETERS (alat= 17.00000000)
   0.374974779   0.658989464   0.658989464
   0.658989464   0.374974779   0.658989464
   0.658989464   0.658989464   0.374974779

ATOMIC_POSITIONS (crystal)
Na       0.722229674   0.722229674   0.722229674
Na       0.277770326   0.277770326   0.277770326
Na       0.500000000   0.500000000   0.500000000



     Writing output data file na.9r.save
     NEW-OLD atomic charge density approx. for the potential
     extrapolated charge   27.18071, renormalised to   27.00000

     total cpu time spent up to now is     1027.6 secs

     per-process dynamical memory:    35.6 Mb

     Self-consistent Calculation

     iteration #  1     ecut=    40.00 Ry     beta=0.70
     Davidson diagonalization with overlap
     ethr =  1.00E-06,  avg # of iterations =  3.0

     total cpu time spent up to now is     1075.3 secs

     total energy              =    -285.30963370 Ry
     Harris-Foulkes estimate   =    -283.94571842 Ry
     estimated scf accuracy    <       0.00407534 Ry

     iteration #  2     ecut=    40.00 Ry     beta=0.70
     Davidson diagonalization with overlap
     ethr =  1.51E-05,  avg # of iterations =  3.0

     total cpu time spent up to now is     1123.3 secs

     total energy              =    -285.31708332 Ry
     Harris-Foulkes estimate   =    -285.32008214 Ry
     estimated scf accuracy    <       0.00683353 Ry

     iteration #  3     ecut=    40.00 Ry     beta=0.70
     Davidson diagonalization with overlap
     ethr =  1.51E-05,  avg # of iterations =  2.0

     total cpu time spent up to now is     1158.8 secs

     total energy              =    -285.31706044 Ry
     Harris-Foulkes estimate   =    -285.31753270 Ry
     estimated scf accuracy    <       0.00132591 Ry

     iteration #  4     ecut=    40.00 Ry     beta=0.70
     Davidson diagonalization with overlap
     ethr =  4.91E-06,  avg # of iterations =  1.0

     total cpu time spent up to now is     1189.2 secs

     total energy              =    -285.31712390 Ry
     Harris-Foulkes estimate   =    -285.31711684 Ry
     estimated scf accuracy    <       0.00042397 Ry

     iteration #  5     ecut=    40.00 Ry     beta=0.70
     Davidson diagonalization with overlap
     ethr =  1.57E-06,  avg # of iterations =  1.0

     total cpu time spent up to now is     1219.5 secs

     total energy              =    -285.31700874 Ry
     Harris-Foulkes estimate   =    -285.31712735 Ry
     estimated scf accuracy    <       0.00044689 Ry

     iteration #  6     ecut=    40.00 Ry     beta=0.70
     Davidson diagonalization with overlap
     ethr =  1.57E-06,  avg # of iterations =  1.0

     total cpu time spent up to now is     1249.4 secs

     total energy              =    -285.31697963 Ry
     Harris-Foulkes estimate   =    -285.31702061 Ry
     estimated scf accuracy    <       0.00020155 Ry

     iteration #  7     ecut=    40.00 Ry     beta=0.70
     Davidson diagonalization with overlap
     ethr =  7.46E-07,  avg # of iterations =  1.0

     total cpu time spent up to now is     1279.7 secs

     total energy              =    -285.31693393 Ry
     Harris-Foulkes estimate   =    -285.31698323 Ry
     estimated scf accuracy    <       0.00011181 Ry

     iteration #  8     ecut=    40.00 Ry     beta=0.70
     Davidson diagonalization with overlap
     ethr =  4.14E-07,  avg # of iterations =  1.0

     total cpu time spent up to now is     1309.7 secs

     total energy              =    -285.31692795 Ry
     Harris-Foulkes estimate   =    -285.31694069 Ry
     estimated scf accuracy    <       0.00002295 Ry

     iteration #  9     ecut=    40.00 Ry     beta=0.70
     Davidson diagonalization with overlap
     ethr =  8.50E-08,  avg # of iterations =  2.0

     total cpu time spent up to now is     1345.9 secs

     total energy              =    -285.31693153 Ry
     Harris-Foulkes estimate   =    -285.31693153 Ry
     estimated scf accuracy    <       0.00000122 Ry

     iteration # 10     ecut=    40.00 Ry     beta=0.70
     Davidson diagonalization with overlap
     ethr =  4.51E-09,  avg # of iterations =  1.0

     total cpu time spent up to now is     1375.6 secs

     total energy              =    -285.31693070 Ry
     Harris-Foulkes estimate   =    -285.31693154 Ry
     estimated scf accuracy    <       0.00000123 Ry

     iteration # 11     ecut=    40.00 Ry     beta=0.70
     Davidson diagonalization with overlap
     ethr =  4.51E-09,  avg # of iterations =  2.0

     total cpu time spent up to now is     1413.5 secs

     total energy              =    -285.31693097 Ry
     Harris-Foulkes estimate   =    -285.31693097 Ry
     estimated scf accuracy    <          7.7E-09 Ry

     iteration # 12     ecut=    40.00 Ry     beta=0.70
     Davidson diagonalization with overlap
     ethr =  2.86E-11,  avg # of iterations =  2.3

     total cpu time spent up to now is     1445.8 secs

     total energy              =    -285.31693098 Ry
     Harris-Foulkes estimate   =    -285.31693098 Ry
     estimated scf accuracy    <          9.1E-09 Ry

     iteration # 13     ecut=    40.00 Ry     beta=0.70
     Davidson diagonalization with overlap
     ethr =  2.86E-11,  avg # of iterations =  1.0

     total cpu time spent up to now is     1475.5 secs

     total energy              =    -285.31693098 Ry
     Harris-Foulkes estimate   =    -285.31693098 Ry
     estimated scf accuracy    <          8.9E-09 Ry

     iteration # 14     ecut=    40.00 Ry     beta=0.70
     Davidson diagonalization with overlap
     ethr =  2.86E-11,  avg # of iterations =  1.0

     total cpu time spent up to now is     1505.6 secs

     total energy              =    -285.31693097 Ry
     Harris-Foulkes estimate   =    -285.31693098 Ry
     estimated scf accuracy    <          8.9E-09 Ry

     iteration # 15     ecut=    40.00 Ry     beta=0.70
     Davidson diagonalization with overlap
     ethr =  2.86E-11,  avg # of iterations =  2.0

     total cpu time spent up to now is     1543.5 secs

     total energy              =    -285.31693097 Ry
     Harris-Foulkes estimate   =    -285.31693097 Ry
     estimated scf accuracy    <          3.2E-09 Ry

     iteration # 16     ecut=    40.00 Ry     beta=0.70
     Davidson diagonalization with overlap
     ethr =  1.19E-11,  avg # of iterations =  1.0

     total cpu time spent up to now is     1573.6 secs

     total energy              =    -285.31693097 Ry
     Harris-Foulkes estimate   =    -285.31693097 Ry
     estimated scf accuracy    <          3.2E-09 Ry

     iteration # 17     ecut=    40.00 Ry     beta=0.70
     Davidson diagonalization with overlap
     ethr =  1.17E-11,  avg # of iterations =  1.0

     total cpu time spent up to now is     1603.7 secs

     total energy              =    -285.31693097 Ry
     Harris-Foulkes estimate   =    -285.31693097 Ry
     estimated scf accuracy    <          3.2E-09 Ry

     iteration # 18     ecut=    40.00 Ry     beta=0.70
     Davidson diagonalization with overlap
     ethr =  1.17E-11,  avg # of iterations =  2.0

     total cpu time spent up to now is     1643.3 secs

     total energy              =    -285.31693097 Ry
     Harris-Foulkes estimate   =    -285.31693097 Ry
     estimated scf accuracy    <          5.9E-09 Ry

     iteration # 19     ecut=    40.00 Ry     beta=0.70
     Davidson diagonalization with overlap
     ethr =  1.17E-11,  avg # of iterations =  2.0

     total cpu time spent up to now is     1681.8 secs

     total energy              =    -285.31693097 Ry
     Harris-Foulkes estimate   =    -285.31693097 Ry
     estimated scf accuracy    <          1.3E-11 Ry

     iteration # 20     ecut=    40.00 Ry     beta=0.70
     Davidson diagonalization with overlap
     ethr =  1.00E-13,  avg # of iterations =  2.0

     total cpu time spent up to now is     1718.6 secs

     total energy              =    -285.31693097 Ry
     Harris-Foulkes estimate   =    -285.31693097 Ry
     estimated scf accuracy    <          2.3E-11 Ry

     iteration # 21     ecut=    40.00 Ry     beta=0.70
     Davidson diagonalization with overlap
     ethr =  1.00E-13,  avg # of iterations =  2.0

     total cpu time spent up to now is     1756.7 secs

     End of self-consistent calculation

     Number of k-points >= 100: set verbosity='high' to print the bands.

     the Fermi energy is     2.1007 ev

!    total energy              =    -285.31693097 Ry
     Harris-Foulkes estimate   =    -285.31693097 Ry
     estimated scf accuracy    <          1.9E-13 Ry

     The total energy is the sum of the following terms:

     one-electron contribution =    -257.01074014 Ry
     hartree contribution      =     130.16792822 Ry
     xc contribution           =     -42.85026085 Ry
     ewald contribution        =    -115.62371603 Ry
     smearing contrib. (-TS)   =      -0.00014216 Ry

     convergence has been achieved in  21 iterations

     Forces acting on atoms (cartesian axes, Ry/au):

     atom    1 type  1   force =    -0.00000383   -0.00000383   -0.00000383
     atom    2 type  1   force =     0.00000383    0.00000383    0.00000383
     atom    3 type  1   force =     0.00000000   -0.00000000   -0.00000000

     Total force =     0.000009     Total SCF correction =     0.000000


     Computing stress (Cartesian axis) and pressure

          total   stress  (Ry/bohr**3)                   (kbar)     P=    7.32
   0.00004977   0.00000251   0.00000251          7.32      0.37      0.37
   0.00000251   0.00004977   0.00000251          0.37      7.32      0.37
   0.00000251   0.00000251   0.00004977          0.37      0.37      7.32


     number of scf cycles    =   3
     number of bfgs steps    =   2

     enthalpy old            =    -285.3302841046 Ry
     enthalpy new            =    -285.3306135239 Ry

     CASE: enthalpy_new < enthalpy_old

     new trust radius        =       0.0174075276 bohr
     new conv_thr            =            1.0E-12 Ry

     new unit-cell volume =    677.70193 a.u.^3 (   100.42506 Ang^3 )
     density =      1.14043 g/cm^3

CELL_PARAMETERS (alat= 17.00000000)
   0.376388412   0.661322843   0.661322843
   0.661322843   0.376388412   0.661322843
   0.661322843   0.661322843   0.376388412

ATOMIC_POSITIONS (crystal)
Na       0.722229412   0.722229412   0.722229412
Na       0.277770588   0.277770588   0.277770588
Na       0.500000000   0.500000000   0.500000000



     Writing output data file na.9r.save
     NEW-OLD atomic charge density approx. for the potential
     extrapolated charge   27.26984, renormalised to   27.00000

     total cpu time spent up to now is     1763.2 secs

     per-process dynamical memory:    35.6 Mb

     Self-consistent Calculation

     iteration #  1     ecut=    40.00 Ry     beta=0.70
     Davidson diagonalization with overlap
     ethr =  1.00E-06,  avg # of iterations =  3.2

     total cpu time spent up to now is     1813.4 secs

     total energy              =    -285.30076035 Ry
     Harris-Foulkes estimate   =    -283.26294912 Ry
     estimated scf accuracy    <       0.00919772 Ry

     iteration #  2     ecut=    40.00 Ry     beta=0.70
     Davidson diagonalization with overlap
     ethr =  3.41E-05,  avg # of iterations =  3.0

     total cpu time spent up to now is     1861.2 secs

     total energy              =    -285.31760211 Ry
     Harris-Foulkes estimate   =    -285.32437097 Ry
     estimated scf accuracy    <       0.01542485 Ry

     iteration #  3     ecut=    40.00 Ry     beta=0.70
     Davidson diagonalization with overlap
     ethr =  3.41E-05,  avg # of iterations =  2.0

     total cpu time spent up to now is     1896.5 secs

     total energy              =    -285.31753308 Ry
     Harris-Foulkes estimate   =    -285.31860945 Ry
     estimated scf accuracy    <       0.00301356 Ry

     iteration #  4     ecut=    40.00 Ry     beta=0.70
     Davidson diagonalization with overlap
     ethr =  1.12E-05,  avg # of iterations =  1.0

     total cpu time spent up to now is     1926.9 secs

     total energy              =    -285.31767337 Ry
     Harris-Foulkes estimate   =    -285.31766158 Ry
     estimated scf accuracy    <       0.00096098 Ry

     iteration #  5     ecut=    40.00 Ry     beta=0.70
     Davidson diagonalization with overlap
     ethr =  3.56E-06,  avg # of iterations =  1.0

     total cpu time spent up to now is     1957.3 secs

     total energy              =    -285.31742596 Ry
     Harris-Foulkes estimate   =    -285.31768130 Ry
     estimated scf accuracy    <       0.00100394 Ry

     iteration #  6     ecut=    40.00 Ry     beta=0.70
     Davidson diagonalization with overlap
     ethr =  3.56E-06,  avg # of iterations =  1.0

     total cpu time spent up to now is     1988.0 secs

     total energy              =    -285.31735314 Ry
     Harris-Foulkes estimate   =    -285.31745054 Ry
     estimated scf accuracy    <       0.00047231 Ry

     iteration #  7     ecut=    40.00 Ry     beta=0.70
     Davidson diagonalization with overlap
     ethr =  1.75E-06,  avg # of iterations =  1.0

     total cpu time spent up to now is     2018.7 secs

     total energy              =    -285.31724824 Ry
     Harris-Foulkes estimate   =    -285.31736141 Ry
     estimated scf accuracy    <       0.00026085 Ry

     iteration #  8     ecut=    40.00 Ry     beta=0.70
     Davidson diagonalization with overlap
     ethr =  9.66E-07,  avg # of iterations =  1.0

     total cpu time spent up to now is     2049.4 secs

     total energy              =    -285.31722865 Ry
     Harris-Foulkes estimate   =    -285.31726355 Ry
     estimated scf accuracy    <       0.00005585 Ry

     iteration #  9     ecut=    40.00 Ry     beta=0.70
     Davidson diagonalization with overlap
     ethr =  2.07E-07,  avg # of iterations =  2.0

     total cpu time spent up to now is     2087.8 secs

     total energy              =    -285.31724010 Ry
     Harris-Foulkes estimate   =    -285.31723995 Ry
     estimated scf accuracy    <       0.00000054 Ry

     iteration # 10     ecut=    40.00 Ry     beta=0.70
     Davidson diagonalization with overlap
     ethr =  2.01E-09,  avg # of iterations =  1.7

     total cpu time spent up to now is     2119.7 secs

     total energy              =    -285.31723952 Ry
     Harris-Foulkes estimate   =    -285.31724012 Ry
     estimated scf accuracy    <       0.00000088 Ry

     iteration # 11     ecut=    40.00 Ry     beta=0.70
     Davidson diagonalization with overlap
     ethr =  2.01E-09,  avg # of iterations =  2.0

     total cpu time spent up to now is     2158.7 secs

     total energy              =    -285.31723972 Ry
     Harris-Foulkes estimate   =    -285.31723972 Ry
     estimated scf accuracy    <       0.00000003 Ry

     iteration # 12     ecut=    40.00 Ry     beta=0.70
     Davidson diagonalization with overlap
     ethr =  1.01E-10,  avg # of iterations =  1.1

     total cpu time spent up to now is     2189.0 secs

     total energy              =    -285.31723972 Ry
     Harris-Foulkes estimate   =    -285.31723973 Ry
     estimated scf accuracy    <       0.00000005 Ry

     iteration # 13     ecut=    40.00 Ry     beta=0.70
     Davidson diagonalization with overlap
     ethr =  1.01E-10,  avg # of iterations =  1.0

     total cpu time spent up to now is     2219.1 secs

     total energy              =    -285.31723976 Ry
     Harris-Foulkes estimate   =    -285.31723972 Ry
     estimated scf accuracy    <       0.00000004 Ry

     iteration # 14     ecut=    40.00 Ry     beta=0.70
     Davidson diagonalization with overlap
     ethr =  1.01E-10,  avg # of iterations =  2.0

     total cpu time spent up to now is     2258.3 secs

     total energy              =    -285.31723968 Ry
     Harris-Foulkes estimate   =    -285.31723977 Ry
     estimated scf accuracy    <       0.00000015 Ry

     iteration # 15     ecut=    40.00 Ry     beta=0.70
     Davidson diagonalization with overlap
     ethr =  1.01E-10,  avg # of iterations =  3.0

     total cpu time spent up to now is     2301.7 secs

     total energy              =    -285.31723971 Ry
     Harris-Foulkes estimate   =    -285.31723971 Ry
     estimated scf accuracy    <          1.8E-09 Ry

     iteration # 16     ecut=    40.00 Ry     beta=0.70
     Davidson diagonalization with overlap
     ethr =  6.76E-12,  avg # of iterations =  1.0

     total cpu time spent up to now is     2331.3 secs

     total energy              =    -285.31723971 Ry
     Harris-Foulkes estimate   =    -285.31723971 Ry
     estimated scf accuracy    <          1.3E-10 Ry

     iteration # 17     ecut=    40.00 Ry     beta=0.70
     Davidson diagonalization with overlap
     ethr =  4.78E-13,  avg # of iterations =  1.8

     total cpu time spent up to now is     2362.6 secs

     total energy              =    -285.31723971 Ry
     Harris-Foulkes estimate   =    -285.31723971 Ry
     estimated scf accuracy    <          2.6E-11 Ry

     iteration # 18     ecut=    40.00 Ry     beta=0.70
     Davidson diagonalization with overlap
     ethr =  1.00E-13,  avg # of iterations =  2.0

     total cpu time spent up to now is     2399.9 secs

     total energy              =    -285.31723971 Ry
     Harris-Foulkes estimate   =    -285.31723971 Ry
     estimated scf accuracy    <          1.6E-12 Ry

     iteration # 19     ecut=    40.00 Ry     beta=0.70
     Davidson diagonalization with overlap
     ethr =  1.00E-13,  avg # of iterations =  1.0

     total cpu time spent up to now is     2430.0 secs

     total energy              =    -285.31723971 Ry
     Harris-Foulkes estimate   =    -285.31723971 Ry
     estimated scf accuracy    <          5.5E-12 Ry

     iteration # 20     ecut=    40.00 Ry     beta=0.70
     Davidson diagonalization with overlap
     ethr =  1.00E-13,  avg # of iterations =  1.0

     total cpu time spent up to now is     2460.3 secs

     End of self-consistent calculation

     Number of k-points >= 100: set verbosity='high' to print the bands.

     the Fermi energy is     2.0537 ev

!    total energy              =    -285.31723971 Ry
     Harris-Foulkes estimate   =    -285.31723971 Ry
     estimated scf accuracy    <          3.8E-13 Ry

     The total energy is the sum of the following terms:

     one-electron contribution =    -257.68734013 Ry
     hartree contribution      =     130.45336318 Ry
     xc contribution           =     -42.84606829 Ry
     ewald contribution        =    -115.23705304 Ry
     smearing contrib. (-TS)   =      -0.00014143 Ry

     convergence has been achieved in  20 iterations

     Forces acting on atoms (cartesian axes, Ry/au):

     atom    1 type  1   force =    -0.00000369   -0.00000369   -0.00000369
     atom    2 type  1   force =     0.00000369    0.00000369    0.00000369
     atom    3 type  1   force =    -0.00000000    0.00000000    0.00000000

     Total force =     0.000009     Total SCF correction =     0.000000


     Computing stress (Cartesian axis) and pressure

          total   stress  (Ry/bohr**3)                   (kbar)     P=    6.04
   0.00004109   0.00000231   0.00000231          6.04      0.34      0.34
   0.00000231   0.00004109   0.00000231          0.34      6.04      0.34
   0.00000231   0.00000231   0.00004109          0.34      0.34      6.04


     number of scf cycles    =   4
     number of bfgs steps    =   3

     enthalpy old            =    -285.3306135239 Ry
     enthalpy new            =    -285.3310604832 Ry

     CASE: enthalpy_new < enthalpy_old

     new trust radius        =       0.0261546343 bohr
     new conv_thr            =            1.0E-12 Ry

     new unit-cell volume =    687.95315 a.u.^3 (   101.94414 Ang^3 )
     density =      1.12343 g/cm^3

CELL_PARAMETERS (alat= 17.00000000)
   0.378514739   0.664827406   0.664827406
   0.664827406   0.378514739   0.664827406
   0.664827406   0.664827406   0.378514739

ATOMIC_POSITIONS (crystal)
Na       0.722229000   0.722229000   0.722229000
Na       0.277771000   0.277771000   0.277771000
Na       0.500000000   0.500000000   0.500000000



     Writing output data file na.9r.save
     NEW-OLD atomic charge density approx. for the potential
     extrapolated charge   27.40205, renormalised to   27.00000

     total cpu time spent up to now is     2466.7 secs

     per-process dynamical memory:    35.6 Mb

     Self-consistent Calculation

     iteration #  1     ecut=    40.00 Ry     beta=0.70
     Davidson diagonalization with overlap
     ethr =  1.00E-06,  avg # of iterations =  4.1

     total cpu time spent up to now is     2520.8 secs

     total energy              =    -285.28030788 Ry
     Harris-Foulkes estimate   =    -282.24191954 Ry
     estimated scf accuracy    <       0.02079533 Ry

     iteration #  2     ecut=    40.00 Ry     beta=0.70
     Davidson diagonalization with overlap
     ethr =  7.70E-05,  avg # of iterations =  3.0

     total cpu time spent up to now is     2568.8 secs

     total energy              =    -285.31848015 Ry
     Harris-Foulkes estimate   =    -285.33378561 Ry
     estimated scf accuracy    <       0.03487785 Ry

     iteration #  3     ecut=    40.00 Ry     beta=0.70
     Davidson diagonalization with overlap
     ethr =  7.70E-05,  avg # of iterations =  2.0

     total cpu time spent up to now is     2604.5 secs

     total energy              =    -285.31826382 Ry
     Harris-Foulkes estimate   =    -285.32073443 Ry
     estimated scf accuracy    <       0.00688370 Ry

     iteration #  4     ecut=    40.00 Ry     beta=0.70
     Davidson diagonalization with overlap
     ethr =  2.55E-05,  avg # of iterations =  1.0

     total cpu time spent up to now is     2634.4 secs

     total energy              =    -285.31859309 Ry
     Harris-Foulkes estimate   =    -285.31855873 Ry
     estimated scf accuracy    <       0.00218359 Ry

     iteration #  5     ecut=    40.00 Ry     beta=0.70
     Davidson diagonalization with overlap
     ethr =  8.09E-06,  avg # of iterations =  1.0

     total cpu time spent up to now is     2664.6 secs

     total energy              =    -285.31803985 Ry
     Harris-Foulkes estimate   =    -285.31861114 Ry
     estimated scf accuracy    <       0.00229880 Ry

     iteration #  6     ecut=    40.00 Ry     beta=0.70
     Davidson diagonalization with overlap
     ethr =  8.09E-06,  avg # of iterations =  1.0

     total cpu time spent up to now is     2694.5 secs

     total energy              =    -285.31788750 Ry
     Harris-Foulkes estimate   =    -285.31809358 Ry
     estimated scf accuracy    <       0.00110611 Ry

     iteration #  7     ecut=    40.00 Ry     beta=0.70
     Davidson diagonalization with overlap
     ethr =  4.10E-06,  avg # of iterations =  1.0

     total cpu time spent up to now is     2725.0 secs

     total energy              =    -285.31764606 Ry
     Harris-Foulkes estimate   =    -285.31790384 Ry
     estimated scf accuracy    <       0.00065279 Ry

     iteration #  8     ecut=    40.00 Ry     beta=0.70
     Davidson diagonalization with overlap
     ethr =  2.42E-06,  avg # of iterations =  1.0

     total cpu time spent up to now is     2754.9 secs

     total energy              =    -285.31756471 Ry
     Harris-Foulkes estimate   =    -285.31767618 Ry
     estimated scf accuracy    <       0.00017799 Ry

     iteration #  9     ecut=    40.00 Ry     beta=0.70
     Davidson diagonalization with overlap
     ethr =  6.59E-07,  avg # of iterations =  2.0

     total cpu time spent up to now is     2793.3 secs

     total energy              =    -285.31759854 Ry
     Harris-Foulkes estimate   =    -285.31759897 Ry
     estimated scf accuracy    <       0.00000182 Ry

     iteration # 10     ecut=    40.00 Ry     beta=0.70
     Davidson diagonalization with overlap
     ethr =  6.75E-09,  avg # of iterations =  1.6

     total cpu time spent up to now is     2824.4 secs

     total energy              =    -285.31759801 Ry
     Harris-Foulkes estimate   =    -285.31759860 Ry
     estimated scf accuracy    <       0.00000101 Ry

     iteration # 11     ecut=    40.00 Ry     beta=0.70
     Davidson diagonalization with overlap
     ethr =  3.72E-09,  avg # of iterations =  2.0

     total cpu time spent up to now is     2862.4 secs

     total energy              =    -285.31759826 Ry
     Harris-Foulkes estimate   =    -285.31759822 Ry
     estimated scf accuracy    <       0.00000022 Ry

     iteration # 12     ecut=    40.00 Ry     beta=0.70
     Davidson diagonalization with overlap
     ethr =  8.21E-10,  avg # of iterations =  1.0

     total cpu time spent up to now is     2892.9 secs

     total energy              =    -285.31759827 Ry
     Harris-Foulkes estimate   =    -285.31759827 Ry
     estimated scf accuracy    <       0.00000037 Ry

     iteration # 13     ecut=    40.00 Ry     beta=0.70
     Davidson diagonalization with overlap
     ethr =  8.21E-10,  avg # of iterations =  1.0

     total cpu time spent up to now is     2923.1 secs

     total energy              =    -285.31759831 Ry
     Harris-Foulkes estimate   =    -285.31759827 Ry
     estimated scf accuracy    <       0.00000037 Ry

     iteration # 14     ecut=    40.00 Ry     beta=0.70
     Davidson diagonalization with overlap
     ethr =  8.21E-10,  avg # of iterations =  2.0

     total cpu time spent up to now is     2960.6 secs

     total energy              =    -285.31759805 Ry
     Harris-Foulkes estimate   =    -285.31759834 Ry
     estimated scf accuracy    <       0.00000046 Ry

     iteration # 15     ecut=    40.00 Ry     beta=0.70
     Davidson diagonalization with overlap
     ethr =  8.21E-10,  avg # of iterations =  2.0

     total cpu time spent up to now is     2999.2 secs

     total energy              =    -285.31759814 Ry
     Harris-Foulkes estimate   =    -285.31759815 Ry
     estimated scf accuracy    <          2.7E-09 Ry

     iteration # 16     ecut=    40.00 Ry     beta=0.70
     Davidson diagonalization with overlap
     ethr =  9.89E-12,  avg # of iterations =  1.0

     total cpu time spent up to now is     3029.1 secs

     total energy              =    -285.31759814 Ry
     Harris-Foulkes estimate   =    -285.31759814 Ry
     estimated scf accuracy    <          2.2E-10 Ry

     iteration # 17     ecut=    40.00 Ry     beta=0.70
     Davidson diagonalization with overlap
     ethr =  8.10E-13,  avg # of iterations =  2.0

     total cpu time spent up to now is     3065.4 secs

     total energy              =    -285.31759814 Ry
     Harris-Foulkes estimate   =    -285.31759814 Ry
     estimated scf accuracy    <          8.1E-12 Ry

     iteration # 18     ecut=    40.00 Ry     beta=0.70
     Davidson diagonalization with overlap
     ethr =  1.00E-13,  avg # of iterations =  1.0

     total cpu time spent up to now is     3095.4 secs

     total energy              =    -285.31759814 Ry
     Harris-Foulkes estimate   =    -285.31759814 Ry
     estimated scf accuracy    <          3.4E-12 Ry

     iteration # 19     ecut=    40.00 Ry     beta=0.70
     Davidson diagonalization with overlap
     ethr =  1.00E-13,  avg # of iterations =  1.0

     total cpu time spent up to now is     3125.7 secs

     total energy              =    -285.31759814 Ry
     Harris-Foulkes estimate   =    -285.31759814 Ry
     estimated scf accuracy    <          3.3E-12 Ry

     iteration # 20     ecut=    40.00 Ry     beta=0.70
     Davidson diagonalization with overlap
     ethr =  1.00E-13,  avg # of iterations =  1.0

     total cpu time spent up to now is     3155.6 secs

     End of self-consistent calculation

     Number of k-points >= 100: set verbosity='high' to print the bands.

     the Fermi energy is     1.9844 ev

!    total energy              =    -285.31759814 Ry
     Harris-Foulkes estimate   =    -285.31759814 Ry
     estimated scf accuracy    <          1.2E-13 Ry

     The total energy is the sum of the following terms:

     one-electron contribution =    -258.69415104 Ry
     hartree contribution      =     130.87847529 Ry
     xc contribution           =     -42.83986029 Ry
     ewald contribution        =    -114.66192169 Ry
     smearing contrib. (-TS)   =      -0.00014042 Ry

     convergence has been achieved in  20 iterations

     Forces acting on atoms (cartesian axes, Ry/au):

     atom    1 type  1   force =    -0.00000346   -0.00000346   -0.00000346
     atom    2 type  1   force =     0.00000346    0.00000346    0.00000346
     atom    3 type  1   force =    -0.00000000    0.00000000    0.00000000

     Total force =     0.000008     Total SCF correction =     0.000000


     Computing stress (Cartesian axis) and pressure

          total   stress  (Ry/bohr**3)                   (kbar)     P=    4.22
   0.00002871   0.00000203   0.00000203          4.22      0.30      0.30
   0.00000203   0.00002871   0.00000203          0.30      4.22      0.30
   0.00000203   0.00000203   0.00002871          0.30      0.30      4.22


     number of scf cycles    =   5
     number of bfgs steps    =   4

     enthalpy old            =    -285.3310604832 Ry
     enthalpy new            =    -285.3316279784 Ry

     CASE: enthalpy_new < enthalpy_old

     new trust radius        =       0.0393292175 bohr
     new conv_thr            =            1.0E-12 Ry

     new unit-cell volume =    703.52153 a.u.^3 (   104.25113 Ang^3 )
     density =      1.09857 g/cm^3

CELL_PARAMETERS (alat= 17.00000000)
   0.381714672   0.670092230   0.670092230
   0.670092230   0.381714672   0.670092230
   0.670092230   0.670092230   0.381714672

ATOMIC_POSITIONS (crystal)
Na       0.722228350   0.722228350   0.722228350
Na       0.277771650   0.277771650   0.277771650
Na       0.500000000   0.500000000   0.500000000



     Writing output data file na.9r.save
     NEW-OLD atomic charge density approx. for the potential
     extrapolated charge   27.59707, renormalised to   27.00000

     total cpu time spent up to now is     3162.0 secs

     per-process dynamical memory:    35.6 Mb

     Self-consistent Calculation

     iteration #  1     ecut=    40.00 Ry     beta=0.70
     Davidson diagonalization with overlap
     ethr =  1.00E-06,  avg # of iterations =  4.7

     total cpu time spent up to now is     3217.9 secs

     total energy              =    -285.23324917 Ry
     Harris-Foulkes estimate   =    -280.71768216 Ry
     estimated scf accuracy    <       0.04716522 Ry

     iteration #  2     ecut=    40.00 Ry     beta=0.70
     Davidson diagonalization with overlap
     ethr =  1.75E-04,  avg # of iterations =  3.0

     total cpu time spent up to now is     3265.6 secs

     total energy              =    -285.32012088 Ry
     Harris-Foulkes estimate   =    -285.35482861 Ry
     estimated scf accuracy    <       0.07908153 Ry

     iteration #  3     ecut=    40.00 Ry     beta=0.70
     Davidson diagonalization with overlap
     ethr =  1.75E-04,  avg # of iterations =  2.0

     total cpu time spent up to now is     3300.3 secs

     total energy              =    -285.31945766 Ry
     Harris-Foulkes estimate   =    -285.32515125 Ry
     estimated scf accuracy    <       0.01585391 Ry

     iteration #  4     ecut=    40.00 Ry     beta=0.70
     Davidson diagonalization with overlap
     ethr =  5.87E-05,  avg # of iterations =  1.0

     total cpu time spent up to now is     3330.3 secs

     total energy              =    -285.32013771 Ry
     Harris-Foulkes estimate   =    -285.32013769 Ry
     estimated scf accuracy    <       0.00503850 Ry

     iteration #  5     ecut=    40.00 Ry     beta=0.70
     Davidson diagonalization with overlap
     ethr =  1.87E-05,  avg # of iterations =  1.0

     total cpu time spent up to now is     3360.4 secs

     total energy              =    -285.31882711 Ry
     Harris-Foulkes estimate   =    -285.32018063 Ry
     estimated scf accuracy    <       0.00513469 Ry

     iteration #  6     ecut=    40.00 Ry     beta=0.70
     Davidson diagonalization with overlap
     ethr =  1.87E-05,  avg # of iterations =  1.0

     total cpu time spent up to now is     3390.5 secs

     total energy              =    -285.31835737 Ry
     Harris-Foulkes estimate   =    -285.31896030 Ry
     estimated scf accuracy    <       0.00234506 Ry

     iteration #  7     ecut=    40.00 Ry     beta=0.70
     Davidson diagonalization with overlap
     ethr =  8.69E-06,  avg # of iterations =  1.0

     total cpu time spent up to now is     3420.5 secs

     total energy              =    -285.31789825 Ry
     Harris-Foulkes estimate   =    -285.31841630 Ry
     estimated scf accuracy    <       0.00108856 Ry

     iteration #  8     ecut=    40.00 Ry     beta=0.70
     Davidson diagonalization with overlap
     ethr =  4.03E-06,  avg # of iterations =  1.0

     total cpu time spent up to now is     3450.6 secs

     total energy              =    -285.31786743 Ry
     Harris-Foulkes estimate   =    -285.31798108 Ry
     estimated scf accuracy    <       0.00016954 Ry

     iteration #  9     ecut=    40.00 Ry     beta=0.70
     Davidson diagonalization with overlap
     ethr =  6.28E-07,  avg # of iterations =  2.0

     total cpu time spent up to now is     3489.0 secs

     total energy              =    -285.31791137 Ry
     Harris-Foulkes estimate   =    -285.31791135 Ry
     estimated scf accuracy    <       0.00000069 Ry

     iteration # 10     ecut=    40.00 Ry     beta=0.70
     Davidson diagonalization with overlap
     ethr =  2.54E-09,  avg # of iterations =  2.5

     total cpu time spent up to now is     3521.6 secs

     total energy              =    -285.31791140 Ry
     Harris-Foulkes estimate   =    -285.31791143 Ry
     estimated scf accuracy    <       0.00000070 Ry

     iteration # 11     ecut=    40.00 Ry     beta=0.70
     Davidson diagonalization with overlap
     ethr =  2.54E-09,  avg # of iterations =  2.0

     total cpu time spent up to now is     3558.0 secs

     total energy              =    -285.31791162 Ry
     Harris-Foulkes estimate   =    -285.31791151 Ry
     estimated scf accuracy    <       0.00000095 Ry

     iteration # 12     ecut=    40.00 Ry     beta=0.70
     Davidson diagonalization with overlap
     ethr =  2.54E-09,  avg # of iterations =  1.0

     total cpu time spent up to now is     3589.3 secs

     total energy              =    -285.31791159 Ry
     Harris-Foulkes estimate   =    -285.31791162 Ry
     estimated scf accuracy    <       0.00000124 Ry

     iteration # 13     ecut=    40.00 Ry     beta=0.70
     Davidson diagonalization with overlap
     ethr =  2.54E-09,  avg # of iterations =  1.0

     total cpu time spent up to now is     3619.7 secs

     total energy              =    -285.31791139 Ry
     Harris-Foulkes estimate   =    -285.31791159 Ry
     estimated scf accuracy    <       0.00000117 Ry

     iteration # 14     ecut=    40.00 Ry     beta=0.70
     Davidson diagonalization with overlap
     ethr =  2.54E-09,  avg # of iterations =  2.0

     total cpu time spent up to now is     3653.8 secs

     total energy              =    -285.31791141 Ry
     Harris-Foulkes estimate   =    -285.31791146 Ry
     estimated scf accuracy    <       0.00000083 Ry

     iteration # 15     ecut=    40.00 Ry     beta=0.70
     Davidson diagonalization with overlap
     ethr =  2.54E-09,  avg # of iterations =  1.0

     total cpu time spent up to now is     3684.3 secs

     total energy              =    -285.31791109 Ry
     Harris-Foulkes estimate   =    -285.31791141 Ry
     estimated scf accuracy    <       0.00000072 Ry

     iteration # 16     ecut=    40.00 Ry     beta=0.70
     Davidson diagonalization with overlap
     ethr =  2.54E-09,  avg # of iterations =  1.9

     total cpu time spent up to now is     3716.3 secs

     total energy              =    -285.31791115 Ry
     Harris-Foulkes estimate   =    -285.31791113 Ry
     estimated scf accuracy    <       0.00000044 Ry

     iteration # 17     ecut=    40.00 Ry     beta=0.70
     Davidson diagonalization with overlap
     ethr =  1.62E-09,  avg # of iterations =  1.0

     total cpu time spent up to now is     3746.4 secs

     total energy              =    -285.31791112 Ry
     Harris-Foulkes estimate   =    -285.31791115 Ry
     estimated scf accuracy    <       0.00000057 Ry

     iteration # 18     ecut=    40.00 Ry     beta=0.70
     Davidson diagonalization with overlap
     ethr =  1.62E-09,  avg # of iterations =  1.0

     total cpu time spent up to now is     3776.6 secs

     total energy              =    -285.31791119 Ry
     Harris-Foulkes estimate   =    -285.31791112 Ry
     estimated scf accuracy    <       0.00000041 Ry

     iteration # 19     ecut=    40.00 Ry     beta=0.70
     Davidson diagonalization with overlap
     ethr =  1.50E-09,  avg # of iterations =  1.9

     total cpu time spent up to now is     3808.5 secs

     total energy              =    -285.31791118 Ry
     Harris-Foulkes estimate   =    -285.31791121 Ry
     estimated scf accuracy    <       0.00000007 Ry

     iteration # 20     ecut=    40.00 Ry     beta=0.70
     Davidson diagonalization with overlap
     ethr =  2.41E-10,  avg # of iterations =  1.9

     total cpu time spent up to now is     3840.8 secs

     total energy              =    -285.31791118 Ry
     Harris-Foulkes estimate   =    -285.31791119 Ry
     estimated scf accuracy    <          5.0E-09 Ry

     iteration # 21     ecut=    40.00 Ry     beta=0.70
     Davidson diagonalization with overlap
     ethr =  1.84E-11,  avg # of iterations =  1.0

     total cpu time spent up to now is     3871.1 secs

     total energy              =    -285.31791118 Ry
     Harris-Foulkes estimate   =    -285.31791118 Ry
     estimated scf accuracy    <          9.5E-11 Ry

     iteration # 22     ecut=    40.00 Ry     beta=0.70
     Davidson diagonalization with overlap
     ethr =  3.53E-13,  avg # of iterations =  2.0

     total cpu time spent up to now is     3903.6 secs

     total energy              =    -285.31791118 Ry
     Harris-Foulkes estimate   =    -285.31791118 Ry
     estimated scf accuracy    <          2.6E-12 Ry

     iteration # 23     ecut=    40.00 Ry     beta=0.70
     Davidson diagonalization with overlap
     ethr =  1.00E-13,  avg # of iterations =  1.0

     total cpu time spent up to now is     3933.8 secs

     total energy              =    -285.31791118 Ry
     Harris-Foulkes estimate   =    -285.31791118 Ry
     estimated scf accuracy    <          1.1E-12 Ry

     iteration # 24     ecut=    40.00 Ry     beta=0.70
     Davidson diagonalization with overlap
     ethr =  1.00E-13,  avg # of iterations =  1.0

     total cpu time spent up to now is     3964.2 secs

     End of self-consistent calculation

     Number of k-points >= 100: set verbosity='high' to print the bands.

     the Fermi energy is     1.8832 ev

!    total energy              =    -285.31791118 Ry
     Harris-Foulkes estimate   =    -285.31791118 Ry
     estimated scf accuracy    <          3.3E-13 Ry

     The total energy is the sum of the following terms:

     one-electron contribution =    -260.18648671 Ry
     hartree contribution      =     131.50942009 Ry
     xc contribution           =     -42.83072936 Ry
     ewald contribution        =    -113.80997612 Ry
     smearing contrib. (-TS)   =      -0.00013909 Ry

     convergence has been achieved in  24 iterations

     Forces acting on atoms (cartesian axes, Ry/au):

     atom    1 type  1   force =    -0.00000313   -0.00000313   -0.00000313
     atom    2 type  1   force =     0.00000313    0.00000313    0.00000313
     atom    3 type  1   force =     0.00000000   -0.00000000    0.00000000

     Total force =     0.000008     Total SCF correction =     0.000001
     SCF correction compared to forces is large: reduce conv_thr to get better values


     Computing stress (Cartesian axis) and pressure

          total   stress  (Ry/bohr**3)                   (kbar)     P=    1.70
   0.00001156   0.00000163   0.00000163          1.70      0.24      0.24
   0.00000163   0.00001156   0.00000163          0.24      1.70      0.24
   0.00000163   0.00000163   0.00001156          0.24      0.24      1.70


     number of scf cycles    =   6
     number of bfgs steps    =   5

     enthalpy old            =    -285.3316279784 Ry
     enthalpy new            =    -285.3322585126 Ry

     CASE: enthalpy_new < enthalpy_old

     new trust radius        =       0.0592118564 bohr
     new conv_thr            =            1.0E-12 Ry

     new unit-cell volume =    727.30836 a.u.^3 (   107.77598 Ang^3 )
     density =      1.06264 g/cm^3

CELL_PARAMETERS (alat= 17.00000000)
   0.386537002   0.678006598   0.678006598
   0.678006598   0.386537002   0.678006598
   0.678006598   0.678006598   0.386537002

ATOMIC_POSITIONS (crystal)
Na       0.722227304   0.722227304   0.722227304
Na       0.277772696   0.277772696   0.277772696
Na       0.500000000   0.500000000   0.500000000



     Writing output data file na.9r.save
     NEW-OLD atomic charge density approx. for the potential
     extrapolated charge   27.88243, renormalised to   27.00000

     total cpu time spent up to now is     3970.8 secs

     per-process dynamical memory:    35.6 Mb

     Self-consistent Calculation

     iteration #  1     ecut=    40.00 Ry     beta=0.70
     Davidson diagonalization with overlap
     ethr =  1.00E-06,  avg # of iterations =  5.9

     total cpu time spent up to now is     4030.1 secs

     total energy              =    -285.12460213 Ry
     Harris-Foulkes estimate   =    -278.44880184 Ry
     estimated scf accuracy    <       0.10759747 Ry

     iteration #  2     ecut=    40.00 Ry     beta=0.70
     Davidson diagonalization with overlap
     ethr =  3.99E-04,  avg # of iterations =  3.0

     total cpu time spent up to now is     4078.4 secs

     total energy              =    -285.32365053 Ry
     Harris-Foulkes estimate   =    -285.40275013 Ry
     estimated scf accuracy    <       0.18014491 Ry

     iteration #  3     ecut=    40.00 Ry     beta=0.70
     Davidson diagonalization with overlap
     ethr =  3.99E-04,  avg # of iterations =  2.0

     total cpu time spent up to now is     4113.6 secs

     total energy              =    -285.32155116 Ry
     Harris-Foulkes estimate   =    -285.33484129 Ry
     estimated scf accuracy    <       0.03694380 Ry

     iteration #  4     ecut=    40.00 Ry     beta=0.70
     Davidson diagonalization with overlap
     ethr =  1.37E-04,  avg # of iterations =  1.0

     total cpu time spent up to now is     4144.3 secs

     total energy              =    -285.32236529 Ry
     Harris-Foulkes estimate   =    -285.32314315 Ry
     estimated scf accuracy    <       0.01175665 Ry

     iteration #  5     ecut=    40.00 Ry     beta=0.70
     Davidson diagonalization with overlap
     ethr =  4.35E-05,  avg # of iterations =  1.0

     total cpu time spent up to now is     4174.5 secs

     total energy              =    -285.31991515 Ry
     Harris-Foulkes estimate   =    -285.32249498 Ry
     estimated scf accuracy    <       0.01013348 Ry

     iteration #  6     ecut=    40.00 Ry     beta=0.70
     Davidson diagonalization with overlap
     ethr =  3.75E-05,  avg # of iterations =  1.0

     total cpu time spent up to now is     4204.7 secs

     total energy              =    -285.31832254 Ry
     Harris-Foulkes estimate   =    -285.32013349 Ry
     estimated scf accuracy    <       0.00492876 Ry

     iteration #  7     ecut=    40.00 Ry     beta=0.70
     Davidson diagonalization with overlap
     ethr =  1.83E-05,  avg # of iterations =  1.0

     total cpu time spent up to now is     4234.8 secs

     total energy              =    -285.31771887 Ry
     Harris-Foulkes estimate   =    -285.31855504 Ry
     estimated scf accuracy    <       0.00144532 Ry

     iteration #  8     ecut=    40.00 Ry     beta=0.70
     Davidson diagonalization with overlap
     ethr =  5.35E-06,  avg # of iterations =  2.1

     total cpu time spent up to now is     4271.5 secs

     total energy              =    -285.31791500 Ry
     Harris-Foulkes estimate   =    -285.31793991 Ry
     estimated scf accuracy    <       0.00005952 Ry

     iteration #  9     ecut=    40.00 Ry     beta=0.70
     Davidson diagonalization with overlap
     ethr =  2.20E-07,  avg # of iterations =  1.4

     total cpu time spent up to now is     4302.4 secs

     total energy              =    -285.31791110 Ry
     Harris-Foulkes estimate   =    -285.31791886 Ry
     estimated scf accuracy    <       0.00001502 Ry

     iteration # 10     ecut=    40.00 Ry     beta=0.70
     Davidson diagonalization with overlap
     ethr =  5.56E-08,  avg # of iterations =  2.0

     total cpu time spent up to now is     4339.5 secs

     total energy              =    -285.31791240 Ry
     Harris-Foulkes estimate   =    -285.31791327 Ry
     estimated scf accuracy    <       0.00000149 Ry

     iteration # 11     ecut=    40.00 Ry     beta=0.70
     Davidson diagonalization with overlap
     ethr =  5.51E-09,  avg # of iterations =  2.0

     total cpu time spent up to now is     4378.8 secs

     total energy              =    -285.31791269 Ry
     Harris-Foulkes estimate   =    -285.31791273 Ry
     estimated scf accuracy    <       0.00000032 Ry

     iteration # 12     ecut=    40.00 Ry     beta=0.70
     Davidson diagonalization with overlap
     ethr =  1.19E-09,  avg # of iterations =  1.0

     total cpu time spent up to now is     4408.7 secs

     total energy              =    -285.31791265 Ry
     Harris-Foulkes estimate   =    -285.31791270 Ry
     estimated scf accuracy    <       0.00000020 Ry

     iteration # 13     ecut=    40.00 Ry     beta=0.70
     Davidson diagonalization with overlap
     ethr =  7.51E-10,  avg # of iterations =  1.0

     total cpu time spent up to now is     4438.8 secs

     total energy              =    -285.31791263 Ry
     Harris-Foulkes estimate   =    -285.31791265 Ry
     estimated scf accuracy    <       0.00000006 Ry

     iteration # 14     ecut=    40.00 Ry     beta=0.70
     Davidson diagonalization with overlap
     ethr =  2.40E-10,  avg # of iterations =  1.7

     total cpu time spent up to now is     4469.8 secs

     total energy              =    -285.31791264 Ry
     Harris-Foulkes estimate   =    -285.31791264 Ry
     estimated scf accuracy    <          9.7E-10 Ry

     iteration # 15     ecut=    40.00 Ry     beta=0.70
     Davidson diagonalization with overlap
     ethr =  3.58E-12,  avg # of iterations =  2.0

     total cpu time spent up to now is     4501.9 secs

     total energy              =    -285.31791264 Ry
     Harris-Foulkes estimate   =    -285.31791264 Ry
     estimated scf accuracy    <          2.3E-10 Ry

     iteration # 16     ecut=    40.00 Ry     beta=0.70
     Davidson diagonalization with overlap
     ethr =  8.50E-13,  avg # of iterations =  1.0

     total cpu time spent up to now is     4531.8 secs

     total energy              =    -285.31791264 Ry
     Harris-Foulkes estimate   =    -285.31791264 Ry
     estimated scf accuracy    <          1.4E-10 Ry

     iteration # 17     ecut=    40.00 Ry     beta=0.70
     Davidson diagonalization with overlap
     ethr =  5.33E-13,  avg # of iterations =  1.0

     total cpu time spent up to now is     4561.6 secs

     total energy              =    -285.31791264 Ry
     Harris-Foulkes estimate   =    -285.31791264 Ry
     estimated scf accuracy    <          1.4E-10 Ry

     iteration # 18     ecut=    40.00 Ry     beta=0.70
     Davidson diagonalization with overlap
     ethr =  5.13E-13,  avg # of iterations =  2.0

     total cpu time spent up to now is     4597.4 secs

     total energy              =    -285.31791264 Ry
     Harris-Foulkes estimate   =    -285.31791264 Ry
     estimated scf accuracy    <          6.9E-12 Ry

     iteration # 19     ecut=    40.00 Ry     beta=0.70
     Davidson diagonalization with overlap
     ethr =  1.00E-13,  avg # of iterations =  1.1

     total cpu time spent up to now is     4627.7 secs

     total energy              =    -285.31791264 Ry
     Harris-Foulkes estimate   =    -285.31791264 Ry
     estimated scf accuracy    <          4.0E-12 Ry

     iteration # 20     ecut=    40.00 Ry     beta=0.70
     Davidson diagonalization with overlap
     ethr =  1.00E-13,  avg # of iterations =  1.0

     total cpu time spent up to now is     4657.5 secs

     End of self-consistent calculation

     Number of k-points >= 100: set verbosity='high' to print the bands.

     the Fermi energy is     1.7372 ev

!    total energy              =    -285.31791264 Ry
     Harris-Foulkes estimate   =    -285.31791264 Ry
     estimated scf accuracy    <          1.7E-13 Ry

     The total energy is the sum of the following terms:

     one-electron contribution =    -262.38572335 Ry
     hartree contribution      =     132.44106494 Ry
     xc contribution           =     -42.81743942 Ry
     ewald contribution        =    -112.55567722 Ry
     smearing contrib. (-TS)   =      -0.00013758 Ry

     convergence has been achieved in  20 iterations

     Forces acting on atoms (cartesian axes, Ry/au):

     atom    1 type  1   force =    -0.00000314   -0.00000314   -0.00000314
     atom    2 type  1   force =     0.00000314    0.00000314    0.00000314
     atom    3 type  1   force =     0.00000000    0.00000000   -0.00000000

     Total force =     0.000008     Total SCF correction =     0.000000


     Computing stress (Cartesian axis) and pressure

          total   stress  (Ry/bohr**3)                   (kbar)     P=   -1.61
  -0.00001095   0.00000109   0.00000109         -1.61      0.16      0.16
   0.00000109  -0.00001095   0.00000109          0.16     -1.61      0.16
   0.00000109   0.00000109  -0.00001095          0.16      0.16     -1.61


     number of scf cycles    =   7
     number of bfgs steps    =   6

     enthalpy old            =    -285.3322585126 Ry
     enthalpy new            =    -285.3327450634 Ry

     CASE: enthalpy_new < enthalpy_old

     new trust radius        =       0.0259524491 bohr
     new conv_thr            =            1.0E-12 Ry

     new unit-cell volume =    737.83857 a.u.^3 (   109.33639 Ang^3 )
     density =      1.04748 g/cm^3

CELL_PARAMETERS (alat= 17.00000000)
   0.388668465   0.681478913   0.681478913
   0.681478913   0.388668465   0.681478913
   0.681478913   0.681478913   0.388668465

ATOMIC_POSITIONS (crystal)
Na       0.722226734   0.722226734   0.722226734
Na       0.277773266   0.277773266   0.277773266
Na       0.500000000   0.500000000   0.500000000



     Writing output data file na.9r.save
     NEW-OLD atomic charge density approx. for the potential
     extrapolated charge   27.38507, renormalised to   27.00000

     total cpu time spent up to now is     4664.1 secs

     per-process dynamical memory:    35.6 Mb

     Self-consistent Calculation

     iteration #  1     ecut=    40.00 Ry     beta=0.70
     Davidson diagonalization with overlap
     ethr =  1.00E-06,  avg # of iterations =  4.1

     total cpu time spent up to now is     4717.7 secs

     total energy              =    -285.28339030 Ry
     Harris-Foulkes estimate   =    -282.31543835 Ry
     estimated scf accuracy    <       0.01914553 Ry

     iteration #  2     ecut=    40.00 Ry     beta=0.70
     Davidson diagonalization with overlap
     ethr =  7.09E-05,  avg # of iterations =  3.0

     total cpu time spent up to now is     4765.4 secs

     total energy              =    -285.31855884 Ry
     Harris-Foulkes estimate   =    -285.33265212 Ry
     estimated scf accuracy    <       0.03211389 Ry

     iteration #  3     ecut=    40.00 Ry     beta=0.70
     Davidson diagonalization with overlap
     ethr =  7.09E-05,  avg # of iterations =  2.0

     total cpu time spent up to now is     4800.5 secs

     total energy              =    -285.31830451 Ry
     Harris-Foulkes estimate   =    -285.32063901 Ry
     estimated scf accuracy    <       0.00632333 Ry

     iteration #  4     ecut=    40.00 Ry     beta=0.70
     Davidson diagonalization with overlap
     ethr =  2.34E-05,  avg # of iterations =  1.0

     total cpu time spent up to now is     4830.1 secs

     total energy              =    -285.31872316 Ry
     Harris-Foulkes estimate   =    -285.31858827 Ry
     estimated scf accuracy    <       0.00191305 Ry

     iteration #  5     ecut=    40.00 Ry     beta=0.70
     Davidson diagonalization with overlap
     ethr =  7.09E-06,  avg # of iterations =  1.0

     total cpu time spent up to now is     4859.8 secs

     total energy              =    -285.31831513 Ry
     Harris-Foulkes estimate   =    -285.31874058 Ry
     estimated scf accuracy    <       0.00223201 Ry

     iteration #  6     ecut=    40.00 Ry     beta=0.70
     Davidson diagonalization with overlap
     ethr =  7.09E-06,  avg # of iterations =  1.0

     total cpu time spent up to now is     4889.4 secs

     total energy              =    -285.31819271 Ry
     Harris-Foulkes estimate   =    -285.31834649 Ry
     estimated scf accuracy    <       0.00130954 Ry

     iteration #  7     ecut=    40.00 Ry     beta=0.70
     Davidson diagonalization with overlap
     ethr =  4.85E-06,  avg # of iterations =  1.0

     total cpu time spent up to now is     4919.4 secs

     total energy              =    -285.31795646 Ry
     Harris-Foulkes estimate   =    -285.31820105 Ry
     estimated scf accuracy    <       0.00095791 Ry

     iteration #  8     ecut=    40.00 Ry     beta=0.70
     Davidson diagonalization with overlap
     ethr =  3.55E-06,  avg # of iterations =  1.0

     total cpu time spent up to now is     4949.2 secs

     total energy              =    -285.31770358 Ry
     Harris-Foulkes estimate   =    -285.31797240 Ry
     estimated scf accuracy    <       0.00048402 Ry

     iteration #  9     ecut=    40.00 Ry     beta=0.70
     Davidson diagonalization with overlap
     ethr =  1.79E-06,  avg # of iterations =  2.0

     total cpu time spent up to now is     4985.3 secs

     total energy              =    -285.31775553 Ry
     Harris-Foulkes estimate   =    -285.31776585 Ry
     estimated scf accuracy    <       0.00003098 Ry

     iteration # 10     ecut=    40.00 Ry     beta=0.70
     Davidson diagonalization with overlap
     ethr =  1.15E-07,  avg # of iterations =  1.0

     total cpu time spent up to now is     5015.0 secs

     total energy              =    -285.31775890 Ry
     Harris-Foulkes estimate   =    -285.31775730 Ry
     estimated scf accuracy    <       0.00001498 Ry

     iteration # 11     ecut=    40.00 Ry     beta=0.70
     Davidson diagonalization with overlap
     ethr =  5.55E-08,  avg # of iterations =  1.0

     total cpu time spent up to now is     5045.1 secs

     total energy              =    -285.31776600 Ry
     Harris-Foulkes estimate   =    -285.31775919 Ry
     estimated scf accuracy    <       0.00002147 Ry

     iteration # 12     ecut=    40.00 Ry     beta=0.70
     Davidson diagonalization with overlap
     ethr =  5.55E-08,  avg # of iterations =  1.0

     total cpu time spent up to now is     5074.8 secs

     total energy              =    -285.31775063 Ry
     Harris-Foulkes estimate   =    -285.31776608 Ry
     estimated scf accuracy    <       0.00004083 Ry

     iteration # 13     ecut=    40.00 Ry     beta=0.70
     Davidson diagonalization with overlap
     ethr =  5.55E-08,  avg # of iterations =  1.9

     total cpu time spent up to now is     5106.8 secs

     total energy              =    -285.31775155 Ry
     Harris-Foulkes estimate   =    -285.31775174 Ry
     estimated scf accuracy    <       0.00000030 Ry

     iteration # 14     ecut=    40.00 Ry     beta=0.70
     Davidson diagonalization with overlap
     ethr =  1.10E-09,  avg # of iterations =  2.0

     total cpu time spent up to now is     5145.6 secs

     total energy              =    -285.31775161 Ry
     Harris-Foulkes estimate   =    -285.31775161 Ry
     estimated scf accuracy    <          3.1E-09 Ry

     iteration # 15     ecut=    40.00 Ry     beta=0.70
     Davidson diagonalization with overlap
     ethr =  1.13E-11,  avg # of iterations =  1.5

     total cpu time spent up to now is     5176.2 secs

     total energy              =    -285.31775161 Ry
     Harris-Foulkes estimate   =    -285.31775161 Ry
     estimated scf accuracy    <          8.7E-09 Ry

     iteration # 16     ecut=    40.00 Ry     beta=0.70
     Davidson diagonalization with overlap
     ethr =  1.13E-11,  avg # of iterations =  3.0

     total cpu time spent up to now is     5221.8 secs

     total energy              =    -285.31775161 Ry
     Harris-Foulkes estimate   =    -285.31775162 Ry
     estimated scf accuracy    <       0.00000003 Ry

     iteration # 17     ecut=    40.00 Ry     beta=0.70
     Davidson diagonalization with overlap
     ethr =  1.13E-11,  avg # of iterations =  2.0

     total cpu time spent up to now is     5259.7 secs

     total energy              =    -285.31775161 Ry
     Harris-Foulkes estimate   =    -285.31775161 Ry
     estimated scf accuracy    <          5.4E-09 Ry

     iteration # 18     ecut=    40.00 Ry     beta=0.70
     Davidson diagonalization with overlap
     ethr =  1.13E-11,  avg # of iterations =  1.0

     total cpu time spent up to now is     5289.7 secs

     total energy              =    -285.31775161 Ry
     Harris-Foulkes estimate   =    -285.31775161 Ry
     estimated scf accuracy    <          2.0E-09 Ry

     iteration # 19     ecut=    40.00 Ry     beta=0.70
     Davidson diagonalization with overlap
     ethr =  7.27E-12,  avg # of iterations =  2.0

     total cpu time spent up to now is     5327.4 secs

     total energy              =    -285.31775161 Ry
     Harris-Foulkes estimate   =    -285.31775161 Ry
     estimated scf accuracy    <          7.9E-12 Ry

     iteration # 20     ecut=    40.00 Ry     beta=0.70
     Davidson diagonalization with overlap
     ethr =  1.00E-13,  avg # of iterations =  1.2

     total cpu time spent up to now is     5357.9 secs

     End of self-consistent calculation

     Number of k-points >= 100: set verbosity='high' to print the bands.

     the Fermi energy is     1.6757 ev

!    total energy              =    -285.31775161 Ry
     Harris-Foulkes estimate   =    -285.31775161 Ry
     estimated scf accuracy    <          1.7E-14 Ry

     The total energy is the sum of the following terms:

     one-electron contribution =    -263.32969669 Ry
     hartree contribution      =     132.84161616 Ry
     xc contribution           =     -42.81179577 Ry
     ewald contribution        =    -112.01773827 Ry
     smearing contrib. (-TS)   =      -0.00013704 Ry

     convergence has been achieved in  20 iterations

     Forces acting on atoms (cartesian axes, Ry/au):

     atom    1 type  1   force =    -0.00000311   -0.00000311   -0.00000311
     atom    2 type  1   force =     0.00000311    0.00000311    0.00000311
     atom    3 type  1   force =     0.00000000   -0.00000000    0.00000000

     Total force =     0.000008     Total SCF correction =     0.000000


     Computing stress (Cartesian axis) and pressure

          total   stress  (Ry/bohr**3)                   (kbar)     P=   -2.89
  -0.00001966   0.00000086   0.00000086         -2.89      0.13      0.13
   0.00000086  -0.00001966   0.00000086          0.13     -2.89      0.13
   0.00000086   0.00000086  -0.00001966          0.13      0.13     -2.89


     number of scf cycles    =   8
     number of bfgs steps    =   7

     enthalpy old            =    -285.3327450634 Ry
     enthalpy new            =    -285.3327987826 Ry

     CASE: enthalpy_new < enthalpy_old

     new trust radius        =       0.0024478974 bohr
     new conv_thr            =            1.0E-12 Ry

     new unit-cell volume =    738.82825 a.u.^3 (   109.48305 Ang^3 )
     density =      1.04607 g/cm^3

CELL_PARAMETERS (alat= 17.00000000)
   0.388897566   0.681826971   0.681826971
   0.681826971   0.388897566   0.681826971
   0.681826971   0.681826971   0.388897566

ATOMIC_POSITIONS (crystal)
Na       0.722226568   0.722226568   0.722226568
Na       0.277773432   0.277773432   0.277773432
Na       0.500000000   0.500000000   0.500000000



     Writing output data file na.9r.save
     NEW-OLD atomic charge density approx. for the potential
     extrapolated charge   27.03614, renormalised to   27.00000

     total cpu time spent up to now is     5364.5 secs

     per-process dynamical memory:    35.6 Mb

     Self-consistent Calculation

     iteration #  1     ecut=    40.00 Ry     beta=0.70
     Davidson diagonalization with overlap
     ethr =  1.00E-06,  avg # of iterations =  2.0

     total cpu time spent up to now is     5405.2 secs

     total energy              =    -285.31744336 Ry
     Harris-Foulkes estimate   =    -285.03638008 Ry
     estimated scf accuracy    <       0.00016108 Ry

     iteration #  2     ecut=    40.00 Ry     beta=0.70
     Davidson diagonalization with overlap
     ethr =  5.97E-07,  avg # of iterations =  3.0

     total cpu time spent up to now is     5449.9 secs

     total energy              =    -285.31773743 Ry
     Harris-Foulkes estimate   =    -285.31785595 Ry
     estimated scf accuracy    <       0.00026999 Ry

     iteration #  3     ecut=    40.00 Ry     beta=0.70
[...]

     total cpu time spent up to now is     7789.5 secs

     total energy              =    -285.31772707 Ry
     Harris-Foulkes estimate   =    -285.31772707 Ry
     estimated scf accuracy    <          8.8E-12 Ry

     iteration #  7     ecut=    40.00 Ry     beta=0.70
     Davidson diagonalization with overlap
     ethr =  1.00E-13,  avg # of iterations =  1.0

     total cpu time spent up to now is     7819.4 secs

     End of self-consistent calculation

     Number of k-points >= 100: set verbosity='high' to print the bands.

     the Fermi energy is     1.6683 ev

!    total energy              =    -285.31772707 Ry
     Harris-Foulkes estimate   =    -285.31772707 Ry
     estimated scf accuracy    <          6.8E-13 Ry

     The total energy is the sum of the following terms:

     one-electron contribution =    -263.44335150 Ry
     hartree contribution      =     132.88985212 Ry
     xc contribution           =     -42.81111780 Ry
     ewald contribution        =    -111.95297513 Ry
     smearing contrib. (-TS)   =      -0.00013475 Ry

     convergence has been achieved in   7 iterations

     Forces acting on atoms (cartesian axes, Ry/au):

     atom    1 type  1   force =    -0.00000151   -0.00000151   -0.00000151
     atom    2 type  1   force =     0.00000151    0.00000151    0.00000151
     atom    3 type  1   force =     0.00000000    0.00000000    0.00000000

     Total force =     0.000004     Total SCF correction =     0.000000


     Computing stress (Cartesian axis) and pressure

          total   stress  (Ry/bohr**3)                   (kbar)     P=   -3.04
  -0.00002065   0.00000042   0.00000042         -3.04      0.06      0.06
   0.00000042  -0.00002065   0.00000042          0.06     -3.04      0.06
   0.00000042   0.00000042  -0.00002065          0.06      0.06     -3.04


     number of scf cycles    =  14
     number of bfgs steps    =  13

     enthalpy old            =    -285.3328000437 Ry
     enthalpy new            =    -285.3328004355 Ry

     CASE: enthalpy_new < enthalpy_old

     new trust radius        =       0.0020173472 bohr
     new conv_thr            =            1.0E-12 Ry

     new unit-cell volume =    739.06118 a.u.^3 (   109.51757 Ang^3 )
     density =      1.04574 g/cm^3

CELL_PARAMETERS (alat= 17.00000000)
   0.389892330   0.682647790   0.682647790
   0.682647790   0.389892330   0.682647790
   0.682647790   0.682647790   0.389892330

ATOMIC_POSITIONS (crystal)
Na       0.722223001   0.722223001   0.722223001
Na       0.277776999   0.277776999   0.277776999
Na       0.500000000   0.500000000   0.500000000



     Writing output data file na.9r.save
     NEW-OLD atomic charge density approx. for the potential
     extrapolated charge   26.99775, renormalised to   27.00000

     total cpu time spent up to now is     7826.1 secs

     per-process dynamical memory:    35.6 Mb

     Self-consistent Calculation

     iteration #  1     ecut=    40.00 Ry     beta=0.70
     Davidson diagonalization with overlap
     ethr =  1.00E-06,  avg # of iterations =  2.0

     Threshold (ethr) on eigenvalues was too large:
     Diagonalizing with lowered threshold

     Davidson diagonalization with overlap
     ethr =  2.30E-09,  avg # of iterations =  2.0

     total cpu time spent up to now is     7899.6 secs

     total energy              =    -285.31772758 Ry
     Harris-Foulkes estimate   =    -285.33522891 Ry
     estimated scf accuracy    <       0.00000062 Ry

     iteration #  2     ecut=    40.00 Ry     beta=0.70
     Davidson diagonalization with overlap
     ethr =  2.28E-09,  avg # of iterations =  3.0

     total cpu time spent up to now is     7945.2 secs

     total energy              =    -285.31772871 Ry
     Harris-Foulkes estimate   =    -285.31772916 Ry
     estimated scf accuracy    <       0.00000103 Ry

     iteration #  3     ecut=    40.00 Ry     beta=0.70
     Davidson diagonalization with overlap
     ethr =  2.28E-09,  avg # of iterations =  2.0

     total cpu time spent up to now is     7980.2 secs

     total energy              =    -285.31772874 Ry
     Harris-Foulkes estimate   =    -285.31772878 Ry
     estimated scf accuracy    <       0.00000020 Ry

     iteration #  4     ecut=    40.00 Ry     beta=0.70
     Davidson diagonalization with overlap
     ethr =  7.33E-10,  avg # of iterations =  1.0

     total cpu time spent up to now is     8009.8 secs

     total energy              =    -285.31772868 Ry
     Harris-Foulkes estimate   =    -285.31772874 Ry
     estimated scf accuracy    <       0.00000011 Ry

     iteration #  5     ecut=    40.00 Ry     beta=0.70
     Davidson diagonalization with overlap
     ethr =  3.94E-10,  avg # of iterations =  2.0

     total cpu time spent up to now is     8045.6 secs

     total energy              =    -285.31772869 Ry
     Harris-Foulkes estimate   =    -285.31772869 Ry
     estimated scf accuracy    <          4.8E-09 Ry

     iteration #  6     ecut=    40.00 Ry     beta=0.70
     Davidson diagonalization with overlap
     ethr =  1.77E-11,  avg # of iterations =  2.0

     total cpu time spent up to now is     8083.8 secs

     total energy              =    -285.31772869 Ry
     Harris-Foulkes estimate   =    -285.31772869 Ry
     estimated scf accuracy    <          4.7E-10 Ry

     iteration #  7     ecut=    40.00 Ry     beta=0.70
     Davidson diagonalization with overlap
     ethr =  1.75E-12,  avg # of iterations =  2.0

     total cpu time spent up to now is     8121.8 secs

     total energy              =    -285.31772869 Ry
     Harris-Foulkes estimate   =    -285.31772869 Ry
     estimated scf accuracy    <          4.8E-12 Ry

     iteration #  8     ecut=    40.00 Ry     beta=0.70
     Davidson diagonalization with overlap
     ethr =  1.00E-13,  avg # of iterations =  1.2

     total cpu time spent up to now is     8152.1 secs

     total energy              =    -285.31772869 Ry
     Harris-Foulkes estimate   =    -285.31772869 Ry
     estimated scf accuracy    <          4.3E-12 Ry

     iteration #  9     ecut=    40.00 Ry     beta=0.70
     Davidson diagonalization with overlap
     ethr =  1.00E-13,  avg # of iterations =  1.0

     total cpu time spent up to now is     8182.3 secs

     total energy              =    -285.31772869 Ry
     Harris-Foulkes estimate   =    -285.31772869 Ry
     estimated scf accuracy    <          1.4E-12 Ry

     iteration # 10     ecut=    40.00 Ry     beta=0.70
     Davidson diagonalization with overlap
     ethr =  1.00E-13,  avg # of iterations =  1.0

     total cpu time spent up to now is     8212.1 secs

     End of self-consistent calculation

     Number of k-points >= 100: set verbosity='high' to print the bands.

     the Fermi energy is     1.6686 ev

!    total energy              =    -285.31772869 Ry
     Harris-Foulkes estimate   =    -285.31772869 Ry
     estimated scf accuracy    <          1.0E-14 Ry

     The total energy is the sum of the following terms:

     one-electron contribution =    -263.43777661 Ry
     hartree contribution      =     132.88746972 Ry
     xc contribution           =     -42.81114874 Ry
     ewald contribution        =    -111.95613961 Ry
     smearing contrib. (-TS)   =      -0.00013346 Ry

     convergence has been achieved in  10 iterations

     Forces acting on atoms (cartesian axes, Ry/au):

     atom    1 type  1   force =    -0.00000056   -0.00000056   -0.00000056
     atom    2 type  1   force =     0.00000056    0.00000056    0.00000056
     atom    3 type  1   force =     0.00000000   -0.00000000    0.00000000

     Total force =     0.000001     Total SCF correction =     0.000000


     Computing stress (Cartesian axis) and pressure

          total   stress  (Ry/bohr**3)                   (kbar)     P=   -3.03
  -0.00002062   0.00000018   0.00000018         -3.03      0.03      0.03
   0.00000018  -0.00002062   0.00000018          0.03     -3.03      0.03
   0.00000018   0.00000018  -0.00002062          0.03      0.03     -3.03


     bfgs converged in  15 scf cycles and  14 bfgs steps
     (criteria: energy <  1.0E-04 Ry, force <  1.0E-03Ry/Bohr, cell <  5.0E-02kbar)

     End of BFGS Geometry Optimization

     Final enthalpy =    -285.3328008023 Ry
Begin final coordinates
     new unit-cell volume =    739.06118 a.u.^3 (   109.51757 Ang^3 )
     density =      1.04574 g/cm^3

CELL_PARAMETERS (alat= 17.00000000)
   0.389892330   0.682647790   0.682647790
   0.682647790   0.389892330   0.682647790
   0.682647790   0.682647790   0.389892330

ATOMIC_POSITIONS (crystal)
Na       0.722223001   0.722223001   0.722223001
Na       0.277776999   0.277776999   0.277776999
Na       0.500000000   0.500000000   0.500000000
End final coordinates



     A final scf calculation at the relaxed structure.
     The G-vectors are recalculated for the final unit cell
     Results may differ from those at the preceding step.

     Parallelization info
     --------------------
     sticks:   dense  smooth     PW     G-vecs:    dense   smooth      PW
     Min         194      97     32                 4459     1581     303
     Max         195      98     33                 4461     1582     305
     Sum        3111    1555    521                71361    25305    4859



     bravais-lattice index     =           -5
     lattice parameter (alat)  =      17.0000  a.u.
     unit-cell volume          =     739.0612 (a.u.)^3
     number of atoms/cell      =            3
     number of atomic types    =            1
     number of electrons       =        27.00
     number of Kohn-Sham states=           18
     kinetic-energy cutoff     =      40.0000  Ry
     charge density cutoff     =     320.0000  Ry
     convergence threshold     =      1.0E-12
     mixing beta               =       0.7000
     number of iterations used =            8  plain     mixing
     Exchange-correlation      = SLA  PW   PBE  PBE ( 1  4  3  4 0 0)

     celldm(1)=  17.000000  celldm(2)=   0.000000  celldm(3)=   0.000000
     celldm(4)=   0.920000  celldm(5)=   0.000000  celldm(6)=   0.000000

     crystal axes: (cart. coord. in units of alat)
               a(1) = (   0.389892   0.682648   0.682648 )  
               a(2) = (   0.682648   0.389892   0.682648 )  
               a(3) = (   0.682648   0.682648   0.389892 )  

     reciprocal axes: (cart. coord. in units 2 pi/alat)
               b(1) = ( -2.087300  1.328520  1.328520 )  
               b(2) = (  1.328520 -2.087300  1.328520 )  
               b(3) = (  1.328520  1.328520 -2.087300 )  


     PseudoPot. # 1 for Na read from file:
     /home/s1333534/quantum_espresso/qe-6.1/pseudo/Na_pbe_v1.uspp.F.UPF
     MD5 check sum: 76a99c7e9422403d3e93cbc85ab7bccb
     Pseudo is Ultrasoft, Zval =  9.0
     Generated by new atomic code, or converted to UPF format
     Using radial grid of  819 points,  5 beta functions with: 
                l(1) =   0
                l(2) =   0
                l(3) =   1
                l(4) =   1
                l(5) =   2
     Q(r) pseudized with  8 coefficients,  rinner =    1.250   1.250   1.250
                                                       1.250   1.250

     atomic species   valence    mass     pseudopotential
        Na             9.00    22.99000     Na( 1.00)

     12 Sym. Ops., with inversion, found



   Cartesian axes

     site n.     atom                  positions (alat units)
         1           Na  tau(   1) = (   1.2676371   1.2676371   1.2676371  )
         2           Na  tau(   2) = (   0.4875508   0.4875508   0.4875508  )
         3           Na  tau(   3) = (   0.8775940   0.8775940   0.8775940  )

     number of k points=   770  Marzari-Vanderbilt smearing, width (Ry)=  0.0200

     Number of k-points >= 100: set verbosity='high' to print them.

     Dense  grid:    71361 G-vectors     FFT dimensions: ( 108, 108, 108)

     Smooth grid:    25305 G-vectors     FFT dimensions: (  72,  72,  72)

     Estimated max dynamical RAM per process >      18.59MB

     Estimated total allocated dynamical RAM >    1189.57MB

     Initial potential from superposition of free atoms

     starting charge   26.98113, renormalised to   27.00000
     Starting wfc are   15 randomized atomic wfcs +    3 random wfc

     Writing output data file na.9r.save

     total cpu time spent up to now is     8230.6 secs

     per-process dynamical memory:    36.4 Mb

     Self-consistent Calculation

     iteration #  1     ecut=    40.00 Ry     beta=0.70
     Davidson diagonalization with overlap
     c_bands:  1 eigenvalues not converged
     c_bands:  1 eigenvalues not converged
     c_bands:  1 eigenvalues not converged
     c_bands:  1 eigenvalues not converged
     c_bands:  1 eigenvalues not converged
     c_bands:  1 eigenvalues not converged
     ethr =  1.00E-06,  avg # of iterations = 13.9

     total cpu time spent up to now is     8317.9 secs

     total energy              =    -285.31938502 Ry
     Harris-Foulkes estimate   =    -285.32005255 Ry
     estimated scf accuracy    <       0.00265044 Ry

     iteration #  2     ecut=    40.00 Ry     beta=0.70
     Davidson diagonalization with overlap
     ethr =  9.82E-06,  avg # of iterations =  2.0

     total cpu time spent up to now is     8356.3 secs

     total energy              =    -285.31969430 Ry
     Harris-Foulkes estimate   =    -285.31976319 Ry
     estimated scf accuracy    <       0.00029766 Ry

     iteration #  3     ecut=    40.00 Ry     beta=0.70
     Davidson diagonalization with overlap
     ethr =  1.10E-06,  avg # of iterations =  2.0

     total cpu time spent up to now is     8397.0 secs

     total energy              =    -285.31972476 Ry
     Harris-Foulkes estimate   =    -285.31972912 Ry
     estimated scf accuracy    <       0.00001931 Ry

     iteration #  4     ecut=    40.00 Ry     beta=0.70
     Davidson diagonalization with overlap
     ethr =  7.15E-08,  avg # of iterations =  1.8

     total cpu time spent up to now is     8430.0 secs

     total energy              =    -285.31972637 Ry
     Harris-Foulkes estimate   =    -285.31972688 Ry
     estimated scf accuracy    <       0.00000176 Ry

     iteration #  5     ecut=    40.00 Ry     beta=0.70
     Davidson diagonalization with overlap
     ethr =  6.51E-09,  avg # of iterations =  2.0

     total cpu time spent up to now is     8465.7 secs

     total energy              =    -285.31972685 Ry
     Harris-Foulkes estimate   =    -285.31972686 Ry
     estimated scf accuracy    <       0.00000014 Ry

     iteration #  6     ecut=    40.00 Ry     beta=0.70
     Davidson diagonalization with overlap
     ethr =  5.09E-10,  avg # of iterations =  2.0

     total cpu time spent up to now is     8501.0 secs

     total energy              =    -285.31972687 Ry
     Harris-Foulkes estimate   =    -285.31972687 Ry
     estimated scf accuracy    <          2.5E-09 Ry

     iteration #  7     ecut=    40.00 Ry     beta=0.70
     Davidson diagonalization with overlap
     ethr =  9.44E-12,  avg # of iterations =  2.5

     total cpu time spent up to now is     8542.9 secs

     total energy              =    -285.31972687 Ry
     Harris-Foulkes estimate   =    -285.31972687 Ry
     estimated scf accuracy    <          4.2E-11 Ry

     iteration #  8     ecut=    40.00 Ry     beta=0.70
     Davidson diagonalization with overlap
     ethr =  1.55E-13,  avg # of iterations =  2.3

     total cpu time spent up to now is     8580.2 secs

     total energy              =    -285.31972687 Ry
     Harris-Foulkes estimate   =    -285.31972687 Ry
     estimated scf accuracy    <          3.7E-12 Ry

     iteration #  9     ecut=    40.00 Ry     beta=0.70
     Davidson diagonalization with overlap
     ethr =  1.00E-13,  avg # of iterations =  1.0

     total cpu time spent up to now is     8611.6 secs

     End of self-consistent calculation

     Number of k-points >= 100: set verbosity='high' to print the bands.

     the Fermi energy is     1.6695 ev

!    total energy              =    -285.31972687 Ry
     Harris-Foulkes estimate   =    -285.31972687 Ry
     estimated scf accuracy    <          3.0E-14 Ry

     The total energy is the sum of the following terms:

     one-electron contribution =    -263.43962158 Ry
     hartree contribution      =     132.88769337 Ry
     xc contribution           =     -42.81152556 Ry
     ewald contribution        =    -111.95613961 Ry
     smearing contrib. (-TS)   =      -0.00013350 Ry

     convergence has been achieved in   9 iterations

     Forces acting on atoms (cartesian axes, Ry/au):

     atom    1 type  1   force =    -0.00000088   -0.00000088   -0.00000088
     atom    2 type  1   force =     0.00000088    0.00000088    0.00000088
     atom    3 type  1   force =     0.00000000    0.00000000    0.00000000

     Total force =     0.000002     Total SCF correction =     0.000001
     SCF correction compared to forces is large: reduce conv_thr to get better values


     Computing stress (Cartesian axis) and pressure

          total   stress  (Ry/bohr**3)                   (kbar)     P=   -1.60
  -0.00001087   0.00000037   0.00000037         -1.60      0.05      0.05
   0.00000037  -0.00001087   0.00000037          0.05     -1.60      0.05
   0.00000037   0.00000037  -0.00001087          0.05      0.05     -1.60


     Writing output data file na.9r.save

     init_run     :     23.98s CPU     24.42s WALL (       2 calls)
     electrons    :   8410.23s CPU   8490.77s WALL (      16 calls)
     update_pot   :      9.63s CPU     10.12s WALL (      14 calls)
     forces       :     10.55s CPU     10.64s WALL (      16 calls)
     stress       :     31.00s CPU     31.18s WALL (      16 calls)

     Called by init_run:
     wfcinit      :     22.09s CPU     22.33s WALL (       2 calls)
     potinit      :      0.67s CPU      0.75s WALL (       2 calls)

     Called by electrons:
     c_bands      :   6929.70s CPU   6994.34s WALL (     242 calls)
     sum_band     :   1431.17s CPU   1445.00s WALL (     242 calls)
     v_of_rho     :     33.89s CPU     34.90s WALL (     251 calls)
     newd         :      9.79s CPU      9.93s WALL (     251 calls)
     mix_rho      :      2.95s CPU      3.15s WALL (     242 calls)

     Called by c_bands:
     init_us_2    :     28.78s CPU     29.18s WALL (   99974 calls)
     cegterg      :   6555.15s CPU   6616.93s WALL (   46706 calls)

     Called by sum_band:
     sum_band:bec :      2.06s CPU      2.11s WALL (   46706 calls)
     addusdens    :     10.02s CPU     10.14s WALL (     242 calls)

     Called by *egterg:
     h_psi        :   6180.28s CPU   6236.00s WALL (  130416 calls)
     s_psi        :     24.53s CPU     25.47s WALL (  130416 calls)
     g_psi        :      3.70s CPU      3.76s WALL (   83324 calls)
     cdiaghg      :    207.82s CPU    209.67s WALL (  125977 calls)

     Called by h_psi:
     h_psi:pot    :   6175.52s CPU   6231.08s WALL (  130416 calls)
     h_psi:calbec :     53.25s CPU     54.69s WALL (  130416 calls)
     vloc_psi     :   6094.31s CPU   6147.68s WALL (  130416 calls)
     add_vuspsi   :     26.43s CPU     27.23s WALL (  130416 calls)

     General routines
     calbec       :     79.37s CPU     81.11s WALL (  192562 calls)
     fft          :     20.78s CPU     22.52s WALL (    4122 calls)
     ffts         :      0.88s CPU      0.98s WALL (     493 calls)
     fftw         :   6395.20s CPU   6451.20s WALL ( 4852636 calls)
     interpolate  :      3.29s CPU      3.58s WALL (     493 calls)
     davcio       :      0.01s CPU      0.29s WALL (     386 calls)

     Parallel routines
     fft_scatter  :   1404.57s CPU   1422.56s WALL ( 4857251 calls)

     PWSCF        :     2h22m CPU        2h23m WALL


   This run was terminated on:  16: 3:59  12Feb2018            

=------------------------------------------------------------------------------=
   JOB DONE.
=------------------------------------------------------------------------------=
