
     Program PWSCF v.6.1 (svn rev. 13369) starts on 14Feb2018 at  9:40:45 

     This program is part of the open-source Quantum ESPRESSO suite
     for quantum simulation of materials; please cite
         "P. Giannozzi et al., J. Phys.:Condens. Matter 21 395502 (2009);
          URL http://www.quantum-espresso.org", 
     in publications or presentations arising from this work. More details at
     http://www.quantum-espresso.org/quote

     Parallel version (MPI), running on    64 processors
     K-points division:     npool     =       4
     R & G space division:  proc/nbgrp/npool/nimage =      16
     Waiting for input...
     Reading input from standard input

     Current dimensions of program PWSCF are:
     Max number of different atomic species (ntypx) = 10
     Max number of k-points (npk) =  80000
     Max angular momentum in pseudopotentials (lmaxx) =  3

     Subspace diagonalization in iterative solution of the eigenvalue problem:
     a serial algorithm will be used


     Parallelization info
     --------------------
     sticks:   dense  smooth     PW     G-vecs:    dense   smooth      PW
     Min         190      96     32                 4359     1543     298
     Max         191      97     33                 4360     1544     299
     Sum        3049    1539    517                69751    24699    4773



     bravais-lattice index     =            0
     lattice parameter (alat)  =      17.0000  a.u.
     unit-cell volume          =     723.2052 (a.u.)^3
     number of atoms/cell      =            3
     number of atomic types    =            1
     number of electrons       =        27.00
     number of Kohn-Sham states=           18
     kinetic-energy cutoff     =      40.0000  Ry
     charge density cutoff     =     320.0000  Ry
     convergence threshold     =      1.0E-10
     mixing beta               =       0.7000
     number of iterations used =            8  plain     mixing
     Exchange-correlation      = SLA  PW   PBE  PBE ( 1  4  3  4 0 0)
     nstep                     =           50


     celldm(1)=  17.000000  celldm(2)=   0.000000  celldm(3)=   0.000000
     celldm(4)=   0.000000  celldm(5)=   0.000000  celldm(6)=   0.000000

     crystal axes: (cart. coord. in units of alat)
               a(1) = (   0.387549   0.678096   0.678096 )  
               a(2) = (   0.678096   0.387549   0.678096 )  
               a(3) = (   0.678096   0.678096   0.387549 )  

     reciprocal axes: (cart. coord. in units 2 pi/alat)
               b(1) = ( -2.103364  1.338421  1.338421 )  
               b(2) = (  1.338421 -2.103364  1.338421 )  
               b(3) = (  1.338421  1.338421 -2.103364 )  


     PseudoPot. # 1 for Na read from file:
     /home/s1333534/quantum_espresso/qe-6.1/pseudo/Na_pbe_v1.uspp.F.UPF
     MD5 check sum: 76a99c7e9422403d3e93cbc85ab7bccb
     Pseudo is Ultrasoft, Zval =  9.0
     Generated by new atomic code, or converted to UPF format
     Using radial grid of  819 points,  5 beta functions with: 
                l(1) =   0
                l(2) =   0
                l(3) =   1
                l(4) =   1
                l(5) =   2
     Q(r) pseudized with  8 coefficients,  rinner =    1.250   1.250   1.250
                                                       1.250   1.250

     atomic species   valence    mass     pseudopotential
        Na             9.00    22.99000     Na( 1.00)

     12 Sym. Ops., with inversion, found



   Cartesian axes

     site n.     atom                  positions (alat units)
         1           Na  tau(   1) = (   1.2593688   1.2593688   1.2593688  )
         2           Na  tau(   2) = (   0.4843735   0.4843735   0.4843735  )
         3           Na  tau(   3) = (   0.8718711   0.8718711   0.8718711  )

     number of k points=   770  Marzari-Vanderbilt smearing, width (Ry)=  0.0200

     Number of k-points >= 100: set verbosity='high' to print them.

     Dense  grid:    69751 G-vectors     FFT dimensions: ( 108, 108, 108)

     Smooth grid:    24699 G-vectors     FFT dimensions: (  72,  72,  72)

     Estimated max dynamical RAM per process >      18.32MB

     Estimated total allocated dynamical RAM >    1172.66MB

     Initial potential from superposition of free atoms

     starting charge   26.98113, renormalised to   27.00000
     Starting wfc are   15 randomized atomic wfcs +    3 random wfc

     total cpu time spent up to now is       13.0 secs

     per-process dynamical memory:    29.0 Mb

     Self-consistent Calculation

     iteration #  1     ecut=    40.00 Ry     beta=0.70
     Davidson diagonalization with overlap
     ethr =  1.00E-02,  avg # of iterations =  5.7

     Threshold (ethr) on eigenvalues was too large:
     Diagonalizing with lowered threshold

     Davidson diagonalization with overlap
     ethr =  9.28E-06,  avg # of iterations =  7.6

     total cpu time spent up to now is      109.6 secs

     total energy              =    -285.31918933 Ry
     Harris-Foulkes estimate   =    -285.31983556 Ry
     estimated scf accuracy    <       0.00262835 Ry

     iteration #  2     ecut=    40.00 Ry     beta=0.70
     Davidson diagonalization with overlap
     ethr =  9.73E-06,  avg # of iterations =  2.0

     total cpu time spent up to now is      147.8 secs

     total energy              =    -285.31946801 Ry
     Harris-Foulkes estimate   =    -285.31952370 Ry
     estimated scf accuracy    <       0.00027599 Ry

     iteration #  3     ecut=    40.00 Ry     beta=0.70
     Davidson diagonalization with overlap
     ethr =  1.02E-06,  avg # of iterations =  2.0

     total cpu time spent up to now is      187.9 secs

     total energy              =    -285.31949494 Ry
     Harris-Foulkes estimate   =    -285.31949874 Ry
     estimated scf accuracy    <       0.00001724 Ry

     iteration #  4     ecut=    40.00 Ry     beta=0.70
     Davidson diagonalization with overlap
     ethr =  6.39E-08,  avg # of iterations =  2.0

     total cpu time spent up to now is      224.0 secs

     total energy              =    -285.31949660 Ry
     Harris-Foulkes estimate   =    -285.31949701 Ry
     estimated scf accuracy    <       0.00000143 Ry

     iteration #  5     ecut=    40.00 Ry     beta=0.70
     Davidson diagonalization with overlap
     ethr =  5.31E-09,  avg # of iterations =  2.1

     total cpu time spent up to now is      258.6 secs

     total energy              =    -285.31949698 Ry
     Harris-Foulkes estimate   =    -285.31949700 Ry
     estimated scf accuracy    <       0.00000016 Ry

     iteration #  6     ecut=    40.00 Ry     beta=0.70
     Davidson diagonalization with overlap
     ethr =  6.00E-10,  avg # of iterations =  1.8

     total cpu time spent up to now is      292.3 secs

     total energy              =    -285.31949700 Ry
     Harris-Foulkes estimate   =    -285.31949700 Ry
     estimated scf accuracy    <          4.4E-10 Ry

     iteration #  7     ecut=    40.00 Ry     beta=0.70
     Davidson diagonalization with overlap
     ethr =  1.65E-12,  avg # of iterations =  3.3

     total cpu time spent up to now is      337.1 secs

     End of self-consistent calculation

     Number of k-points >= 100: set verbosity='high' to print the bands.

     the Fermi energy is     1.7623 ev

!    total energy              =    -285.31949700 Ry
     Harris-Foulkes estimate   =    -285.31949700 Ry
     estimated scf accuracy    <          3.1E-11 Ry

     The total energy is the sum of the following terms:

     one-electron contribution =    -262.01392484 Ry
     hartree contribution      =     132.28304321 Ry
     xc contribution           =     -42.82001072 Ry
     ewald contribution        =    -112.76847376 Ry
     smearing contrib. (-TS)   =      -0.00013089 Ry

     convergence has been achieved in   7 iterations

     Forces acting on atoms (cartesian axes, Ry/au):

     atom    1 type  1   force =    -0.00000268   -0.00000268   -0.00000268
     atom    2 type  1   force =     0.00000268    0.00000268    0.00000268
     atom    3 type  1   force =     0.00000000   -0.00000000    0.00000000

     Total force =     0.000007     Total SCF correction =     0.000017
     SCF correction compared to forces is large: reduce conv_thr to get better values


     Computing stress (Cartesian axis) and pressure

          total   stress  (Ry/bohr**3)                   (kbar)     P=    0.18
   0.00000121   0.00000011   0.00000011          0.18      0.02      0.02
   0.00000011   0.00000121   0.00000011          0.02      0.18      0.02
   0.00000011   0.00000011   0.00000121          0.02      0.02      0.18


     BFGS Geometry Optimization

     number of scf cycles    =   1
     number of bfgs steps    =   0

     enthalpy new            =    -285.3194970009 Ry

     new trust radius        =       0.0001642622 bohr
     new conv_thr            =            1.0E-10 Ry

     new unit-cell volume =    723.27090 a.u.^3 (   107.17769 Ang^3 )
     density =      1.06857 g/cm^3

CELL_PARAMETERS (alat= 17.00000000)
   0.387564971   0.678119863   0.678119863
   0.678119863   0.387564971   0.678119863
   0.678119863   0.678119863   0.387564971

ATOMIC_POSITIONS (crystal)
Na       0.722221752   0.722221752   0.722221752
Na       0.277778248   0.277778248   0.277778248
Na       0.500000000   0.500000000   0.500000000



     Writing output data file na.9r.save
     NEW-OLD atomic charge density approx. for the potential
     extrapolated charge   27.00245, renormalised to   27.00000

     total cpu time spent up to now is      344.0 secs

     per-process dynamical memory:    38.2 Mb

     Self-consistent Calculation

     iteration #  1     ecut=    40.00 Ry     beta=0.70
     Davidson diagonalization with overlap
     ethr =  1.00E-06,  avg # of iterations =  2.0

     Threshold (ethr) on eigenvalues was too large:
     Diagonalizing with lowered threshold

     Davidson diagonalization with overlap
     ethr =  2.72E-09,  avg # of iterations =  1.0

     total cpu time spent up to now is      415.5 secs

     total energy              =    -285.31949577 Ry
     Harris-Foulkes estimate   =    -285.30052387 Ry
     estimated scf accuracy    <       0.00000074 Ry

     iteration #  2     ecut=    40.00 Ry     beta=0.70
     Davidson diagonalization with overlap
     ethr =  2.72E-09,  avg # of iterations =  3.0

     total cpu time spent up to now is      463.3 secs

     total energy              =    -285.31949711 Ry
     Harris-Foulkes estimate   =    -285.31949765 Ry
     estimated scf accuracy    <       0.00000123 Ry

     iteration #  3     ecut=    40.00 Ry     beta=0.70
     Davidson diagonalization with overlap
     ethr =  2.72E-09,  avg # of iterations =  2.0

     total cpu time spent up to now is      500.8 secs

     total energy              =    -285.31949712 Ry
     Harris-Foulkes estimate   =    -285.31949719 Ry
     estimated scf accuracy    <       0.00000024 Ry

     iteration #  4     ecut=    40.00 Ry     beta=0.70
     Davidson diagonalization with overlap
     ethr =  8.77E-10,  avg # of iterations =  1.0

     total cpu time spent up to now is      533.1 secs

     total energy              =    -285.31949711 Ry
     Harris-Foulkes estimate   =    -285.31949713 Ry
     estimated scf accuracy    <       0.00000010 Ry

     iteration #  5     ecut=    40.00 Ry     beta=0.70
     Davidson diagonalization with overlap
     ethr =  3.85E-10,  avg # of iterations =  1.0

     total cpu time spent up to now is      565.2 secs

     total energy              =    -285.31949709 Ry
     Harris-Foulkes estimate   =    -285.31949711 Ry
     estimated scf accuracy    <       0.00000006 Ry

     iteration #  6     ecut=    40.00 Ry     beta=0.70
     Davidson diagonalization with overlap
     ethr =  2.33E-10,  avg # of iterations =  1.0

     total cpu time spent up to now is      597.7 secs

     total energy              =    -285.31949708 Ry
     Harris-Foulkes estimate   =    -285.31949709 Ry
     estimated scf accuracy    <       0.00000002 Ry

     iteration #  7     ecut=    40.00 Ry     beta=0.70
     Davidson diagonalization with overlap
     ethr =  7.24E-11,  avg # of iterations =  2.0

     total cpu time spent up to now is      637.8 secs

     total energy              =    -285.31949708 Ry
     Harris-Foulkes estimate   =    -285.31949708 Ry
     estimated scf accuracy    <          1.3E-10 Ry

     iteration #  8     ecut=    40.00 Ry     beta=0.70
     Davidson diagonalization with overlap
     ethr =  4.89E-13,  avg # of iterations =  2.1

     total cpu time spent up to now is      671.6 secs

     End of self-consistent calculation

     Number of k-points >= 100: set verbosity='high' to print the bands.

     the Fermi energy is     1.7619 ev

!    total energy              =    -285.31949708 Ry
     Harris-Foulkes estimate   =    -285.31949708 Ry
     estimated scf accuracy    <          3.6E-11 Ry

     The total energy is the sum of the following terms:

     one-electron contribution =    -262.01988128 Ry
     hartree contribution      =     132.28553992 Ry
     xc contribution           =     -42.81996667 Ry
     ewald contribution        =    -112.76505816 Ry
     smearing contrib. (-TS)   =      -0.00013088 Ry

     convergence has been achieved in   8 iterations

     Forces acting on atoms (cartesian axes, Ry/au):

     atom    1 type  1   force =     0.00000126    0.00000126    0.00000126
     atom    2 type  1   force =    -0.00000126   -0.00000126   -0.00000126
     atom    3 type  1   force =     0.00000000   -0.00000000    0.00000000

     Total force =     0.000003     Total SCF correction =     0.000000


     Computing stress (Cartesian axis) and pressure

          total   stress  (Ry/bohr**3)                   (kbar)     P=    0.15
   0.00000100   0.00000011   0.00000011          0.15      0.02      0.02
   0.00000011   0.00000100   0.00000011          0.02      0.15      0.02
   0.00000011   0.00000011   0.00000100          0.02      0.02      0.15


     number of scf cycles    =   2
     number of bfgs steps    =   1

     enthalpy old            =    -285.3194970009 Ry
     enthalpy new            =    -285.3194970829 Ry

     CASE: enthalpy_new < enthalpy_old


     WARNING: bfgs curvature condition failed, Theta= 0.971
     new trust radius        =       0.0001806910 bohr
     new conv_thr            =            1.0E-12 Ry

     new unit-cell volume =    723.34297 a.u.^3 (   107.18837 Ang^3 )
     density =      1.06847 g/cm^3

CELL_PARAMETERS (alat= 17.00000000)
   0.387582669   0.678146178   0.678146178
   0.678146178   0.387582669   0.678146178
   0.678146178   0.678146178   0.387582669

ATOMIC_POSITIONS (crystal)
Na       0.722221803   0.722221803   0.722221803
Na       0.277778197   0.277778197   0.277778197
Na       0.500000000   0.500000000   0.500000000



     Writing output data file na.9r.save
     NEW-OLD atomic charge density approx. for the potential
     extrapolated charge   27.00269, renormalised to   27.00000

     total cpu time spent up to now is      678.3 secs

     per-process dynamical memory:    38.2 Mb

     Self-consistent Calculation

     iteration #  1     ecut=    40.00 Ry     beta=0.70
     Davidson diagonalization with overlap
     ethr =  1.00E-06,  avg # of iterations =  2.0

     Threshold (ethr) on eigenvalues was too large:
     Diagonalizing with lowered threshold

     Davidson diagonalization with overlap
     ethr =  3.24E-09,  avg # of iterations =  1.0

     total cpu time spent up to now is      750.1 secs

     total energy              =    -285.31949559 Ry
     Harris-Foulkes estimate   =    -285.29869238 Ry
     estimated scf accuracy    <       0.00000088 Ry

     iteration #  2     ecut=    40.00 Ry     beta=0.70
     Davidson diagonalization with overlap
     ethr =  3.25E-09,  avg # of iterations =  3.0

     total cpu time spent up to now is      798.2 secs

     total energy              =    -285.31949720 Ry
     Harris-Foulkes estimate   =    -285.31949785 Ry
     estimated scf accuracy    <       0.00000148 Ry

     iteration #  3     ecut=    40.00 Ry     beta=0.70
     Davidson diagonalization with overlap
     ethr =  3.25E-09,  avg # of iterations =  2.0

     total cpu time spent up to now is      836.3 secs

     total energy              =    -285.31949720 Ry
     Harris-Foulkes estimate   =    -285.31949730 Ry
     estimated scf accuracy    <       0.00000029 Ry

     iteration #  4     ecut=    40.00 Ry     beta=0.70
     Davidson diagonalization with overlap
     ethr =  1.06E-09,  avg # of iterations =  1.0

     total cpu time spent up to now is      868.3 secs

     total energy              =    -285.31949720 Ry
     Harris-Foulkes estimate   =    -285.31949721 Ry
     estimated scf accuracy    <       0.00000010 Ry

     iteration #  5     ecut=    40.00 Ry     beta=0.70
     Davidson diagonalization with overlap
     ethr =  3.54E-10,  avg # of iterations =  1.0

     total cpu time spent up to now is      900.6 secs

     total energy              =    -285.31949718 Ry
     Harris-Foulkes estimate   =    -285.31949721 Ry
     estimated scf accuracy    <       0.00000008 Ry

     iteration #  6     ecut=    40.00 Ry     beta=0.70
     Davidson diagonalization with overlap
     ethr =  3.07E-10,  avg # of iterations =  1.0

     total cpu time spent up to now is      932.5 secs

     total energy              =    -285.31949717 Ry
     Harris-Foulkes estimate   =    -285.31949718 Ry
     estimated scf accuracy    <       0.00000003 Ry

     iteration #  7     ecut=    40.00 Ry     beta=0.70
     Davidson diagonalization with overlap
     ethr =  1.28E-10,  avg # of iterations =  2.0

     total cpu time spent up to now is      970.8 secs

     total energy              =    -285.31949717 Ry
     Harris-Foulkes estimate   =    -285.31949717 Ry
     estimated scf accuracy    <          3.0E-09 Ry

     iteration #  8     ecut=    40.00 Ry     beta=0.70
     Davidson diagonalization with overlap
     ethr =  1.11E-11,  avg # of iterations =  2.0

     total cpu time spent up to now is     1011.6 secs

     total energy              =    -285.31949717 Ry
     Harris-Foulkes estimate   =    -285.31949717 Ry
     estimated scf accuracy    <          7.1E-12 Ry

     iteration #  9     ecut=    40.00 Ry     beta=0.70
     Davidson diagonalization with overlap
     ethr =  1.00E-13,  avg # of iterations =  2.5

     total cpu time spent up to now is     1054.2 secs

     total energy              =    -285.31949717 Ry
     Harris-Foulkes estimate   =    -285.31949717 Ry
     estimated scf accuracy    <          1.0E-10 Ry

     iteration # 10     ecut=    40.00 Ry     beta=0.70
     Davidson diagonalization with overlap
     ethr =  1.00E-13,  avg # of iterations =  2.0

     total cpu time spent up to now is     1092.5 secs

     total energy              =    -285.31949717 Ry
     Harris-Foulkes estimate   =    -285.31949717 Ry
     estimated scf accuracy    <          3.9E-11 Ry

     iteration # 11     ecut=    40.00 Ry     beta=0.70
     Davidson diagonalization with overlap
     ethr =  1.00E-13,  avg # of iterations =  2.0

     total cpu time spent up to now is     1133.1 secs

     End of self-consistent calculation

     Number of k-points >= 100: set verbosity='high' to print the bands.

     the Fermi energy is     1.7615 ev

!    total energy              =    -285.31949717 Ry
     Harris-Foulkes estimate   =    -285.31949717 Ry
     estimated scf accuracy    <          1.1E-13 Ry

     The total energy is the sum of the following terms:

     one-electron contribution =    -262.02649316 Ry
     hartree contribution      =     132.28837657 Ry
     xc contribution           =     -42.81993660 Ry
     ewald contribution        =    -112.76131312 Ry
     smearing contrib. (-TS)   =      -0.00013087 Ry

     convergence has been achieved in  11 iterations

     Forces acting on atoms (cartesian axes, Ry/au):

     atom    1 type  1   force =     0.00000124    0.00000124    0.00000124
     atom    2 type  1   force =    -0.00000124   -0.00000124   -0.00000124
     atom    3 type  1   force =     0.00000000    0.00000000   -0.00000000

     Total force =     0.000003     Total SCF correction =     0.000000


     Computing stress (Cartesian axis) and pressure

          total   stress  (Ry/bohr**3)                   (kbar)     P=    0.16
   0.00000112   0.00000010   0.00000010          0.16      0.02      0.02
   0.00000010   0.00000112   0.00000010          0.02      0.16      0.02
   0.00000010   0.00000010   0.00000112          0.02      0.02      0.16


     number of scf cycles    =   3
     number of bfgs steps    =   2

     enthalpy old            =    -285.3194970829 Ry
     enthalpy new            =    -285.3194971681 Ry

     CASE: enthalpy_new < enthalpy_old


     WARNING: bfgs curvature condition failed, Theta= 0.526
     uphill step: resetting bfgs history

     new trust radius        =       0.0001519131 bohr
     new conv_thr            =            1.0E-12 Ry

     new unit-cell volume =    723.40374 a.u.^3 (   107.19737 Ang^3 )
     density =      1.06838 g/cm^3

CELL_PARAMETERS (alat= 17.00000000)
   0.387597028   0.678167923   0.678167923
   0.678167923   0.387597028   0.678167923
   0.678167923   0.678167923   0.387597028

ATOMIC_POSITIONS (crystal)
Na       0.722221845   0.722221845   0.722221845
Na       0.277778155   0.277778155   0.277778155
Na       0.500000000   0.500000000   0.500000000



     Writing output data file na.9r.save
     NEW-OLD atomic charge density approx. for the potential
     extrapolated charge   27.00227, renormalised to   27.00000

     total cpu time spent up to now is     1139.9 secs

     per-process dynamical memory:    38.4 Mb

     Self-consistent Calculation

     iteration #  1     ecut=    40.00 Ry     beta=0.70
     Davidson diagonalization with overlap
     ethr =  1.00E-06,  avg # of iterations =  2.0

     Threshold (ethr) on eigenvalues was too large:
     Diagonalizing with lowered threshold

     Davidson diagonalization with overlap
     ethr =  2.33E-09,  avg # of iterations =  1.0

     total cpu time spent up to now is     1211.5 secs

     total energy              =    -285.31949611 Ry
     Harris-Foulkes estimate   =    -285.30195554 Ry
     estimated scf accuracy    <       0.00000063 Ry

     iteration #  2     ecut=    40.00 Ry     beta=0.70
     Davidson diagonalization with overlap
     ethr =  2.33E-09,  avg # of iterations =  3.0

     total cpu time spent up to now is     1259.0 secs

     total energy              =    -285.31949726 Ry
     Harris-Foulkes estimate   =    -285.31949772 Ry
     estimated scf accuracy    <       0.00000106 Ry

     iteration #  3     ecut=    40.00 Ry     beta=0.70
     Davidson diagonalization with overlap
     ethr =  2.33E-09,  avg # of iterations =  2.0

     total cpu time spent up to now is     1296.4 secs

     total energy              =    -285.31949726 Ry
     Harris-Foulkes estimate   =    -285.31949733 Ry
     estimated scf accuracy    <       0.00000020 Ry

     iteration #  4     ecut=    40.00 Ry     beta=0.70
     Davidson diagonalization with overlap
     ethr =  7.49E-10,  avg # of iterations =  1.0

     total cpu time spent up to now is     1328.4 secs

     total energy              =    -285.31949726 Ry
     Harris-Foulkes estimate   =    -285.31949727 Ry
     estimated scf accuracy    <       0.00000007 Ry

     iteration #  5     ecut=    40.00 Ry     beta=0.70
     Davidson diagonalization with overlap
     ethr =  2.49E-10,  avg # of iterations =  1.0

     total cpu time spent up to now is     1360.6 secs

     total energy              =    -285.31949725 Ry
     Harris-Foulkes estimate   =    -285.31949726 Ry
     estimated scf accuracy    <       0.00000006 Ry

     iteration #  6     ecut=    40.00 Ry     beta=0.70
     Davidson diagonalization with overlap
     ethr =  2.16E-10,  avg # of iterations =  1.0

     total cpu time spent up to now is     1392.7 secs

     total energy              =    -285.31949723 Ry
     Harris-Foulkes estimate   =    -285.31949725 Ry
     estimated scf accuracy    <       0.00000002 Ry

     iteration #  7     ecut=    40.00 Ry     beta=0.70
     Davidson diagonalization with overlap
     ethr =  9.09E-11,  avg # of iterations =  2.0

     total cpu time spent up to now is     1430.4 secs

     total energy              =    -285.31949724 Ry
     Harris-Foulkes estimate   =    -285.31949724 Ry
     estimated scf accuracy    <          2.4E-09 Ry

     iteration #  8     ecut=    40.00 Ry     beta=0.70
     Davidson diagonalization with overlap
     ethr =  8.78E-12,  avg # of iterations =  2.0

     total cpu time spent up to now is     1470.1 secs

     total energy              =    -285.31949724 Ry
     Harris-Foulkes estimate   =    -285.31949724 Ry
     estimated scf accuracy    <          8.8E-12 Ry

     iteration #  9     ecut=    40.00 Ry     beta=0.70
     Davidson diagonalization with overlap
     ethr =  1.00E-13,  avg # of iterations =  2.4

     total cpu time spent up to now is     1512.7 secs

     total energy              =    -285.31949724 Ry
     Harris-Foulkes estimate   =    -285.31949724 Ry
     estimated scf accuracy    <          8.5E-11 Ry

     iteration # 10     ecut=    40.00 Ry     beta=0.70
     Davidson diagonalization with overlap
     ethr =  1.00E-13,  avg # of iterations =  2.0

     total cpu time spent up to now is     1548.3 secs

     total energy              =    -285.31949724 Ry
     Harris-Foulkes estimate   =    -285.31949724 Ry
     estimated scf accuracy    <          3.3E-11 Ry

     iteration # 11     ecut=    40.00 Ry     beta=0.70
     Davidson diagonalization with overlap
     ethr =  1.00E-13,  avg # of iterations =  2.0

     total cpu time spent up to now is     1588.5 secs

     End of self-consistent calculation

     Number of k-points >= 100: set verbosity='high' to print the bands.

     the Fermi energy is     1.7611 ev

!    total energy              =    -285.31949724 Ry
     Harris-Foulkes estimate   =    -285.31949724 Ry
     estimated scf accuracy    <          7.6E-14 Ry

     The total energy is the sum of the following terms:

     one-electron contribution =    -262.03203074 Ry
     hartree contribution      =     132.29072298 Ry
     xc contribution           =     -42.81990300 Ry
     ewald contribution        =    -112.75815561 Ry
     smearing contrib. (-TS)   =      -0.00013086 Ry

     convergence has been achieved in  11 iterations

     Forces acting on atoms (cartesian axes, Ry/au):

     atom    1 type  1   force =     0.00000121    0.00000121    0.00000121
     atom    2 type  1   force =    -0.00000121   -0.00000121   -0.00000121
     atom    3 type  1   force =     0.00000000   -0.00000000    0.00000000

     Total force =     0.000003     Total SCF correction =     0.000000


     Computing stress (Cartesian axis) and pressure

          total   stress  (Ry/bohr**3)                   (kbar)     P=    0.16
   0.00000106   0.00000010   0.00000010          0.16      0.01      0.01
   0.00000010   0.00000106   0.00000010          0.01      0.16      0.01
   0.00000010   0.00000010   0.00000106          0.01      0.01      0.16


     number of scf cycles    =   4
     number of bfgs steps    =   3

     enthalpy old            =    -285.3194971681 Ry
     enthalpy new            =    -285.3194972359 Ry

     CASE: enthalpy_new < enthalpy_old


     WARNING: bfgs curvature condition failed, Theta= 0.844
     new trust radius        =       0.0001671065 bohr
     new conv_thr            =            1.0E-12 Ry

     new unit-cell volume =    723.47058 a.u.^3 (   107.20728 Ang^3 )
     density =      1.06828 g/cm^3

CELL_PARAMETERS (alat= 17.00000000)
   0.387612882   0.678191886   0.678191886
   0.678191886   0.387612882   0.678191886
   0.678191886   0.678191886   0.387612882

ATOMIC_POSITIONS (crystal)
Na       0.722221892   0.722221892   0.722221892
Na       0.277778108   0.277778108   0.277778108
Na       0.500000000   0.500000000   0.500000000



     Writing output data file na.9r.save
     NEW-OLD atomic charge density approx. for the potential
     extrapolated charge   27.00249, renormalised to   27.00000

     total cpu time spent up to now is     1595.1 secs

     per-process dynamical memory:    38.4 Mb

     Self-consistent Calculation

     iteration #  1     ecut=    40.00 Ry     beta=0.70
     Davidson diagonalization with overlap
     ethr =  1.00E-06,  avg # of iterations =  2.0

     Threshold (ethr) on eigenvalues was too large:
     Diagonalizing with lowered threshold

     Davidson diagonalization with overlap
     ethr =  2.82E-09,  avg # of iterations =  1.0

     total cpu time spent up to now is     1667.4 secs

     total energy              =    -285.31949594 Ry
     Harris-Foulkes estimate   =    -285.30020684 Ry
     estimated scf accuracy    <       0.00000076 Ry

     iteration #  2     ecut=    40.00 Ry     beta=0.70
     Davidson diagonalization with overlap
     ethr =  2.82E-09,  avg # of iterations =  3.0

     total cpu time spent up to now is     1715.4 secs

     total energy              =    -285.31949733 Ry
     Harris-Foulkes estimate   =    -285.31949789 Ry
     estimated scf accuracy    <       0.00000128 Ry

     iteration #  3     ecut=    40.00 Ry     beta=0.70
     Davidson diagonalization with overlap
     ethr =  2.82E-09,  avg # of iterations =  2.0

     total cpu time spent up to now is     1752.8 secs

     total energy              =    -285.31949733 Ry
     Harris-Foulkes estimate   =    -285.31949742 Ry
     estimated scf accuracy    <       0.00000024 Ry

     iteration #  4     ecut=    40.00 Ry     beta=0.70
     Davidson diagonalization with overlap
     ethr =  9.06E-10,  avg # of iterations =  1.0

     total cpu time spent up to now is     1784.9 secs

     total energy              =    -285.31949734 Ry
     Harris-Foulkes estimate   =    -285.31949734 Ry
     estimated scf accuracy    <       0.00000008 Ry

     iteration #  5     ecut=    40.00 Ry     beta=0.70
     Davidson diagonalization with overlap
     ethr =  3.01E-10,  avg # of iterations =  1.0

     total cpu time spent up to now is     1816.9 secs

     total energy              =    -285.31949732 Ry
     Harris-Foulkes estimate   =    -285.31949734 Ry
     estimated scf accuracy    <       0.00000007 Ry

     iteration #  6     ecut=    40.00 Ry     beta=0.70
     Davidson diagonalization with overlap
     ethr =  2.61E-10,  avg # of iterations =  1.0

     total cpu time spent up to now is     1849.3 secs

     total energy              =    -285.31949730 Ry
     Harris-Foulkes estimate   =    -285.31949732 Ry
     estimated scf accuracy    <       0.00000003 Ry

     iteration #  7     ecut=    40.00 Ry     beta=0.70
     Davidson diagonalization with overlap
     ethr =  1.10E-10,  avg # of iterations =  2.0

     total cpu time spent up to now is     1887.2 secs

     total energy              =    -285.31949731 Ry
     Harris-Foulkes estimate   =    -285.31949731 Ry
     estimated scf accuracy    <          2.8E-09 Ry

     iteration #  8     ecut=    40.00 Ry     beta=0.70
     Davidson diagonalization with overlap
     ethr =  1.05E-11,  avg # of iterations =  2.0

     total cpu time spent up to now is     1928.5 secs

     total energy              =    -285.31949731 Ry
     Harris-Foulkes estimate   =    -285.31949731 Ry
     estimated scf accuracy    <          1.1E-11 Ry

     iteration #  9     ecut=    40.00 Ry     beta=0.70
     Davidson diagonalization with overlap
     ethr =  1.00E-13,  avg # of iterations =  2.5

     total cpu time spent up to now is     1971.9 secs

     total energy              =    -285.31949731 Ry
     Harris-Foulkes estimate   =    -285.31949731 Ry
     estimated scf accuracy    <          1.1E-10 Ry

     iteration # 10     ecut=    40.00 Ry     beta=0.70
     Davidson diagonalization with overlap
     ethr =  1.00E-13,  avg # of iterations =  2.0

     total cpu time spent up to now is     2008.0 secs

     total energy              =    -285.31949731 Ry
     Harris-Foulkes estimate   =    -285.31949731 Ry
     estimated scf accuracy    <          4.5E-11 Ry

     iteration # 11     ecut=    40.00 Ry     beta=0.70
     Davidson diagonalization with overlap
     ethr =  1.00E-13,  avg # of iterations =  2.0

     total cpu time spent up to now is     2048.7 secs

     End of self-consistent calculation

     Number of k-points >= 100: set verbosity='high' to print the bands.

     the Fermi energy is     1.7607 ev

!    total energy              =    -285.31949731 Ry
     Harris-Foulkes estimate   =    -285.31949731 Ry
     estimated scf accuracy    <          8.9E-14 Ry

     The total energy is the sum of the following terms:

     one-electron contribution =    -262.03812042 Ry
     hartree contribution      =     132.29330360 Ry
     xc contribution           =     -42.81986615 Ry
     ewald contribution        =    -112.75468350 Ry
     smearing contrib. (-TS)   =      -0.00013084 Ry

     convergence has been achieved in  11 iterations

     Forces acting on atoms (cartesian axes, Ry/au):

     atom    1 type  1   force =     0.00000117    0.00000117    0.00000117
     atom    2 type  1   force =    -0.00000117   -0.00000117   -0.00000117
     atom    3 type  1   force =     0.00000000    0.00000000    0.00000000

     Total force =     0.000003     Total SCF correction =     0.000000


     Computing stress (Cartesian axis) and pressure

          total   stress  (Ry/bohr**3)                   (kbar)     P=    0.15
   0.00000100   0.00000010   0.00000010          0.15      0.01      0.01
   0.00000010   0.00000100   0.00000010          0.01      0.15      0.01
   0.00000010   0.00000010   0.00000100          0.01      0.01      0.15


     number of scf cycles    =   5
     number of bfgs steps    =   4

     enthalpy old            =    -285.3194972359 Ry
     enthalpy new            =    -285.3194973063 Ry

     CASE: enthalpy_new < enthalpy_old

     new trust radius        =       0.0002506634 bohr
     new conv_thr            =            1.0E-12 Ry

     new unit-cell volume =    723.57079 a.u.^3 (   107.22213 Ang^3 )
     density =      1.06813 g/cm^3

CELL_PARAMETERS (alat= 17.00000000)
   0.387636809   0.678227937   0.678227937
   0.678227937   0.387636809   0.678227937
   0.678227937   0.678227937   0.387636809

ATOMIC_POSITIONS (crystal)
Na       0.722221964   0.722221964   0.722221964
Na       0.277778036   0.277778036   0.277778036
Na       0.500000000   0.500000000   0.500000000



     Writing output data file na.9r.save
     NEW-OLD atomic charge density approx. for the potential
     extrapolated charge   27.00374, renormalised to   27.00000

     total cpu time spent up to now is     2055.5 secs

     per-process dynamical memory:    38.4 Mb

     Self-consistent Calculation

     iteration #  1     ecut=    40.00 Ry     beta=0.70
     Davidson diagonalization with overlap
     ethr =  1.00E-06,  avg # of iterations =  2.0

     Threshold (ethr) on eigenvalues was too large:
     Diagonalizing with lowered threshold

     Davidson diagonalization with overlap
     ethr =  6.33E-09,  avg # of iterations =  1.0

     total cpu time spent up to now is     2127.2 secs

     total energy              =    -285.31949434 Ry
     Harris-Foulkes estimate   =    -285.29057590 Ry
     estimated scf accuracy    <       0.00000171 Ry

     iteration #  2     ecut=    40.00 Ry     beta=0.70
     Davidson diagonalization with overlap
     ethr =  6.34E-09,  avg # of iterations =  3.0

     total cpu time spent up to now is     2174.8 secs

     total energy              =    -285.31949746 Ry
     Harris-Foulkes estimate   =    -285.31949872 Ry
     estimated scf accuracy    <       0.00000287 Ry

     iteration #  3     ecut=    40.00 Ry     beta=0.70
     Davidson diagonalization with overlap
     ethr =  6.34E-09,  avg # of iterations =  2.0

     total cpu time spent up to now is     2212.2 secs

     total energy              =    -285.31949746 Ry
     Harris-Foulkes estimate   =    -285.31949765 Ry
     estimated scf accuracy    <       0.00000055 Ry

     iteration #  4     ecut=    40.00 Ry     beta=0.70
     Davidson diagonalization with overlap
     ethr =  2.04E-09,  avg # of iterations =  1.0

     total cpu time spent up to now is     2243.7 secs

     total energy              =    -285.31949747 Ry
     Harris-Foulkes estimate   =    -285.31949748 Ry
     estimated scf accuracy    <       0.00000018 Ry

     iteration #  5     ecut=    40.00 Ry     beta=0.70
     Davidson diagonalization with overlap
     ethr =  6.78E-10,  avg # of iterations =  1.0

     total cpu time spent up to now is     2275.6 secs

     total energy              =    -285.31949743 Ry
     Harris-Foulkes estimate   =    -285.31949747 Ry
     estimated scf accuracy    <       0.00000016 Ry

     iteration #  6     ecut=    40.00 Ry     beta=0.70
     Davidson diagonalization with overlap
     ethr =  5.88E-10,  avg # of iterations =  1.0

     total cpu time spent up to now is     2307.0 secs

     total energy              =    -285.31949740 Ry
     Harris-Foulkes estimate   =    -285.31949743 Ry
     estimated scf accuracy    <       0.00000007 Ry

     iteration #  7     ecut=    40.00 Ry     beta=0.70
     Davidson diagonalization with overlap
     ethr =  2.47E-10,  avg # of iterations =  2.0

     total cpu time spent up to now is     2343.9 secs

     total energy              =    -285.31949740 Ry
     Harris-Foulkes estimate   =    -285.31949741 Ry
     estimated scf accuracy    <          6.3E-09 Ry

     iteration #  8     ecut=    40.00 Ry     beta=0.70
     Davidson diagonalization with overlap
     ethr =  2.33E-11,  avg # of iterations =  2.0

     total cpu time spent up to now is     2383.9 secs

     total energy              =    -285.31949740 Ry
     Harris-Foulkes estimate   =    -285.31949740 Ry
     estimated scf accuracy    <          2.5E-11 Ry

     iteration #  9     ecut=    40.00 Ry     beta=0.70
     Davidson diagonalization with overlap
     ethr =  1.00E-13,  avg # of iterations =  2.8

     total cpu time spent up to now is     2427.0 secs

     total energy              =    -285.31949740 Ry
     Harris-Foulkes estimate   =    -285.31949740 Ry
     estimated scf accuracy    <          2.4E-10 Ry

     iteration # 10     ecut=    40.00 Ry     beta=0.70
     Davidson diagonalization with overlap
     ethr =  1.00E-13,  avg # of iterations =  2.0

     total cpu time spent up to now is     2467.3 secs

     total energy              =    -285.31949740 Ry
     Harris-Foulkes estimate   =    -285.31949740 Ry
     estimated scf accuracy    <          1.2E-10 Ry

     iteration # 11     ecut=    40.00 Ry     beta=0.70
     Davidson diagonalization with overlap
     ethr =  1.00E-13,  avg # of iterations =  2.8

     total cpu time spent up to now is     2510.9 secs

     End of self-consistent calculation

     Number of k-points >= 100: set verbosity='high' to print the bands.

     the Fermi energy is     1.7601 ev

!    total energy              =    -285.31949740 Ry
     Harris-Foulkes estimate   =    -285.31949740 Ry
     estimated scf accuracy    <          2.0E-13 Ry

     The total energy is the sum of the following terms:

     one-electron contribution =    -262.04725050 Ry
     hartree contribution      =     132.29717316 Ry
     xc contribution           =     -42.81981103 Ry
     ewald contribution        =    -112.74947821 Ry
     smearing contrib. (-TS)   =      -0.00013083 Ry

     convergence has been achieved in  11 iterations

     Forces acting on atoms (cartesian axes, Ry/au):

     atom    1 type  1   force =     0.00000112    0.00000112    0.00000112
     atom    2 type  1   force =    -0.00000112   -0.00000112   -0.00000112
     atom    3 type  1   force =    -0.00000000   -0.00000000    0.00000000

     Total force =     0.000003     Total SCF correction =     0.000000


     Computing stress (Cartesian axis) and pressure

          total   stress  (Ry/bohr**3)                   (kbar)     P=    0.13
   0.00000090   0.00000009   0.00000009          0.13      0.01      0.01
   0.00000009   0.00000090   0.00000009          0.01      0.13      0.01
   0.00000009   0.00000009   0.00000090          0.01      0.01      0.13


     number of scf cycles    =   6
     number of bfgs steps    =   5

     enthalpy old            =    -285.3194973063 Ry
     enthalpy new            =    -285.3194974037 Ry

     CASE: enthalpy_new < enthalpy_old

     new trust radius        =       0.0003760031 bohr
     new conv_thr            =            1.0E-12 Ry

     new unit-cell volume =    723.72105 a.u.^3 (   107.24439 Ang^3 )
     density =      1.06791 g/cm^3

CELL_PARAMETERS (alat= 17.00000000)
   0.387672928   0.678282180   0.678282180
   0.678282180   0.387672928   0.678282180
   0.678282180   0.678282180   0.387672928

ATOMIC_POSITIONS (crystal)
Na       0.722222076   0.722222076   0.722222076
Na       0.277777924   0.277777924   0.277777924
Na       0.500000000   0.500000000   0.500000000



     Writing output data file na.9r.save
     NEW-OLD atomic charge density approx. for the potential
     extrapolated charge   27.00560, renormalised to   27.00000

     total cpu time spent up to now is     2517.7 secs

     per-process dynamical memory:    38.4 Mb

     Self-consistent Calculation

     iteration #  1     ecut=    40.00 Ry     beta=0.70
     Davidson diagonalization with overlap
     ethr =  1.00E-06,  avg # of iterations =  2.0

     Threshold (ethr) on eigenvalues was too large:
     Diagonalizing with lowered threshold

     Davidson diagonalization with overlap
     ethr =  1.42E-08,  avg # of iterations =  1.0

     total cpu time spent up to now is     2589.5 secs

     total energy              =    -285.31949064 Ry
     Harris-Foulkes estimate   =    -285.27613815 Ry
     estimated scf accuracy    <       0.00000385 Ry

     iteration #  2     ecut=    40.00 Ry     beta=0.70
     Davidson diagonalization with overlap
     ethr =  1.43E-08,  avg # of iterations =  3.0

     total cpu time spent up to now is     2637.5 secs

     total energy              =    -285.31949766 Ry
     Harris-Foulkes estimate   =    -285.31950049 Ry
     estimated scf accuracy    <       0.00000645 Ry

     iteration #  3     ecut=    40.00 Ry     beta=0.70
     Davidson diagonalization with overlap
     ethr =  1.43E-08,  avg # of iterations =  2.0

     total cpu time spent up to now is     2675.0 secs

     total energy              =    -285.31949766 Ry
     Harris-Foulkes estimate   =    -285.31949809 Ry
     estimated scf accuracy    <       0.00000124 Ry

     iteration #  4     ecut=    40.00 Ry     beta=0.70
     Davidson diagonalization with overlap
     ethr =  4.58E-09,  avg # of iterations =  1.0

     total cpu time spent up to now is     2707.2 secs

     total energy              =    -285.31949769 Ry
     Harris-Foulkes estimate   =    -285.31949771 Ry
     estimated scf accuracy    <       0.00000041 Ry

     iteration #  5     ecut=    40.00 Ry     beta=0.70
     Davidson diagonalization with overlap
     ethr =  1.53E-09,  avg # of iterations =  1.0

     total cpu time spent up to now is     2738.6 secs

     total energy              =    -285.31949759 Ry
     Harris-Foulkes estimate   =    -285.31949769 Ry
     estimated scf accuracy    <       0.00000036 Ry

     iteration #  6     ecut=    40.00 Ry     beta=0.70
     Davidson diagonalization with overlap
     ethr =  1.32E-09,  avg # of iterations =  1.0

     total cpu time spent up to now is     2770.2 secs

     total energy              =    -285.31949752 Ry
     Harris-Foulkes estimate   =    -285.31949760 Ry
     estimated scf accuracy    <       0.00000015 Ry

     iteration #  7     ecut=    40.00 Ry     beta=0.70
     Davidson diagonalization with overlap
     ethr =  5.55E-10,  avg # of iterations =  2.0

     total cpu time spent up to now is     2808.3 secs

     total energy              =    -285.31949753 Ry
     Harris-Foulkes estimate   =    -285.31949754 Ry
     estimated scf accuracy    <       0.00000001 Ry

     iteration #  8     ecut=    40.00 Ry     beta=0.70
     Davidson diagonalization with overlap
     ethr =  5.20E-11,  avg # of iterations =  2.0

     total cpu time spent up to now is     2850.3 secs

     total energy              =    -285.31949753 Ry
     Harris-Foulkes estimate   =    -285.31949753 Ry
     estimated scf accuracy    <          5.8E-11 Ry

     iteration #  9     ecut=    40.00 Ry     beta=0.70
     Davidson diagonalization with overlap
     ethr =  2.17E-13,  avg # of iterations =  3.0

     total cpu time spent up to now is     2895.1 secs

     total energy              =    -285.31949753 Ry
     Harris-Foulkes estimate   =    -285.31949753 Ry
     estimated scf accuracy    <          5.5E-10 Ry

     iteration # 10     ecut=    40.00 Ry     beta=0.70
     Davidson diagonalization with overlap
     ethr =  2.17E-13,  avg # of iterations =  2.0

     total cpu time spent up to now is     2935.1 secs

     total energy              =    -285.31949753 Ry
     Harris-Foulkes estimate   =    -285.31949753 Ry
     estimated scf accuracy    <          2.6E-10 Ry

     iteration # 11     ecut=    40.00 Ry     beta=0.70
     Davidson diagonalization with overlap
     ethr =  2.17E-13,  avg # of iterations =  3.0

     total cpu time spent up to now is     2979.8 secs

     End of self-consistent calculation

     Number of k-points >= 100: set verbosity='high' to print the bands.

     the Fermi energy is     1.7592 ev

!    total energy              =    -285.31949753 Ry
     Harris-Foulkes estimate   =    -285.31949753 Ry
     estimated scf accuracy    <          4.5E-13 Ry

     The total energy is the sum of the following terms:

     one-electron contribution =    -262.06093597 Ry
     hartree contribution      =     132.30297245 Ry
     xc contribution           =     -42.81972812 Ry
     ewald contribution        =    -112.74167510 Ry
     smearing contrib. (-TS)   =      -0.00013080 Ry

     convergence has been achieved in  11 iterations

     Forces acting on atoms (cartesian axes, Ry/au):

     atom    1 type  1   force =     0.00000104    0.00000104    0.00000104
     atom    2 type  1   force =    -0.00000104   -0.00000104   -0.00000104
     atom    3 type  1   force =    -0.00000000   -0.00000000    0.00000000

     Total force =     0.000003     Total SCF correction =     0.000000


     Computing stress (Cartesian axis) and pressure

          total   stress  (Ry/bohr**3)                   (kbar)     P=    0.11
   0.00000076   0.00000009   0.00000009          0.11      0.01      0.01
   0.00000009   0.00000076   0.00000009          0.01      0.11      0.01
   0.00000009   0.00000009   0.00000076          0.01      0.01      0.11


     number of scf cycles    =   7
     number of bfgs steps    =   6

     enthalpy old            =    -285.3194974037 Ry
     enthalpy new            =    -285.3194975314 Ry

     CASE: enthalpy_new < enthalpy_old

     new trust radius        =       0.0005640226 bohr
     new conv_thr            =            1.0E-12 Ry

     new unit-cell volume =    723.94633 a.u.^3 (   107.27778 Ang^3 )
     density =      1.06758 g/cm^3

CELL_PARAMETERS (alat= 17.00000000)
   0.387727532   0.678363854   0.678363854
   0.678363854   0.387727532   0.678363854
   0.678363854   0.678363854   0.387727532

ATOMIC_POSITIONS (crystal)
Na       0.722222249   0.722222249   0.722222249
Na       0.277777751   0.277777751   0.277777751
Na       0.500000000   0.500000000   0.500000000



     Writing output data file na.9r.save
     NEW-OLD atomic charge density approx. for the potential
     extrapolated charge   27.00840, renormalised to   27.00000

     total cpu time spent up to now is     2986.9 secs

     per-process dynamical memory:    38.4 Mb

     Self-consistent Calculation

     iteration #  1     ecut=    40.00 Ry     beta=0.70
     Davidson diagonalization with overlap
     ethr =  1.00E-06,  avg # of iterations =  2.0

     Threshold (ethr) on eigenvalues was too large:
     Diagonalizing with lowered threshold

     Davidson diagonalization with overlap
     ethr =  3.20E-08,  avg # of iterations =  1.0

     total cpu time spent up to now is     3058.9 secs

     total energy              =    -285.31948220 Ry
     Harris-Foulkes estimate   =    -285.25450312 Ry
     estimated scf accuracy    <       0.00000865 Ry

     iteration #  2     ecut=    40.00 Ry     beta=0.70
     Davidson diagonalization with overlap
     ethr =  3.21E-08,  avg # of iterations =  3.0

     total cpu time spent up to now is     3106.8 secs

     total energy              =    -285.31949797 Ry
     Harris-Foulkes estimate   =    -285.31950433 Ry
     estimated scf accuracy    <       0.00001449 Ry

     iteration #  3     ecut=    40.00 Ry     beta=0.70
     Davidson diagonalization with overlap
     ethr =  3.21E-08,  avg # of iterations =  2.0

     total cpu time spent up to now is     3144.2 secs

     total energy              =    -285.31949797 Ry
     Harris-Foulkes estimate   =    -285.31949894 Ry
     estimated scf accuracy    <       0.00000278 Ry

     iteration #  4     ecut=    40.00 Ry     beta=0.70
     Davidson diagonalization with overlap
     ethr =  1.03E-08,  avg # of iterations =  1.0

     total cpu time spent up to now is     3176.8 secs

     total energy              =    -285.31949803 Ry
     Harris-Foulkes estimate   =    -285.31949809 Ry
     estimated scf accuracy    <       0.00000093 Ry

     iteration #  5     ecut=    40.00 Ry     beta=0.70
     Davidson diagonalization with overlap
     ethr =  3.44E-09,  avg # of iterations =  1.0

     total cpu time spent up to now is     3208.8 secs

     total energy              =    -285.31949781 Ry
     Harris-Foulkes estimate   =    -285.31949804 Ry
     estimated scf accuracy    <       0.00000080 Ry

     iteration #  6     ecut=    40.00 Ry     beta=0.70
     Davidson diagonalization with overlap
     ethr =  2.97E-09,  avg # of iterations =  1.0

     total cpu time spent up to now is     3241.4 secs

     total energy              =    -285.31949766 Ry
     Harris-Foulkes estimate   =    -285.31949783 Ry
     estimated scf accuracy    <       0.00000034 Ry

     iteration #  7     ecut=    40.00 Ry     beta=0.70
     Davidson diagonalization with overlap
     ethr =  1.25E-09,  avg # of iterations =  2.0

     total cpu time spent up to now is     3279.2 secs

     total energy              =    -285.31949768 Ry
     Harris-Foulkes estimate   =    -285.31949770 Ry
     estimated scf accuracy    <       0.00000003 Ry

     iteration #  8     ecut=    40.00 Ry     beta=0.70
     Davidson diagonalization with overlap
     ethr =  1.17E-10,  avg # of iterations =  2.0

     total cpu time spent up to now is     3319.3 secs

     total energy              =    -285.31949768 Ry
     Harris-Foulkes estimate   =    -285.31949768 Ry
     estimated scf accuracy    <          1.4E-10 Ry

     iteration #  9     ecut=    40.00 Ry     beta=0.70
     Davidson diagonalization with overlap
     ethr =  5.12E-13,  avg # of iterations =  2.7

     total cpu time spent up to now is     3362.4 secs

     total energy              =    -285.31949768 Ry
     Harris-Foulkes estimate   =    -285.31949768 Ry
     estimated scf accuracy    <          1.1E-09 Ry

     iteration # 10     ecut=    40.00 Ry     beta=0.70
     Davidson diagonalization with overlap
     ethr =  5.12E-13,  avg # of iterations =  2.0

     total cpu time spent up to now is     3402.6 secs

     total energy              =    -285.31949768 Ry
     Harris-Foulkes estimate   =    -285.31949768 Ry
     estimated scf accuracy    <          5.2E-10 Ry

     iteration # 11     ecut=    40.00 Ry     beta=0.70
     Davidson diagonalization with overlap
     ethr =  5.12E-13,  avg # of iterations =  2.0

     total cpu time spent up to now is     3444.3 secs

     End of self-consistent calculation

     Number of k-points >= 100: set verbosity='high' to print the bands.

     the Fermi energy is     1.7578 ev

!    total energy              =    -285.31949768 Ry
     Harris-Foulkes estimate   =    -285.31949768 Ry
     estimated scf accuracy    <          9.7E-13 Ry

     The total energy is the sum of the following terms:

     one-electron contribution =    -262.08144726 Ry
     hartree contribution      =     132.31166416 Ry
     xc contribution           =     -42.81960381 Ry
     ewald contribution        =    -112.72998002 Ry
     smearing contrib. (-TS)   =      -0.00013076 Ry

     convergence has been achieved in  11 iterations

     Forces acting on atoms (cartesian axes, Ry/au):

     atom    1 type  1   force =     0.00000092    0.00000092    0.00000092
     atom    2 type  1   force =    -0.00000092   -0.00000092   -0.00000092
     atom    3 type  1   force =     0.00000000   -0.00000000    0.00000000

     Total force =     0.000002     Total SCF correction =     0.000000


     Computing stress (Cartesian axis) and pressure

          total   stress  (Ry/bohr**3)                   (kbar)     P=    0.08
   0.00000054   0.00000007   0.00000007          0.08      0.01      0.01
   0.00000007   0.00000054   0.00000007          0.01      0.08      0.01
   0.00000007   0.00000007   0.00000054          0.01      0.01      0.08


     number of scf cycles    =   8
     number of bfgs steps    =   7

     enthalpy old            =    -285.3194975314 Ry
     enthalpy new            =    -285.3194976819 Ry

     CASE: enthalpy_new < enthalpy_old

     new trust radius        =       0.0008460740 bohr
     new conv_thr            =            1.0E-12 Ry

     new unit-cell volume =    724.28403 a.u.^3 (   107.32782 Ang^3 )
     density =      1.06708 g/cm^3

CELL_PARAMETERS (alat= 17.00000000)
   0.387810316   0.678487001   0.678487001
   0.678487001   0.387810316   0.678487001
   0.678487001   0.678487001   0.387810316

ATOMIC_POSITIONS (crystal)
Na       0.722222522   0.722222522   0.722222522
Na       0.277777478   0.277777478   0.277777478
Na       0.500000000   0.500000000   0.500000000



     Writing output data file na.9r.save
     NEW-OLD atomic charge density approx. for the potential
     extrapolated charge   27.01258, renormalised to   27.00000

     total cpu time spent up to now is     3451.1 secs

     per-process dynamical memory:    38.4 Mb

     Self-consistent Calculation

     iteration #  1     ecut=    40.00 Ry     beta=0.70
     Davidson diagonalization with overlap
     ethr =  1.00E-06,  avg # of iterations =  2.0

     Threshold (ethr) on eigenvalues was too large:
     Diagonalizing with lowered threshold

     Davidson diagonalization with overlap
     ethr =  7.19E-08,  avg # of iterations =  1.0

     total cpu time spent up to now is     3523.4 secs

     total energy              =    -285.31946303 Ry
     Harris-Foulkes estimate   =    -285.22210188 Ry
     estimated scf accuracy    <       0.00001945 Ry

     iteration #  2     ecut=    40.00 Ry     beta=0.70
     Davidson diagonalization with overlap
     ethr =  7.20E-08,  avg # of iterations =  3.0

     total cpu time spent up to now is     3570.8 secs

     total energy              =    -285.31949847 Ry
     Harris-Foulkes estimate   =    -285.31951276 Ry
     estimated scf accuracy    <       0.00003257 Ry

     iteration #  3     ecut=    40.00 Ry     beta=0.70
     Davidson diagonalization with overlap
     ethr =  7.20E-08,  avg # of iterations =  2.0

     total cpu time spent up to now is     3607.9 secs

     total energy              =    -285.31949847 Ry
     Harris-Foulkes estimate   =    -285.31950064 Ry
     estimated scf accuracy    <       0.00000624 Ry

     iteration #  4     ecut=    40.00 Ry     beta=0.70
     Davidson diagonalization with overlap
     ethr =  2.31E-08,  avg # of iterations =  1.0

     total cpu time spent up to now is     3639.7 secs

     total energy              =    -285.31949860 Ry
     Harris-Foulkes estimate   =    -285.31949873 Ry
     estimated scf accuracy    <       0.00000208 Ry

     iteration #  5     ecut=    40.00 Ry     beta=0.70
     Davidson diagonalization with overlap
     ethr =  7.71E-09,  avg # of iterations =  1.0

     total cpu time spent up to now is     3671.5 secs

     total energy              =    -285.31949810 Ry
     Harris-Foulkes estimate   =    -285.31949862 Ry
     estimated scf accuracy    <       0.00000179 Ry

     iteration #  6     ecut=    40.00 Ry     beta=0.70
     Davidson diagonalization with overlap
     ethr =  6.62E-09,  avg # of iterations =  1.0

     total cpu time spent up to now is     3703.7 secs

     total energy              =    -285.31949776 Ry
     Harris-Foulkes estimate   =    -285.31949815 Ry
     estimated scf accuracy    <       0.00000076 Ry

     iteration #  7     ecut=    40.00 Ry     beta=0.70
     Davidson diagonalization with overlap
     ethr =  2.82E-09,  avg # of iterations =  2.0

     total cpu time spent up to now is     3741.3 secs

     total energy              =    -285.31949780 Ry
     Harris-Foulkes estimate   =    -285.31949785 Ry
     estimated scf accuracy    <       0.00000007 Ry

     iteration #  8     ecut=    40.00 Ry     beta=0.70
     Davidson diagonalization with overlap
     ethr =  2.53E-10,  avg # of iterations =  2.0

     total cpu time spent up to now is     3781.7 secs

     total energy              =    -285.31949782 Ry
     Harris-Foulkes estimate   =    -285.31949782 Ry
     estimated scf accuracy    <          5.6E-10 Ry

     iteration #  9     ecut=    40.00 Ry     beta=0.70
     Davidson diagonalization with overlap
     ethr =  2.06E-12,  avg # of iterations =  2.6

     total cpu time spent up to now is     3822.4 secs

     total energy              =    -285.31949782 Ry
     Harris-Foulkes estimate   =    -285.31949782 Ry
     estimated scf accuracy    <          1.8E-09 Ry

     iteration # 10     ecut=    40.00 Ry     beta=0.70
     Davidson diagonalization with overlap
     ethr =  2.06E-12,  avg # of iterations =  2.0

     total cpu time spent up to now is     3857.1 secs

     total energy              =    -285.31949782 Ry
     Harris-Foulkes estimate   =    -285.31949782 Ry
     estimated scf accuracy    <          7.6E-10 Ry

     iteration # 11     ecut=    40.00 Ry     beta=0.70
     Davidson diagonalization with overlap
     ethr =  2.06E-12,  avg # of iterations =  2.0

     total cpu time spent up to now is     3897.5 secs

     total energy              =    -285.31949782 Ry
     Harris-Foulkes estimate   =    -285.31949782 Ry
     estimated scf accuracy    <          2.8E-12 Ry

     iteration # 12     ecut=    40.00 Ry     beta=0.70
     Davidson diagonalization with overlap
     ethr =  1.00E-13,  avg # of iterations =  1.0

     total cpu time spent up to now is     3928.8 secs

     total energy              =    -285.31949782 Ry
     Harris-Foulkes estimate   =    -285.31949782 Ry
     estimated scf accuracy    <          2.0E-12 Ry

     iteration # 13     ecut=    40.00 Ry     beta=0.70
     Davidson diagonalization with overlap
     ethr =  1.00E-13,  avg # of iterations =  1.0

     total cpu time spent up to now is     3960.5 secs

     End of self-consistent calculation

     Number of k-points >= 100: set verbosity='high' to print the bands.

     the Fermi energy is     1.7558 ev

!    total energy              =    -285.31949782 Ry
     Harris-Foulkes estimate   =    -285.31949782 Ry
     estimated scf accuracy    <          3.0E-13 Ry

     The total energy is the sum of the following terms:

     one-electron contribution =    -262.11217652 Ry
     hartree contribution      =     132.32468478 Ry
     xc contribution           =     -42.81941719 Ry
     ewald contribution        =    -112.71245819 Ry
     smearing contrib. (-TS)   =      -0.00013069 Ry

     convergence has been achieved in  13 iterations

     Forces acting on atoms (cartesian axes, Ry/au):

     atom    1 type  1   force =     0.00000069    0.00000069    0.00000069
     atom    2 type  1   force =    -0.00000069   -0.00000069   -0.00000069
     atom    3 type  1   force =     0.00000000    0.00000000    0.00000000

     Total force =     0.000002     Total SCF correction =     0.000000


     Computing stress (Cartesian axis) and pressure

          total   stress  (Ry/bohr**3)                   (kbar)     P=    0.03
   0.00000021   0.00000006   0.00000006          0.03      0.01      0.01
   0.00000006   0.00000021   0.00000006          0.01      0.03      0.01
   0.00000006   0.00000006   0.00000021          0.01      0.01      0.03


     bfgs converged in   9 scf cycles and   8 bfgs steps
     (criteria: energy <  1.0E-04 Ry, force <  1.0E-03Ry/Bohr, cell <  5.0E-02kbar)

     End of BFGS Geometry Optimization

     Final enthalpy =    -285.3194978152 Ry
Begin final coordinates
     new unit-cell volume =    724.28403 a.u.^3 (   107.32782 Ang^3 )
     density =      1.06708 g/cm^3

CELL_PARAMETERS (alat= 17.00000000)
   0.387810316   0.678487001   0.678487001
   0.678487001   0.387810316   0.678487001
   0.678487001   0.678487001   0.387810316

ATOMIC_POSITIONS (crystal)
Na       0.722222522   0.722222522   0.722222522
Na       0.277777478   0.277777478   0.277777478
Na       0.500000000   0.500000000   0.500000000
End final coordinates



     A final scf calculation at the relaxed structure.
     The G-vectors are recalculated for the final unit cell
     Results may differ from those at the preceding step.

     Parallelization info
     --------------------
     sticks:   dense  smooth     PW     G-vecs:    dense   smooth      PW
     Min         191      96     32                 4363     1546     298
     Max         192      97     33                 4364     1547     299
     Sum        3057    1539    517                69817    24741    4773



     bravais-lattice index     =            0
     lattice parameter (alat)  =      17.0000  a.u.
     unit-cell volume          =     724.2840 (a.u.)^3
     number of atoms/cell      =            3
     number of atomic types    =            1
     number of electrons       =        27.00
     number of Kohn-Sham states=           18
     kinetic-energy cutoff     =      40.0000  Ry
     charge density cutoff     =     320.0000  Ry
     convergence threshold     =      1.0E-12
     mixing beta               =       0.7000
     number of iterations used =            8  plain     mixing
     Exchange-correlation      = SLA  PW   PBE  PBE ( 1  4  3  4 0 0)

     celldm(1)=  17.000000  celldm(2)=   0.000000  celldm(3)=   0.000000
     celldm(4)=   0.000000  celldm(5)=   0.000000  celldm(6)=   0.000000

     crystal axes: (cart. coord. in units of alat)
               a(1) = (   0.387810   0.678487   0.678487 )  
               a(2) = (   0.678487   0.387810   0.678487 )  
               a(3) = (   0.678487   0.678487   0.387810 )  

     reciprocal axes: (cart. coord. in units 2 pi/alat)
               b(1) = ( -2.102453  1.337795  1.337795 )  
               b(2) = (  1.337795 -2.102453  1.337795 )  
               b(3) = (  1.337795  1.337795 -2.102453 )  


     PseudoPot. # 1 for Na read from file:
     /home/s1333534/quantum_espresso/qe-6.1/pseudo/Na_pbe_v1.uspp.F.UPF
     MD5 check sum: 76a99c7e9422403d3e93cbc85ab7bccb
     Pseudo is Ultrasoft, Zval =  9.0
     Generated by new atomic code, or converted to UPF format
     Using radial grid of  819 points,  5 beta functions with: 
                l(1) =   0
                l(2) =   0
                l(3) =   1
                l(4) =   1
                l(5) =   2
     Q(r) pseudized with  8 coefficients,  rinner =    1.250   1.250   1.250
                                                       1.250   1.250

     atomic species   valence    mass     pseudopotential
        Na             9.00    22.99000     Na( 1.00)

     12 Sym. Ops., with inversion, found



   Cartesian axes

     site n.     atom                  positions (alat units)
         1           Na  tau(   1) = (   1.2601225   1.2601225   1.2601225  )
         2           Na  tau(   2) = (   0.4846618   0.4846618   0.4846618  )
         3           Na  tau(   3) = (   0.8723922   0.8723922   0.8723922  )

     number of k points=   770  Marzari-Vanderbilt smearing, width (Ry)=  0.0200

     Number of k-points >= 100: set verbosity='high' to print them.

     Dense  grid:    69817 G-vectors     FFT dimensions: ( 108, 108, 108)

     Smooth grid:    24741 G-vectors     FFT dimensions: (  72,  72,  72)

     Estimated max dynamical RAM per process >      18.32MB

     Estimated total allocated dynamical RAM >    1172.76MB

     Initial potential from superposition of free atoms

     starting charge   26.98113, renormalised to   27.00000
     Starting wfc are   15 randomized atomic wfcs +    3 random wfc

     Writing output data file na.9r.save

     total cpu time spent up to now is     3979.5 secs

     per-process dynamical memory:    36.0 Mb

     Self-consistent Calculation

     iteration #  1     ecut=    40.00 Ry     beta=0.70
     Davidson diagonalization with overlap
     c_bands:  1 eigenvalues not converged
     c_bands:  1 eigenvalues not converged
     c_bands:  1 eigenvalues not converged
     c_bands:  1 eigenvalues not converged
     c_bands:  1 eigenvalues not converged
     c_bands:  1 eigenvalues not converged
     ethr =  1.00E-06,  avg # of iterations = 13.9

     total cpu time spent up to now is     4065.7 secs

     total energy              =    -285.31917038 Ry
     Harris-Foulkes estimate   =    -285.31986429 Ry
     estimated scf accuracy    <       0.00267367 Ry

     iteration #  2     ecut=    40.00 Ry     beta=0.70
     Davidson diagonalization with overlap
     ethr =  9.90E-06,  avg # of iterations =  2.0

     total cpu time spent up to now is     4103.7 secs

     total energy              =    -285.31948581 Ry
     Harris-Foulkes estimate   =    -285.31955623 Ry
     estimated scf accuracy    <       0.00030071 Ry

     iteration #  3     ecut=    40.00 Ry     beta=0.70
     Davidson diagonalization with overlap
     ethr =  1.11E-06,  avg # of iterations =  2.0

     total cpu time spent up to now is     4144.2 secs

     total energy              =    -285.31951684 Ry
     Harris-Foulkes estimate   =    -285.31952112 Ry
     estimated scf accuracy    <       0.00001933 Ry

     iteration #  4     ecut=    40.00 Ry     beta=0.70
     Davidson diagonalization with overlap
     ethr =  7.16E-08,  avg # of iterations =  1.8

     total cpu time spent up to now is     4177.4 secs

     total energy              =    -285.31951849 Ry
     Harris-Foulkes estimate   =    -285.31951879 Ry
     estimated scf accuracy    <       0.00000110 Ry

     iteration #  5     ecut=    40.00 Ry     beta=0.70
     Davidson diagonalization with overlap
     ethr =  4.08E-09,  avg # of iterations =  2.0

     total cpu time spent up to now is     4216.1 secs

     total energy              =    -285.31951887 Ry
     Harris-Foulkes estimate   =    -285.31951890 Ry
     estimated scf accuracy    <       0.00000018 Ry

     iteration #  6     ecut=    40.00 Ry     beta=0.70
     Davidson diagonalization with overlap
     ethr =  6.76E-10,  avg # of iterations =  1.4

     total cpu time spent up to now is     4249.2 secs

     total energy              =    -285.31951889 Ry
     Harris-Foulkes estimate   =    -285.31951889 Ry
     estimated scf accuracy    <          6.4E-10 Ry

     iteration #  7     ecut=    40.00 Ry     beta=0.70
     Davidson diagonalization with overlap
     ethr =  2.36E-12,  avg # of iterations =  3.1

     total cpu time spent up to now is     4291.2 secs

     total energy              =    -285.31951889 Ry
     Harris-Foulkes estimate   =    -285.31951889 Ry
     estimated scf accuracy    <          1.7E-11 Ry

     iteration #  8     ecut=    40.00 Ry     beta=0.70
     Davidson diagonalization with overlap
     ethr =  1.00E-13,  avg # of iterations =  1.9

     total cpu time spent up to now is     4325.0 secs

     total energy              =    -285.31951889 Ry
     Harris-Foulkes estimate   =    -285.31951889 Ry
     estimated scf accuracy    <          2.4E-12 Ry

     iteration #  9     ecut=    40.00 Ry     beta=0.70
     Davidson diagonalization with overlap
     ethr =  1.00E-13,  avg # of iterations =  1.0

     total cpu time spent up to now is     4356.8 secs

     End of self-consistent calculation

     Number of k-points >= 100: set verbosity='high' to print the bands.

     the Fermi energy is     1.7558 ev

!    total energy              =    -285.31951889 Ry
     Harris-Foulkes estimate   =    -285.31951889 Ry
     estimated scf accuracy    <          1.2E-13 Ry

     The total energy is the sum of the following terms:

     one-electron contribution =    -262.11220998 Ry
     hartree contribution      =     132.32470557 Ry
     xc contribution           =     -42.81942560 Ry
     ewald contribution        =    -112.71245819 Ry
     smearing contrib. (-TS)   =      -0.00013069 Ry

     convergence has been achieved in   9 iterations

     Forces acting on atoms (cartesian axes, Ry/au):

     atom    1 type  1   force =     0.00000160    0.00000160    0.00000160
     atom    2 type  1   force =    -0.00000160   -0.00000160   -0.00000160
     atom    3 type  1   force =    -0.00000000    0.00000000   -0.00000000

     Total force =     0.000004     Total SCF correction =     0.000002
     SCF correction compared to forces is large: reduce conv_thr to get better values


     Computing stress (Cartesian axis) and pressure

          total   stress  (Ry/bohr**3)                   (kbar)     P=    0.06
   0.00000039   0.00000007   0.00000007          0.06      0.01      0.01
   0.00000007   0.00000039   0.00000007          0.01      0.06      0.01
   0.00000007   0.00000007   0.00000039          0.01      0.01      0.06


     Writing output data file na.9r.save

     init_run     :     24.17s CPU     24.72s WALL (       2 calls)
     electrons    :   4229.53s CPU   4271.60s WALL (      10 calls)
     update_pot   :      5.86s CPU      6.22s WALL (       8 calls)
     forces       :      7.07s CPU      7.27s WALL (      10 calls)
     stress       :     20.89s CPU     21.01s WALL (      10 calls)

     Called by init_run:
     wfcinit      :     22.18s CPU     22.62s WALL (       2 calls)
     potinit      :      0.66s CPU      0.69s WALL (       2 calls)

     Called by electrons:
     c_bands      :   3496.93s CPU   3531.20s WALL (     112 calls)
     sum_band     :    706.43s CPU    713.17s WALL (     112 calls)
     v_of_rho     :     18.22s CPU     18.66s WALL (     113 calls)
     newd         :      4.96s CPU      5.03s WALL (     113 calls)
     mix_rho      :      1.44s CPU      1.54s WALL (     112 calls)

     Called by c_bands:
     init_us_2    :     14.82s CPU     15.05s WALL (   47478 calls)
     cegterg      :   3294.04s CPU   3326.87s WALL (   21616 calls)

     Called by sum_band:
     sum_band:bec :      0.99s CPU      1.03s WALL (   21616 calls)
     addusdens    :      5.20s CPU      5.28s WALL (     112 calls)

     Called by *egterg:
     h_psi        :   3109.57s CPU   3139.16s WALL (   65673 calls)
     s_psi        :     12.74s CPU     13.22s WALL (   65673 calls)
     g_psi        :      1.97s CPU      2.01s WALL (   43671 calls)
     cdiaghg      :    107.40s CPU    108.69s WALL (   62006 calls)

     Called by h_psi:
     h_psi:pot    :   3107.04s CPU   3136.53s WALL (   65673 calls)
     h_psi:calbec :     28.74s CPU     29.70s WALL (   65673 calls)
     vloc_psi     :   3063.85s CPU   3091.95s WALL (   65673 calls)
     add_vuspsi   :     13.71s CPU     14.17s WALL (   65673 calls)

     General routines
     calbec       :     43.79s CPU     45.06s WALL (   96939 calls)
     fft          :     11.56s CPU     12.40s WALL (    1892 calls)
     ffts         :      0.39s CPU      0.44s WALL (     225 calls)
     fftw         :   3131.68s CPU   3160.57s WALL ( 2317798 calls)
     interpolate  :      1.74s CPU      1.88s WALL (     225 calls)
     davcio       :      0.02s CPU      0.30s WALL (     386 calls)

     Parallel routines
     fft_scatter  :    744.66s CPU    757.05s WALL ( 2319915 calls)

     PWSCF        :     1h11m CPU        1h12m WALL


   This run was terminated on:  10:53:28  14Feb2018            

=------------------------------------------------------------------------------=
   JOB DONE.
=------------------------------------------------------------------------------=
