
     Program PWSCF v.6.1 (svn rev. 13369) starts on 14Feb2018 at  8: 2:45 

     This program is part of the open-source Quantum ESPRESSO suite
     for quantum simulation of materials; please cite
         "P. Giannozzi et al., J. Phys.:Condens. Matter 21 395502 (2009);
          URL http://www.quantum-espresso.org", 
     in publications or presentations arising from this work. More details at
     http://www.quantum-espresso.org/quote

     Parallel version (MPI), running on    64 processors
     K-points division:     npool     =       4
     R & G space division:  proc/nbgrp/npool/nimage =      16
     Waiting for input...
     Reading input from standard input

     Current dimensions of program PWSCF are:
     Max number of different atomic species (ntypx) = 10
     Max number of k-points (npk) =  80000
     Max angular momentum in pseudopotentials (lmaxx) =  3

     Subspace diagonalization in iterative solution of the eigenvalue problem:
     a serial algorithm will be used


     Parallelization info
     --------------------
     sticks:   dense  smooth     PW     G-vecs:    dense   smooth      PW
     Min         189      94     32                 4328     1524     295
     Max         190      95     33                 4330     1525     296
     Sum        3035    1515    515                69265    24393    4731



     bravais-lattice index     =            0
     lattice parameter (alat)  =      17.0000  a.u.
     unit-cell volume          =     715.4227 (a.u.)^3
     number of atoms/cell      =            3
     number of atomic types    =            1
     number of electrons       =        27.00
     number of Kohn-Sham states=           18
     kinetic-energy cutoff     =      40.0000  Ry
     charge density cutoff     =     320.0000  Ry
     convergence threshold     =      1.0E-10
     mixing beta               =       0.7000
     number of iterations used =            8  plain     mixing
     Exchange-correlation      = SLA  PW   PBE  PBE ( 1  4  3  4 0 0)
     nstep                     =           50


     celldm(1)=  17.000000  celldm(2)=   0.000000  celldm(3)=   0.000000
     celldm(4)=   0.000000  celldm(5)=   0.000000  celldm(6)=   0.000000

     crystal axes: (cart. coord. in units of alat)
               a(1) = (   0.385981   0.675519   0.675519 )  
               a(2) = (   0.675519   0.385981   0.675519 )  
               a(3) = (   0.675519   0.675519   0.385981 )  

     reciprocal axes: (cart. coord. in units 2 pi/alat)
               b(1) = ( -2.110619  1.343159  1.343159 )  
               b(2) = (  1.343159 -2.110619  1.343159 )  
               b(3) = (  1.343159  1.343159 -2.110619 )  


     PseudoPot. # 1 for Na read from file:
     /home/s1333534/quantum_espresso/qe-6.1/pseudo/Na_pbe_v1.uspp.F.UPF
     MD5 check sum: 76a99c7e9422403d3e93cbc85ab7bccb
     Pseudo is Ultrasoft, Zval =  9.0
     Generated by new atomic code, or converted to UPF format
     Using radial grid of  819 points,  5 beta functions with: 
                l(1) =   0
                l(2) =   0
                l(3) =   1
                l(4) =   1
                l(5) =   2
     Q(r) pseudized with  8 coefficients,  rinner =    1.250   1.250   1.250
                                                       1.250   1.250

     atomic species   valence    mass     pseudopotential
        Na             9.00    22.99000     Na( 1.00)

     12 Sym. Ops., with inversion, found



   Cartesian axes

     site n.     atom                  positions (alat units)
         1           Na  tau(   1) = (   1.2545164   1.2545164   1.2545164  )
         2           Na  tau(   2) = (   0.4825035   0.4825035   0.4825035  )
         3           Na  tau(   3) = (   0.8685100   0.8685100   0.8685100  )

     number of k points=   770  Marzari-Vanderbilt smearing, width (Ry)=  0.0200

     Number of k-points >= 100: set verbosity='high' to print them.

     Dense  grid:    69265 G-vectors     FFT dimensions: ( 100, 100, 100)

     Smooth grid:    24393 G-vectors     FFT dimensions: (  72,  72,  72)

     Estimated max dynamical RAM per process >      17.40MB

     Estimated total allocated dynamical RAM >    1113.51MB

     Initial potential from superposition of free atoms

     starting charge   26.98113, renormalised to   27.00000
     Starting wfc are   15 randomized atomic wfcs +    3 random wfc

     total cpu time spent up to now is       12.4 secs

     per-process dynamical memory:    28.0 Mb

     Self-consistent Calculation

     iteration #  1     ecut=    40.00 Ry     beta=0.70
     Davidson diagonalization with overlap
     ethr =  1.00E-02,  avg # of iterations =  5.6

     Threshold (ethr) on eigenvalues was too large:
     Diagonalizing with lowered threshold

     Davidson diagonalization with overlap
     ethr =  9.34E-06,  avg # of iterations =  7.6

     total cpu time spent up to now is      105.9 secs

     total energy              =    -285.31899786 Ry
     Harris-Foulkes estimate   =    -285.31964698 Ry
     estimated scf accuracy    <       0.00264159 Ry

     iteration #  2     ecut=    40.00 Ry     beta=0.70
     Davidson diagonalization with overlap
     ethr =  9.78E-06,  avg # of iterations =  2.0

     total cpu time spent up to now is      142.5 secs

     total energy              =    -285.31927925 Ry
     Harris-Foulkes estimate   =    -285.31933575 Ry
     estimated scf accuracy    <       0.00027745 Ry

     iteration #  3     ecut=    40.00 Ry     beta=0.70
     Davidson diagonalization with overlap
     ethr =  1.03E-06,  avg # of iterations =  2.1

     total cpu time spent up to now is      181.9 secs

     total energy              =    -285.31930627 Ry
     Harris-Foulkes estimate   =    -285.31931012 Ry
     estimated scf accuracy    <       0.00001734 Ry

     iteration #  4     ecut=    40.00 Ry     beta=0.70
     Davidson diagonalization with overlap
     ethr =  6.42E-08,  avg # of iterations =  2.0

     total cpu time spent up to now is      217.0 secs

     total energy              =    -285.31930793 Ry
     Harris-Foulkes estimate   =    -285.31930837 Ry
     estimated scf accuracy    <       0.00000152 Ry

     iteration #  5     ecut=    40.00 Ry     beta=0.70
     Davidson diagonalization with overlap
     ethr =  5.62E-09,  avg # of iterations =  2.0

     total cpu time spent up to now is      251.0 secs

     total energy              =    -285.31930832 Ry
     Harris-Foulkes estimate   =    -285.31930834 Ry
     estimated scf accuracy    <       0.00000015 Ry

     iteration #  6     ecut=    40.00 Ry     beta=0.70
     Davidson diagonalization with overlap
     ethr =  5.68E-10,  avg # of iterations =  1.9

     total cpu time spent up to now is      284.1 secs

     total energy              =    -285.31930834 Ry
     Harris-Foulkes estimate   =    -285.31930834 Ry
     estimated scf accuracy    <          5.0E-10 Ry

     iteration #  7     ecut=    40.00 Ry     beta=0.70
     Davidson diagonalization with overlap
     ethr =  1.84E-12,  avg # of iterations =  3.3

     total cpu time spent up to now is      327.6 secs

     End of self-consistent calculation

     Number of k-points >= 100: set verbosity='high' to print the bands.

     the Fermi energy is     1.8094 ev

!    total energy              =    -285.31930834 Ry
     Harris-Foulkes estimate   =    -285.31930834 Ry
     estimated scf accuracy    <          3.5E-11 Ry

     The total energy is the sum of the following terms:

     one-electron contribution =    -261.29927565 Ry
     hartree contribution      =     131.98027571 Ry
     xc contribution           =     -42.82428784 Ry
     ewald contribution        =    -113.17588939 Ry
     smearing contrib. (-TS)   =      -0.00013117 Ry

     convergence has been achieved in   7 iterations

     Forces acting on atoms (cartesian axes, Ry/au):

     atom    1 type  1   force =    -0.00000453   -0.00000453   -0.00000453
     atom    2 type  1   force =     0.00000453    0.00000453    0.00000453
     atom    3 type  1   force =     0.00000000    0.00000000    0.00000000

     Total force =     0.000011     Total SCF correction =     0.000016
     SCF correction compared to forces is large: reduce conv_thr to get better values


     Computing stress (Cartesian axis) and pressure

          total   stress  (Ry/bohr**3)                   (kbar)     P=    1.12
   0.00000761   0.00000024   0.00000024          1.12      0.04      0.04
   0.00000024   0.00000761   0.00000024          0.04      1.12      0.04
   0.00000024   0.00000024   0.00000761          0.04      0.04      1.12


     BFGS Geometry Optimization

     number of scf cycles    =   1
     number of bfgs steps    =   0

     enthalpy new            =    -285.3193083418 Ry

     new trust radius        =       0.0010188006 bohr
     new conv_thr            =            1.0E-10 Ry

     new unit-cell volume =    715.83116 a.u.^3 (   106.07523 Ang^3 )
     density =      1.07968 g/cm^3

CELL_PARAMETERS (alat= 17.00000000)
   0.386062953   0.675654291   0.675654291
   0.675654291   0.386062953   0.675654291
   0.675654291   0.675654291   0.386062953

ATOMIC_POSITIONS (crystal)
Na       0.722223249   0.722223249   0.722223249
Na       0.277776751   0.277776751   0.277776751
Na       0.500000000   0.500000000   0.500000000



     Writing output data file na.9r.save
     NEW-OLD atomic charge density approx. for the potential
     extrapolated charge   27.01539, renormalised to   27.00000

     total cpu time spent up to now is      334.2 secs

     per-process dynamical memory:    36.6 Mb

     Self-consistent Calculation

     iteration #  1     ecut=    40.00 Ry     beta=0.70
     Davidson diagonalization with overlap
     ethr =  1.00E-06,  avg # of iterations =  2.0

     total cpu time spent up to now is      374.1 secs

     total energy              =    -285.31925938 Ry
     Harris-Foulkes estimate   =    -285.20050568 Ry
     estimated scf accuracy    <       0.00002905 Ry

     iteration #  2     ecut=    40.00 Ry     beta=0.70
     Davidson diagonalization with overlap
     ethr =  1.08E-07,  avg # of iterations =  3.0

     total cpu time spent up to now is      420.2 secs

     total energy              =    -285.31931238 Ry
     Harris-Foulkes estimate   =    -285.31933375 Ry
     estimated scf accuracy    <       0.00004869 Ry

     iteration #  3     ecut=    40.00 Ry     beta=0.70
     Davidson diagonalization with overlap
     ethr =  1.08E-07,  avg # of iterations =  2.0

     total cpu time spent up to now is      456.5 secs

     total energy              =    -285.31931238 Ry
     Harris-Foulkes estimate   =    -285.31931562 Ry
     estimated scf accuracy    <       0.00000935 Ry

     iteration #  4     ecut=    40.00 Ry     beta=0.70
     Davidson diagonalization with overlap
     ethr =  3.46E-08,  avg # of iterations =  1.0

     total cpu time spent up to now is      487.2 secs

     total energy              =    -285.31931267 Ry
     Harris-Foulkes estimate   =    -285.31931277 Ry
     estimated scf accuracy    <       0.00000311 Ry

     iteration #  5     ecut=    40.00 Ry     beta=0.70
     Davidson diagonalization with overlap
     ethr =  1.15E-08,  avg # of iterations =  1.0

     total cpu time spent up to now is      518.0 secs

     total energy              =    -285.31931185 Ry
     Harris-Foulkes estimate   =    -285.31931270 Ry
     estimated scf accuracy    <       0.00000293 Ry

     iteration #  6     ecut=    40.00 Ry     beta=0.70
     Davidson diagonalization with overlap
     ethr =  1.08E-08,  avg # of iterations =  1.0

     total cpu time spent up to now is      548.5 secs

     total energy              =    -285.31931153 Ry
     Harris-Foulkes estimate   =    -285.31931194 Ry
     estimated scf accuracy    <       0.00000122 Ry

     iteration #  7     ecut=    40.00 Ry     beta=0.70
     Davidson diagonalization with overlap
     ethr =  4.52E-09,  avg # of iterations =  1.0

     total cpu time spent up to now is      579.4 secs

     total energy              =    -285.31931136 Ry
     Harris-Foulkes estimate   =    -285.31931158 Ry
     estimated scf accuracy    <       0.00000040 Ry

     iteration #  8     ecut=    40.00 Ry     beta=0.70
     Davidson diagonalization with overlap
     ethr =  1.46E-09,  avg # of iterations =  2.0

     total cpu time spent up to now is      616.8 secs

     total energy              =    -285.31931141 Ry
     Harris-Foulkes estimate   =    -285.31931141 Ry
     estimated scf accuracy    <       0.00000002 Ry

     iteration #  9     ecut=    40.00 Ry     beta=0.70
     Davidson diagonalization with overlap
     ethr =  8.06E-11,  avg # of iterations =  1.0

     total cpu time spent up to now is      647.7 secs

     total energy              =    -285.31931140 Ry
     Harris-Foulkes estimate   =    -285.31931141 Ry
     estimated scf accuracy    <       0.00000002 Ry

     iteration # 10     ecut=    40.00 Ry     beta=0.70
     Davidson diagonalization with overlap
     ethr =  6.79E-11,  avg # of iterations =  1.0

     total cpu time spent up to now is      678.5 secs

     total energy              =    -285.31931140 Ry
     Harris-Foulkes estimate   =    -285.31931141 Ry
     estimated scf accuracy    <          7.1E-09 Ry

     iteration # 11     ecut=    40.00 Ry     beta=0.70
     Davidson diagonalization with overlap
     ethr =  2.63E-11,  avg # of iterations =  2.0

     total cpu time spent up to now is      718.0 secs

     End of self-consistent calculation

     Number of k-points >= 100: set verbosity='high' to print the bands.

     the Fermi energy is     1.8069 ev

!    total energy              =    -285.31931140 Ry
     Harris-Foulkes estimate   =    -285.31931140 Ry
     estimated scf accuracy    <          1.1E-11 Ry

     The total energy is the sum of the following terms:

     one-electron contribution =    -261.33703476 Ry
     hartree contribution      =     131.99627814 Ry
     xc contribution           =     -42.82406168 Ry
     ewald contribution        =    -113.15436195 Ry
     smearing contrib. (-TS)   =      -0.00013116 Ry

     convergence has been achieved in  11 iterations

     Forces acting on atoms (cartesian axes, Ry/au):

     atom    1 type  1   force =    -0.00000060   -0.00000060   -0.00000060
     atom    2 type  1   force =     0.00000060    0.00000060    0.00000060
     atom    3 type  1   force =     0.00000000    0.00000000   -0.00000000

     Total force =     0.000001     Total SCF correction =     0.000000


     Computing stress (Cartesian axis) and pressure

          total   stress  (Ry/bohr**3)                   (kbar)     P=    1.07
   0.00000724   0.00000024   0.00000024          1.07      0.03      0.03
   0.00000024   0.00000724   0.00000024          0.03      1.07      0.03
   0.00000024   0.00000024   0.00000724          0.03      0.03      1.07


     number of scf cycles    =   2
     number of bfgs steps    =   1

     enthalpy old            =    -285.3193083418 Ry
     enthalpy new            =    -285.3193114023 Ry

     CASE: enthalpy_new < enthalpy_old


     WARNING: bfgs curvature condition failed, Theta= 0.840
     new trust radius        =       0.0011207864 bohr
     new conv_thr            =            1.0E-12 Ry

     new unit-cell volume =    716.28059 a.u.^3 (   106.14183 Ang^3 )
     density =      1.07900 g/cm^3

CELL_PARAMETERS (alat= 17.00000000)
   0.386152851   0.675802828   0.675802828
   0.675802828   0.386152851   0.675802828
   0.675802828   0.675802828   0.386152851

ATOMIC_POSITIONS (crystal)
Na       0.722223163   0.722223163   0.722223163
Na       0.277776837   0.277776837   0.277776837
Na       0.500000000   0.500000000   0.500000000



     Writing output data file na.9r.save
     NEW-OLD atomic charge density approx. for the potential
     extrapolated charge   27.01693, renormalised to   27.00000

     total cpu time spent up to now is      724.5 secs

     per-process dynamical memory:    36.6 Mb

     Self-consistent Calculation

     iteration #  1     ecut=    40.00 Ry     beta=0.70
     Davidson diagonalization with overlap
     ethr =  1.00E-06,  avg # of iterations =  2.0

     total cpu time spent up to now is      764.1 secs

     total energy              =    -285.31925161 Ry
     Harris-Foulkes estimate   =    -285.18863724 Ry
     estimated scf accuracy    <       0.00003517 Ry

     iteration #  2     ecut=    40.00 Ry     beta=0.70
     Davidson diagonalization with overlap
     ethr =  1.30E-07,  avg # of iterations =  3.0

     total cpu time spent up to now is      810.2 secs

     total energy              =    -285.31931576 Ry
     Harris-Foulkes estimate   =    -285.31934163 Ry
     estimated scf accuracy    <       0.00005892 Ry

     iteration #  3     ecut=    40.00 Ry     beta=0.70
     Davidson diagonalization with overlap
     ethr =  1.30E-07,  avg # of iterations =  2.0

     total cpu time spent up to now is      846.8 secs

     total energy              =    -285.31931575 Ry
     Harris-Foulkes estimate   =    -285.31931968 Ry
     estimated scf accuracy    <       0.00001130 Ry

     iteration #  4     ecut=    40.00 Ry     beta=0.70
     Davidson diagonalization with overlap
     ethr =  4.19E-08,  avg # of iterations =  1.0

     total cpu time spent up to now is      877.4 secs

     total energy              =    -285.31931611 Ry
     Harris-Foulkes estimate   =    -285.31931622 Ry
     estimated scf accuracy    <       0.00000375 Ry

     iteration #  5     ecut=    40.00 Ry     beta=0.70
     Davidson diagonalization with overlap
     ethr =  1.39E-08,  avg # of iterations =  1.0

     total cpu time spent up to now is      907.8 secs

     total energy              =    -285.31931517 Ry
     Harris-Foulkes estimate   =    -285.31931615 Ry
     estimated scf accuracy    <       0.00000356 Ry

     iteration #  6     ecut=    40.00 Ry     beta=0.70
     Davidson diagonalization with overlap
     ethr =  1.32E-08,  avg # of iterations =  1.0

     total cpu time spent up to now is      938.7 secs

     total energy              =    -285.31931474 Ry
     Harris-Foulkes estimate   =    -285.31931527 Ry
     estimated scf accuracy    <       0.00000157 Ry

     iteration #  7     ecut=    40.00 Ry     beta=0.70
     Davidson diagonalization with overlap
     ethr =  5.82E-09,  avg # of iterations =  1.0

     total cpu time spent up to now is      969.7 secs

     total energy              =    -285.31931453 Ry
     Harris-Foulkes estimate   =    -285.31931481 Ry
     estimated scf accuracy    <       0.00000052 Ry

     iteration #  8     ecut=    40.00 Ry     beta=0.70
     Davidson diagonalization with overlap
     ethr =  1.94E-09,  avg # of iterations =  2.0

     total cpu time spent up to now is     1006.9 secs

     total energy              =    -285.31931459 Ry
     Harris-Foulkes estimate   =    -285.31931459 Ry
     estimated scf accuracy    <       0.00000004 Ry

     iteration #  9     ecut=    40.00 Ry     beta=0.70
     Davidson diagonalization with overlap
     ethr =  1.61E-10,  avg # of iterations =  1.2

     total cpu time spent up to now is     1038.1 secs

     total energy              =    -285.31931458 Ry
     Harris-Foulkes estimate   =    -285.31931459 Ry
     estimated scf accuracy    <       0.00000002 Ry

     iteration # 10     ecut=    40.00 Ry     beta=0.70
     Davidson diagonalization with overlap
     ethr =  9.21E-11,  avg # of iterations =  1.0

     total cpu time spent up to now is     1069.0 secs

     total energy              =    -285.31931457 Ry
     Harris-Foulkes estimate   =    -285.31931458 Ry
     estimated scf accuracy    <       0.00000002 Ry

     iteration # 11     ecut=    40.00 Ry     beta=0.70
     Davidson diagonalization with overlap
     ethr =  5.84E-11,  avg # of iterations =  2.0

     total cpu time spent up to now is     1108.3 secs

     total energy              =    -285.31931458 Ry
     Harris-Foulkes estimate   =    -285.31931458 Ry
     estimated scf accuracy    <          5.8E-12 Ry

     iteration # 12     ecut=    40.00 Ry     beta=0.70
     Davidson diagonalization with overlap
     ethr =  1.00E-13,  avg # of iterations =  3.0

     total cpu time spent up to now is     1143.2 secs

     total energy              =    -285.31931458 Ry
     Harris-Foulkes estimate   =    -285.31931458 Ry
     estimated scf accuracy    <          4.8E-12 Ry

     iteration # 13     ecut=    40.00 Ry     beta=0.70
     Davidson diagonalization with overlap
     ethr =  1.00E-13,  avg # of iterations =  1.0

     total cpu time spent up to now is     1173.9 secs

     total energy              =    -285.31931458 Ry
     Harris-Foulkes estimate   =    -285.31931458 Ry
     estimated scf accuracy    <          4.7E-12 Ry

     iteration # 14     ecut=    40.00 Ry     beta=0.70
     Davidson diagonalization with overlap
     ethr =  1.00E-13,  avg # of iterations =  2.0

     total cpu time spent up to now is     1212.5 secs

     total energy              =    -285.31931458 Ry
     Harris-Foulkes estimate   =    -285.31931458 Ry
     estimated scf accuracy    <          1.5E-11 Ry

     iteration # 15     ecut=    40.00 Ry     beta=0.70
     Davidson diagonalization with overlap
     ethr =  1.00E-13,  avg # of iterations =  2.0

     total cpu time spent up to now is     1250.5 secs

     End of self-consistent calculation

     Number of k-points >= 100: set verbosity='high' to print the bands.

     the Fermi energy is     1.8042 ev

!    total energy              =    -285.31931458 Ry
     Harris-Foulkes estimate   =    -285.31931458 Ry
     estimated scf accuracy    <          8.9E-13 Ry

     The total energy is the sum of the following terms:

     one-electron contribution =    -261.37853002 Ry
     hartree contribution      =     132.01384664 Ry
     xc contribution           =     -42.82380836 Ry
     ewald contribution        =    -113.13069169 Ry
     smearing contrib. (-TS)   =      -0.00013114 Ry

     convergence has been achieved in  15 iterations

     Forces acting on atoms (cartesian axes, Ry/au):

     atom    1 type  1   force =    -0.00000059   -0.00000059   -0.00000059
     atom    2 type  1   force =     0.00000059    0.00000059    0.00000059
     atom    3 type  1   force =     0.00000000   -0.00000000   -0.00000000

     Total force =     0.000001     Total SCF correction =     0.000000


     Computing stress (Cartesian axis) and pressure

          total   stress  (Ry/bohr**3)                   (kbar)     P=    1.00
   0.00000679   0.00000023   0.00000023          1.00      0.03      0.03
   0.00000023   0.00000679   0.00000023          0.03      1.00      0.03
   0.00000023   0.00000023   0.00000679          0.03      0.03      1.00


     number of scf cycles    =   3
     number of bfgs steps    =   2

     enthalpy old            =    -285.3193114023 Ry
     enthalpy new            =    -285.3193145754 Ry

     CASE: enthalpy_new < enthalpy_old

     new trust radius        =       0.0016813540 bohr
     new conv_thr            =            1.0E-12 Ry

     new unit-cell volume =    716.95505 a.u.^3 (   106.24178 Ang^3 )
     density =      1.07799 g/cm^3

CELL_PARAMETERS (alat= 17.00000000)
   0.386288042   0.676025897   0.676025897
   0.676025897   0.386288042   0.676025897
   0.676025897   0.676025897   0.386288042

ATOMIC_POSITIONS (crystal)
Na       0.722223034   0.722223034   0.722223034
Na       0.277776966   0.277776966   0.277776966
Na       0.500000000   0.500000000   0.500000000



     Writing output data file na.9r.save
     NEW-OLD atomic charge density approx. for the potential
     extrapolated charge   27.02538, renormalised to   27.00000

     total cpu time spent up to now is     1257.1 secs

     per-process dynamical memory:    36.6 Mb

     Self-consistent Calculation

     iteration #  1     ecut=    40.00 Ry     beta=0.70
     Davidson diagonalization with overlap
     ethr =  1.00E-06,  avg # of iterations =  2.0

     total cpu time spent up to now is     1298.4 secs

     total energy              =    -285.31917722 Ry
     Harris-Foulkes estimate   =    -285.12333582 Ry
     estimated scf accuracy    <       0.00007916 Ry

     iteration #  2     ecut=    40.00 Ry     beta=0.70
     Davidson diagonalization with overlap
     ethr =  2.93E-07,  avg # of iterations =  3.0

     total cpu time spent up to now is     1344.8 secs

     total energy              =    -285.31932164 Ry
     Harris-Foulkes estimate   =    -285.31937986 Ry
     estimated scf accuracy    <       0.00013261 Ry

     iteration #  3     ecut=    40.00 Ry     beta=0.70
     Davidson diagonalization with overlap
     ethr =  2.93E-07,  avg # of iterations =  2.0

     total cpu time spent up to now is     1381.5 secs

     total energy              =    -285.31932157 Ry
     Harris-Foulkes estimate   =    -285.31933046 Ry
     estimated scf accuracy    <       0.00002546 Ry

     iteration #  4     ecut=    40.00 Ry     beta=0.70
     Davidson diagonalization with overlap
     ethr =  9.43E-08,  avg # of iterations =  1.0

     total cpu time spent up to now is     1412.7 secs

     total energy              =    -285.31932233 Ry
     Harris-Foulkes estimate   =    -285.31932263 Ry
     estimated scf accuracy    <       0.00000839 Ry

     iteration #  5     ecut=    40.00 Ry     beta=0.70
     Davidson diagonalization with overlap
     ethr =  3.11E-08,  avg # of iterations =  1.0

     total cpu time spent up to now is     1444.0 secs

     total energy              =    -285.31932029 Ry
     Harris-Foulkes estimate   =    -285.31932241 Ry
     estimated scf accuracy    <       0.00000781 Ry

     iteration #  6     ecut=    40.00 Ry     beta=0.70
     Davidson diagonalization with overlap
     ethr =  2.89E-08,  avg # of iterations =  1.0

     total cpu time spent up to now is     1475.1 secs

     total energy              =    -285.31931921 Ry
     Harris-Foulkes estimate   =    -285.31932050 Ry
     estimated scf accuracy    <       0.00000348 Ry

     iteration #  7     ecut=    40.00 Ry     beta=0.70
     Davidson diagonalization with overlap
     ethr =  1.29E-08,  avg # of iterations =  1.0

     total cpu time spent up to now is     1506.2 secs

     total energy              =    -285.31931882 Ry
     Harris-Foulkes estimate   =    -285.31931938 Ry
     estimated scf accuracy    <       0.00000097 Ry

     iteration #  8     ecut=    40.00 Ry     beta=0.70
     Davidson diagonalization with overlap
     ethr =  3.60E-09,  avg # of iterations =  2.0

     total cpu time spent up to now is     1545.7 secs

     total energy              =    -285.31931897 Ry
     Harris-Foulkes estimate   =    -285.31931897 Ry
     estimated scf accuracy    <       0.00000004 Ry

     iteration #  9     ecut=    40.00 Ry     beta=0.70
     Davidson diagonalization with overlap
     ethr =  1.49E-10,  avg # of iterations =  1.0

     total cpu time spent up to now is     1576.9 secs

     total energy              =    -285.31931896 Ry
     Harris-Foulkes estimate   =    -285.31931897 Ry
     estimated scf accuracy    <       0.00000004 Ry

     iteration # 10     ecut=    40.00 Ry     beta=0.70
     Davidson diagonalization with overlap
     ethr =  1.37E-10,  avg # of iterations =  1.0

     total cpu time spent up to now is     1608.3 secs

     total energy              =    -285.31931895 Ry
     Harris-Foulkes estimate   =    -285.31931896 Ry
     estimated scf accuracy    <       0.00000001 Ry

     iteration # 11     ecut=    40.00 Ry     beta=0.70
     Davidson diagonalization with overlap
     ethr =  4.38E-11,  avg # of iterations =  2.0

     total cpu time spent up to now is     1647.7 secs

     total energy              =    -285.31931896 Ry
     Harris-Foulkes estimate   =    -285.31931896 Ry
     estimated scf accuracy    <          2.3E-11 Ry

     iteration # 12     ecut=    40.00 Ry     beta=0.70
     Davidson diagonalization with overlap
     ethr =  1.00E-13,  avg # of iterations =  3.1

     total cpu time spent up to now is     1682.9 secs

     total energy              =    -285.31931896 Ry
     Harris-Foulkes estimate   =    -285.31931896 Ry
     estimated scf accuracy    <          1.8E-11 Ry

     iteration # 13     ecut=    40.00 Ry     beta=0.70
     Davidson diagonalization with overlap
     ethr =  1.00E-13,  avg # of iterations =  1.0

     total cpu time spent up to now is     1714.0 secs

     total energy              =    -285.31931896 Ry
     Harris-Foulkes estimate   =    -285.31931896 Ry
     estimated scf accuracy    <          1.9E-11 Ry

     iteration # 14     ecut=    40.00 Ry     beta=0.70
     Davidson diagonalization with overlap
     ethr =  1.00E-13,  avg # of iterations =  1.0

     total cpu time spent up to now is     1745.2 secs

     total energy              =    -285.31931896 Ry
     Harris-Foulkes estimate   =    -285.31931896 Ry
     estimated scf accuracy    <          1.1E-11 Ry

     iteration # 15     ecut=    40.00 Ry     beta=0.70
     Davidson diagonalization with overlap
     ethr =  1.00E-13,  avg # of iterations =  1.0

     total cpu time spent up to now is     1776.0 secs

     End of self-consistent calculation

     Number of k-points >= 100: set verbosity='high' to print the bands.

     the Fermi energy is     1.8000 ev

!    total energy              =    -285.31931896 Ry
     Harris-Foulkes estimate   =    -285.31931896 Ry
     estimated scf accuracy    <          1.6E-13 Ry

     The total energy is the sum of the following terms:

     one-electron contribution =    -261.44075441 Ry
     hartree contribution      =     132.04020547 Ry
     xc contribution           =     -42.82343208 Ry
     ewald contribution        =    -113.09520681 Ry
     smearing contrib. (-TS)   =      -0.00013112 Ry

     convergence has been achieved in  15 iterations

     Forces acting on atoms (cartesian axes, Ry/au):

     atom    1 type  1   force =    -0.00000053   -0.00000053   -0.00000053
     atom    2 type  1   force =     0.00000053    0.00000053    0.00000053
     atom    3 type  1   force =    -0.00000000    0.00000000    0.00000000

     Total force =     0.000001     Total SCF correction =     0.000000


     Computing stress (Cartesian axis) and pressure

          total   stress  (Ry/bohr**3)                   (kbar)     P=    0.90
   0.00000614   0.00000021   0.00000021          0.90      0.03      0.03
   0.00000021   0.00000614   0.00000021          0.03      0.90      0.03
   0.00000021   0.00000021   0.00000614          0.03      0.03      0.90


     number of scf cycles    =   4
     number of bfgs steps    =   3

     enthalpy old            =    -285.3193145754 Ry
     enthalpy new            =    -285.3193189556 Ry

     CASE: enthalpy_new < enthalpy_old

     new trust radius        =       0.0025224232 bohr
     new conv_thr            =            1.0E-12 Ry

     new unit-cell volume =    717.96747 a.u.^3 (   106.39180 Ang^3 )
     density =      1.07647 g/cm^3

CELL_PARAMETERS (alat= 17.00000000)
   0.386491313   0.676360871   0.676360871
   0.676360871   0.386491313   0.676360871
   0.676360871   0.676360871   0.386491313

ATOMIC_POSITIONS (crystal)
Na       0.722222839   0.722222839   0.722222839
Na       0.277777161   0.277777161   0.277777161
Na       0.500000000   0.500000000   0.500000000



     Writing output data file na.9r.save
     NEW-OLD atomic charge density approx. for the potential
     extrapolated charge   27.03805, renormalised to   27.00000

     total cpu time spent up to now is     1782.8 secs

     per-process dynamical memory:    36.6 Mb

     Self-consistent Calculation

     iteration #  1     ecut=    40.00 Ry     beta=0.70
     Davidson diagonalization with overlap
     ethr =  1.00E-06,  avg # of iterations =  2.0

     total cpu time spent up to now is     1824.6 secs

     total energy              =    -285.31900558 Ry
     Harris-Foulkes estimate   =    -285.02541545 Ry
     estimated scf accuracy    <       0.00017822 Ry

     iteration #  2     ecut=    40.00 Ry     beta=0.70
     Davidson diagonalization with overlap
     ethr =  6.60E-07,  avg # of iterations =  3.0

     total cpu time spent up to now is     1871.2 secs

     total energy              =    -285.31933077 Ry
     Harris-Foulkes estimate   =    -285.31946182 Ry
     estimated scf accuracy    <       0.00029854 Ry

     iteration #  3     ecut=    40.00 Ry     beta=0.70
     Davidson diagonalization with overlap
     ethr =  6.60E-07,  avg # of iterations =  2.0

     total cpu time spent up to now is     1907.7 secs

     total energy              =    -285.31933049 Ry
     Harris-Foulkes estimate   =    -285.31935059 Ry
     estimated scf accuracy    <       0.00005736 Ry

     iteration #  4     ecut=    40.00 Ry     beta=0.70
     Davidson diagonalization with overlap
     ethr =  2.12E-07,  avg # of iterations =  1.0

     total cpu time spent up to now is     1938.3 secs

     total energy              =    -285.31933217 Ry
     Harris-Foulkes estimate   =    -285.31933290 Ry
     estimated scf accuracy    <       0.00001879 Ry

     iteration #  5     ecut=    40.00 Ry     beta=0.70
     Davidson diagonalization with overlap
     ethr =  6.96E-08,  avg # of iterations =  1.0

     total cpu time spent up to now is     1969.7 secs

     total energy              =    -285.31932759 Ry
     Harris-Foulkes estimate   =    -285.31933235 Ry
     estimated scf accuracy    <       0.00001732 Ry

     iteration #  6     ecut=    40.00 Ry     beta=0.70
     Davidson diagonalization with overlap
     ethr =  6.41E-08,  avg # of iterations =  1.0

     total cpu time spent up to now is     2000.3 secs

     total energy              =    -285.31932505 Ry
     Harris-Foulkes estimate   =    -285.31932806 Ry
     estimated scf accuracy    <       0.00000766 Ry

     iteration #  7     ecut=    40.00 Ry     beta=0.70
     Davidson diagonalization with overlap
     ethr =  2.84E-08,  avg # of iterations =  1.0

     total cpu time spent up to now is     2031.2 secs

     total energy              =    -285.31932438 Ry
     Harris-Foulkes estimate   =    -285.31932549 Ry
     estimated scf accuracy    <       0.00000189 Ry

     iteration #  8     ecut=    40.00 Ry     beta=0.70
     Davidson diagonalization with overlap
     ethr =  7.01E-09,  avg # of iterations =  2.0

     total cpu time spent up to now is     2068.3 secs

     total energy              =    -285.31932470 Ry
     Harris-Foulkes estimate   =    -285.31932470 Ry
     estimated scf accuracy    <       0.00000006 Ry

     iteration #  9     ecut=    40.00 Ry     beta=0.70
     Davidson diagonalization with overlap
     ethr =  2.07E-10,  avg # of iterations =  1.2

     total cpu time spent up to now is     2099.6 secs

     total energy              =    -285.31932467 Ry
     Harris-Foulkes estimate   =    -285.31932470 Ry
     estimated scf accuracy    <       0.00000006 Ry

     iteration # 10     ecut=    40.00 Ry     beta=0.70
     Davidson diagonalization with overlap
     ethr =  2.07E-10,  avg # of iterations =  1.3

     total cpu time spent up to now is     2130.7 secs

     total energy              =    -285.31932467 Ry
     Harris-Foulkes estimate   =    -285.31932468 Ry
     estimated scf accuracy    <          9.7E-09 Ry

     iteration # 11     ecut=    40.00 Ry     beta=0.70
     Davidson diagonalization with overlap
     ethr =  3.58E-11,  avg # of iterations =  2.0

     total cpu time spent up to now is     2170.0 secs

     total energy              =    -285.31932467 Ry
     Harris-Foulkes estimate   =    -285.31932467 Ry
     estimated scf accuracy    <          6.1E-11 Ry

     iteration # 12     ecut=    40.00 Ry     beta=0.70
     Davidson diagonalization with overlap
     ethr =  2.24E-13,  avg # of iterations =  2.7

     total cpu time spent up to now is     2204.5 secs

     total energy              =    -285.31932467 Ry
     Harris-Foulkes estimate   =    -285.31932467 Ry
     estimated scf accuracy    <          4.6E-11 Ry

     iteration # 13     ecut=    40.00 Ry     beta=0.70
     Davidson diagonalization with overlap
     ethr =  1.71E-13,  avg # of iterations =  1.0

     total cpu time spent up to now is     2235.6 secs

     total energy              =    -285.31932467 Ry
     Harris-Foulkes estimate   =    -285.31932467 Ry
     estimated scf accuracy    <          5.7E-11 Ry

     iteration # 14     ecut=    40.00 Ry     beta=0.70
     Davidson diagonalization with overlap
     ethr =  1.71E-13,  avg # of iterations =  2.0

     total cpu time spent up to now is     2272.3 secs

     total energy              =    -285.31932467 Ry
     Harris-Foulkes estimate   =    -285.31932467 Ry
     estimated scf accuracy    <          1.7E-11 Ry

     iteration # 15     ecut=    40.00 Ry     beta=0.70
     Davidson diagonalization with overlap
     ethr =  1.00E-13,  avg # of iterations =  1.0

     total cpu time spent up to now is     2303.4 secs

     total energy              =    -285.31932467 Ry
     Harris-Foulkes estimate   =    -285.31932467 Ry
     estimated scf accuracy    <          1.2E-12 Ry

     iteration # 16     ecut=    40.00 Ry     beta=0.70
     Davidson diagonalization with overlap
     ethr =  1.00E-13,  avg # of iterations =  1.0

     total cpu time spent up to now is     2334.9 secs

     total energy              =    -285.31932467 Ry
     Harris-Foulkes estimate   =    -285.31932467 Ry
     estimated scf accuracy    <          2.6E-12 Ry

     iteration # 17     ecut=    40.00 Ry     beta=0.70
     Davidson diagonalization with overlap
     ethr =  1.00E-13,  avg # of iterations =  1.0

     total cpu time spent up to now is     2366.0 secs

     total energy              =    -285.31932467 Ry
     Harris-Foulkes estimate   =    -285.31932467 Ry
     estimated scf accuracy    <          1.5E-12 Ry

     iteration # 18     ecut=    40.00 Ry     beta=0.70
     Davidson diagonalization with overlap
     ethr =  1.00E-13,  avg # of iterations =  1.0

     total cpu time spent up to now is     2397.4 secs

     total energy              =    -285.31932467 Ry
     Harris-Foulkes estimate   =    -285.31932467 Ry
     estimated scf accuracy    <          1.1E-12 Ry

     iteration # 19     ecut=    40.00 Ry     beta=0.70
     Davidson diagonalization with overlap
     ethr =  1.00E-13,  avg # of iterations =  1.0

     total cpu time spent up to now is     2428.2 secs

     End of self-consistent calculation

     Number of k-points >= 100: set verbosity='high' to print the bands.

     the Fermi energy is     1.7939 ev

!    total energy              =    -285.31932467 Ry
     Harris-Foulkes estimate   =    -285.31932467 Ry
     estimated scf accuracy    <          4.0E-14 Ry

     The total energy is the sum of the following terms:

     one-electron contribution =    -261.53400218 Ry
     hartree contribution      =     132.07969768 Ry
     xc contribution           =     -42.82286509 Ry
     ewald contribution        =    -113.04202399 Ry
     smearing contrib. (-TS)   =      -0.00013108 Ry

     convergence has been achieved in  19 iterations

     Forces acting on atoms (cartesian axes, Ry/au):

     atom    1 type  1   force =    -0.00000042   -0.00000042   -0.00000042
     atom    2 type  1   force =     0.00000042    0.00000042    0.00000042
     atom    3 type  1   force =     0.00000000    0.00000000   -0.00000000

     Total force =     0.000001     Total SCF correction =     0.000000


     Computing stress (Cartesian axis) and pressure

          total   stress  (Ry/bohr**3)                   (kbar)     P=    0.75
   0.00000513   0.00000020   0.00000020          0.75      0.03      0.03
   0.00000020   0.00000513   0.00000020          0.03      0.75      0.03
   0.00000020   0.00000020   0.00000513          0.03      0.03      0.75


     number of scf cycles    =   5
     number of bfgs steps    =   4

     enthalpy old            =    -285.3193189556 Ry
     enthalpy new            =    -285.3193246748 Ry

     CASE: enthalpy_new < enthalpy_old

     new trust radius        =       0.0037845165 bohr
     new conv_thr            =            1.0E-12 Ry

     new unit-cell volume =    719.48778 a.u.^3 (   106.61709 Ang^3 )
     density =      1.07419 g/cm^3

CELL_PARAMETERS (alat= 17.00000000)
   0.386797170   0.676864062   0.676864062
   0.676864062   0.386797170   0.676864062
   0.676864062   0.676864062   0.386797170

ATOMIC_POSITIONS (crystal)
Na       0.722222550   0.722222550   0.722222550
Na       0.277777450   0.277777450   0.277777450
Na       0.500000000   0.500000000   0.500000000



     Writing output data file na.9r.save
     NEW-OLD atomic charge density approx. for the potential
     extrapolated charge   27.05701, renormalised to   27.00000

     total cpu time spent up to now is     2434.8 secs

     per-process dynamical memory:    36.6 Mb

     Self-consistent Calculation

     iteration #  1     ecut=    40.00 Ry     beta=0.70
     Davidson diagonalization with overlap
     ethr =  1.00E-06,  avg # of iterations =  2.2

     total cpu time spent up to now is     2478.5 secs

     total energy              =    -285.31861284 Ry
     Harris-Foulkes estimate   =    -284.87861170 Ry
     estimated scf accuracy    <       0.00040122 Ry

     iteration #  2     ecut=    40.00 Ry     beta=0.70
     Davidson diagonalization with overlap
     ethr =  1.49E-06,  avg # of iterations =  3.0

     total cpu time spent up to now is     2527.7 secs

     total energy              =    -285.31934524 Ry
     Harris-Foulkes estimate   =    -285.31964032 Ry
     estimated scf accuracy    <       0.00067219 Ry

     iteration #  3     ecut=    40.00 Ry     beta=0.70
     Davidson diagonalization with overlap
     ethr =  1.49E-06,  avg # of iterations =  2.0

     total cpu time spent up to now is     2564.8 secs

     total energy              =    -285.31934336 Ry
     Harris-Foulkes estimate   =    -285.31938990 Ry
     estimated scf accuracy    <       0.00012912 Ry

     iteration #  4     ecut=    40.00 Ry     beta=0.70
     Davidson diagonalization with overlap
     ethr =  4.78E-07,  avg # of iterations =  1.0

     total cpu time spent up to now is     2595.7 secs

     total energy              =    -285.31934823 Ry
     Harris-Foulkes estimate   =    -285.31934897 Ry
     estimated scf accuracy    <       0.00004050 Ry

     iteration #  5     ecut=    40.00 Ry     beta=0.70
     Davidson diagonalization with overlap
     ethr =  1.50E-07,  avg # of iterations =  1.0

     total cpu time spent up to now is     2626.8 secs

     total energy              =    -285.31933890 Ry
     Harris-Foulkes estimate   =    -285.31934862 Ry
     estimated scf accuracy    <       0.00003935 Ry

     iteration #  6     ecut=    40.00 Ry     beta=0.70
     Davidson diagonalization with overlap
     ethr =  1.46E-07,  avg # of iterations =  1.0

     total cpu time spent up to now is     2657.5 secs

     total energy              =    -285.31933405 Ry
     Harris-Foulkes estimate   =    -285.31933982 Ry
     estimated scf accuracy    <       0.00001902 Ry

     iteration #  7     ecut=    40.00 Ry     beta=0.70
     Davidson diagonalization with overlap
     ethr =  7.05E-08,  avg # of iterations =  1.0

     total cpu time spent up to now is     2688.4 secs

     total energy              =    -285.31933068 Ry
     Harris-Foulkes estimate   =    -285.31933469 Ry
     estimated scf accuracy    <       0.00000738 Ry

     iteration #  8     ecut=    40.00 Ry     beta=0.70
     Davidson diagonalization with overlap
     ethr =  2.73E-08,  avg # of iterations =  2.0

     total cpu time spent up to now is     2725.2 secs

     total energy              =    -285.31933139 Ry
     Harris-Foulkes estimate   =    -285.31933158 Ry
     estimated scf accuracy    <       0.00000053 Ry

     iteration #  9     ecut=    40.00 Ry     beta=0.70
     Davidson diagonalization with overlap
     ethr =  1.95E-09,  avg # of iterations =  1.0

     total cpu time spent up to now is     2756.2 secs

     total energy              =    -285.31933138 Ry
     Harris-Foulkes estimate   =    -285.31933142 Ry
     estimated scf accuracy    <       0.00000017 Ry

     iteration # 10     ecut=    40.00 Ry     beta=0.70
     Davidson diagonalization with overlap
     ethr =  6.21E-10,  avg # of iterations =  1.0

     total cpu time spent up to now is     2786.8 secs

     total energy              =    -285.31933133 Ry
     Harris-Foulkes estimate   =    -285.31933138 Ry
     estimated scf accuracy    <       0.00000008 Ry

     iteration # 11     ecut=    40.00 Ry     beta=0.70
     Davidson diagonalization with overlap
     ethr =  3.06E-10,  avg # of iterations =  2.0

     total cpu time spent up to now is     2826.2 secs

     total energy              =    -285.31933135 Ry
     Harris-Foulkes estimate   =    -285.31933135 Ry
     estimated scf accuracy    <          5.5E-11 Ry

     iteration # 12     ecut=    40.00 Ry     beta=0.70
     Davidson diagonalization with overlap
     ethr =  2.03E-13,  avg # of iterations =  3.6

     total cpu time spent up to now is     2868.2 secs

     total energy              =    -285.31933135 Ry
     Harris-Foulkes estimate   =    -285.31933135 Ry
     estimated scf accuracy    <          4.1E-11 Ry

     iteration # 13     ecut=    40.00 Ry     beta=0.70
     Davidson diagonalization with overlap
     ethr =  1.53E-13,  avg # of iterations =  1.0

     total cpu time spent up to now is     2899.0 secs

     total energy              =    -285.31933135 Ry
     Harris-Foulkes estimate   =    -285.31933135 Ry
     estimated scf accuracy    <          4.4E-11 Ry

     iteration # 14     ecut=    40.00 Ry     beta=0.70
     Davidson diagonalization with overlap
     ethr =  1.53E-13,  avg # of iterations =  1.0

     total cpu time spent up to now is     2930.0 secs

     total energy              =    -285.31933135 Ry
     Harris-Foulkes estimate   =    -285.31933135 Ry
     estimated scf accuracy    <          3.7E-11 Ry

     iteration # 15     ecut=    40.00 Ry     beta=0.70
     Davidson diagonalization with overlap
     ethr =  1.37E-13,  avg # of iterations =  2.0

     total cpu time spent up to now is     2970.3 secs

     total energy              =    -285.31933135 Ry
     Harris-Foulkes estimate   =    -285.31933135 Ry
     estimated scf accuracy    <          1.3E-10 Ry

     iteration # 16     ecut=    40.00 Ry     beta=0.70
     Davidson diagonalization with overlap
     ethr =  1.37E-13,  avg # of iterations =  1.0

     total cpu time spent up to now is     3001.1 secs

     total energy              =    -285.31933135 Ry
     Harris-Foulkes estimate   =    -285.31933135 Ry
     estimated scf accuracy    <          1.1E-10 Ry

     iteration # 17     ecut=    40.00 Ry     beta=0.70
     Davidson diagonalization with overlap
     ethr =  1.37E-13,  avg # of iterations =  1.0

     total cpu time spent up to now is     3031.5 secs

     total energy              =    -285.31933135 Ry
     Harris-Foulkes estimate   =    -285.31933135 Ry
     estimated scf accuracy    <          1.4E-10 Ry

     iteration # 18     ecut=    40.00 Ry     beta=0.70
     Davidson diagonalization with overlap
     ethr =  1.37E-13,  avg # of iterations =  3.0

     total cpu time spent up to now is     3078.8 secs

     total energy              =    -285.31933135 Ry
     Harris-Foulkes estimate   =    -285.31933135 Ry
     estimated scf accuracy    <          9.1E-10 Ry

     iteration # 19     ecut=    40.00 Ry     beta=0.70
     Davidson diagonalization with overlap
     ethr =  1.37E-13,  avg # of iterations =  3.0

     total cpu time spent up to now is     3126.2 secs

     total energy              =    -285.31933135 Ry
     Harris-Foulkes estimate   =    -285.31933135 Ry
     estimated scf accuracy    <          8.5E-12 Ry

     iteration # 20     ecut=    40.00 Ry     beta=0.70
     Davidson diagonalization with overlap
     ethr =  1.00E-13,  avg # of iterations =  1.0

     total cpu time spent up to now is     3157.1 secs

     End of self-consistent calculation

     Number of k-points >= 100: set verbosity='high' to print the bands.

     the Fermi energy is     1.7846 ev

!    total energy              =    -285.31933135 Ry
     Harris-Foulkes estimate   =    -285.31933135 Ry
     estimated scf accuracy    <          1.5E-13 Ry

     The total energy is the sum of the following terms:

     one-electron contribution =    -261.67371434 Ry
     hartree contribution      =     132.13888078 Ry
     xc contribution           =     -42.82201768 Ry
     ewald contribution        =    -112.96234909 Ry
     smearing contrib. (-TS)   =      -0.00013103 Ry

     convergence has been achieved in  20 iterations

     Forces acting on atoms (cartesian axes, Ry/au):

     atom    1 type  1   force =    -0.00000033   -0.00000033   -0.00000033
     atom    2 type  1   force =     0.00000033    0.00000033    0.00000033
     atom    3 type  1   force =     0.00000000    0.00000000    0.00000000

     Total force =     0.000001     Total SCF correction =     0.000000
     SCF correction compared to forces is large: reduce conv_thr to get better values


     Computing stress (Cartesian axis) and pressure

          total   stress  (Ry/bohr**3)                   (kbar)     P=    0.53
   0.00000363   0.00000017   0.00000017          0.53      0.02      0.02
   0.00000017   0.00000363   0.00000017          0.02      0.53      0.02
   0.00000017   0.00000017   0.00000363          0.02      0.02      0.53


     number of scf cycles    =   6
     number of bfgs steps    =   5

     enthalpy old            =    -285.3193246748 Ry
     enthalpy new            =    -285.3193313461 Ry

     CASE: enthalpy_new < enthalpy_old

     new trust radius        =       0.0056787567 bohr
     new conv_thr            =            1.0E-12 Ry

     new unit-cell volume =    721.77205 a.u.^3 (   106.95558 Ang^3 )
     density =      1.07079 g/cm^3

CELL_PARAMETERS (alat= 17.00000000)
   0.387257849   0.677620297   0.677620297
   0.677620297   0.387257849   0.677620297
   0.677620297   0.677620297   0.387257849

ATOMIC_POSITIONS (crystal)
Na       0.722222112   0.722222112   0.722222112
Na       0.277777888   0.277777888   0.277777888
Na       0.500000000   0.500000000   0.500000000



     Writing output data file na.9r.save
     NEW-OLD atomic charge density approx. for the potential
     extrapolated charge   27.08539, renormalised to   27.00000

     total cpu time spent up to now is     3163.8 secs

     per-process dynamical memory:    36.6 Mb

     Self-consistent Calculation

     iteration #  1     ecut=    40.00 Ry     beta=0.70
     Davidson diagonalization with overlap
     ethr =  1.00E-06,  avg # of iterations =  3.0

     total cpu time spent up to now is     3209.7 secs

     total energy              =    -285.31771697 Ry
     Harris-Foulkes estimate   =    -284.65857740 Ry
     estimated scf accuracy    <       0.00090459 Ry

     iteration #  2     ecut=    40.00 Ry     beta=0.70
     Davidson diagonalization with overlap
     ethr =  3.35E-06,  avg # of iterations =  3.0

     total cpu time spent up to now is     3258.8 secs

     total energy              =    -285.31936898 Ry
     Harris-Foulkes estimate   =    -285.32003428 Ry
     estimated scf accuracy    <       0.00151563 Ry

     iteration #  3     ecut=    40.00 Ry     beta=0.70
     Davidson diagonalization with overlap
     ethr =  3.35E-06,  avg # of iterations =  2.0

     total cpu time spent up to now is     3295.2 secs

     total energy              =    -285.31936412 Ry
     Harris-Foulkes estimate   =    -285.31946945 Ry
     estimated scf accuracy    <       0.00029177 Ry

     iteration #  4     ecut=    40.00 Ry     beta=0.70
     Davidson diagonalization with overlap
     ethr =  1.08E-06,  avg # of iterations =  1.0

     total cpu time spent up to now is     3325.4 secs

     total energy              =    -285.31937548 Ry
     Harris-Foulkes estimate   =    -285.31937684 Ry
     estimated scf accuracy    <       0.00009131 Ry

     iteration #  5     ecut=    40.00 Ry     beta=0.70
     Davidson diagonalization with overlap
     ethr =  3.38E-07,  avg # of iterations =  1.0

     total cpu time spent up to now is     3356.6 secs

     total energy              =    -285.31935420 Ry
     Harris-Foulkes estimate   =    -285.31937635 Ry
     estimated scf accuracy    <       0.00008949 Ry

     iteration #  6     ecut=    40.00 Ry     beta=0.70
     Davidson diagonalization with overlap
     ethr =  3.31E-07,  avg # of iterations =  1.0

     total cpu time spent up to now is     3387.1 secs

     total energy              =    -285.31934377 Ry
     Harris-Foulkes estimate   =    -285.31935630 Ry
     estimated scf accuracy    <       0.00004314 Ry

     iteration #  7     ecut=    40.00 Ry     beta=0.70
     Davidson diagonalization with overlap
     ethr =  1.60E-07,  avg # of iterations =  1.0

     total cpu time spent up to now is     3417.8 secs

     total energy              =    -285.31933562 Ry
     Harris-Foulkes estimate   =    -285.31934509 Ry
     estimated scf accuracy    <       0.00001760 Ry

     iteration #  8     ecut=    40.00 Ry     beta=0.70
     Davidson diagonalization with overlap
     ethr =  6.52E-08,  avg # of iterations =  2.0

     total cpu time spent up to now is     3454.3 secs

     total energy              =    -285.31933719 Ry
     Harris-Foulkes estimate   =    -285.31933769 Ry
     estimated scf accuracy    <       0.00000135 Ry

     iteration #  9     ecut=    40.00 Ry     beta=0.70
     Davidson diagonalization with overlap
     ethr =  5.00E-09,  avg # of iterations =  1.4

     total cpu time spent up to now is     3486.1 secs

     total energy              =    -285.31933717 Ry
     Harris-Foulkes estimate   =    -285.31933726 Ry
     estimated scf accuracy    <       0.00000040 Ry

     iteration # 10     ecut=    40.00 Ry     beta=0.70
     Davidson diagonalization with overlap
     ethr =  1.48E-09,  avg # of iterations =  1.0

     total cpu time spent up to now is     3517.0 secs

     total energy              =    -285.31933704 Ry
     Harris-Foulkes estimate   =    -285.31933718 Ry
     estimated scf accuracy    <       0.00000020 Ry

     iteration # 11     ecut=    40.00 Ry     beta=0.70
     Davidson diagonalization with overlap
     ethr =  7.25E-10,  avg # of iterations =  2.0

     total cpu time spent up to now is     3555.8 secs

     total energy              =    -285.31933709 Ry
     Harris-Foulkes estimate   =    -285.31933709 Ry
     estimated scf accuracy    <          1.4E-10 Ry

     iteration # 12     ecut=    40.00 Ry     beta=0.70
     Davidson diagonalization with overlap
     ethr =  5.06E-13,  avg # of iterations =  3.6

     total cpu time spent up to now is     3597.5 secs

     total energy              =    -285.31933709 Ry
     Harris-Foulkes estimate   =    -285.31933709 Ry
     estimated scf accuracy    <          8.2E-11 Ry

     iteration # 13     ecut=    40.00 Ry     beta=0.70
     Davidson diagonalization with overlap
     ethr =  3.04E-13,  avg # of iterations =  1.0

     total cpu time spent up to now is     3628.1 secs

     total energy              =    -285.31933709 Ry
     Harris-Foulkes estimate   =    -285.31933709 Ry
     estimated scf accuracy    <          6.4E-11 Ry

     iteration # 14     ecut=    40.00 Ry     beta=0.70
     Davidson diagonalization with overlap
     ethr =  2.38E-13,  avg # of iterations =  1.0

     total cpu time spent up to now is     3659.2 secs

     total energy              =    -285.31933709 Ry
     Harris-Foulkes estimate   =    -285.31933709 Ry
     estimated scf accuracy    <          4.5E-11 Ry

     iteration # 15     ecut=    40.00 Ry     beta=0.70
     Davidson diagonalization with overlap
     ethr =  1.65E-13,  avg # of iterations =  1.0

     total cpu time spent up to now is     3690.0 secs

     total energy              =    -285.31933709 Ry
     Harris-Foulkes estimate   =    -285.31933709 Ry
     estimated scf accuracy    <          6.8E-11 Ry

     iteration # 16     ecut=    40.00 Ry     beta=0.70
     Davidson diagonalization with overlap
     ethr =  1.65E-13,  avg # of iterations =  1.0

     total cpu time spent up to now is     3721.3 secs

     total energy              =    -285.31933709 Ry
     Harris-Foulkes estimate   =    -285.31933709 Ry
     estimated scf accuracy    <          3.9E-11 Ry

     iteration # 17     ecut=    40.00 Ry     beta=0.70
     Davidson diagonalization with overlap
     ethr =  1.45E-13,  avg # of iterations =  1.0

     total cpu time spent up to now is     3752.2 secs

     total energy              =    -285.31933709 Ry
     Harris-Foulkes estimate   =    -285.31933709 Ry
     estimated scf accuracy    <          4.8E-11 Ry

     iteration # 18     ecut=    40.00 Ry     beta=0.70
     Davidson diagonalization with overlap
     ethr =  1.45E-13,  avg # of iterations =  1.0

     total cpu time spent up to now is     3783.4 secs

     total energy              =    -285.31933709 Ry
     Harris-Foulkes estimate   =    -285.31933709 Ry
     estimated scf accuracy    <          5.3E-11 Ry

     iteration # 19     ecut=    40.00 Ry     beta=0.70
     Davidson diagonalization with overlap
     ethr =  1.45E-13,  avg # of iterations =  2.0

     total cpu time spent up to now is     3822.7 secs

     End of self-consistent calculation

     Number of k-points >= 100: set verbosity='high' to print the bands.

     the Fermi energy is     1.7708 ev

!    total energy              =    -285.31933709 Ry
     Harris-Foulkes estimate   =    -285.31933709 Ry
     estimated scf accuracy    <          8.1E-14 Ry

     The total energy is the sum of the following terms:

     one-electron contribution =    -261.88290677 Ry
     hartree contribution      =     132.22750822 Ry
     xc contribution           =     -42.82074901 Ry
     ewald contribution        =    -112.84305858 Ry
     smearing contrib. (-TS)   =      -0.00013095 Ry

     convergence has been achieved in  19 iterations

     Forces acting on atoms (cartesian axes, Ry/au):

     atom    1 type  1   force =    -0.00000007   -0.00000007   -0.00000007
     atom    2 type  1   force =     0.00000007    0.00000007    0.00000007
     atom    3 type  1   force =     0.00000000    0.00000000    0.00000000

     Total force =     0.000000     Total SCF correction =     0.000000
     SCF correction compared to forces is large: reduce conv_thr to get better values


     Computing stress (Cartesian axis) and pressure

          total   stress  (Ry/bohr**3)                   (kbar)     P=    0.20
   0.00000139   0.00000012   0.00000012          0.20      0.02      0.02
   0.00000012   0.00000139   0.00000012          0.02      0.20      0.02
   0.00000012   0.00000012   0.00000139          0.02      0.02      0.20


     number of scf cycles    =   7
     number of bfgs steps    =   6

     enthalpy old            =    -285.3193313461 Ry
     enthalpy new            =    -285.3193370877 Ry

     CASE: enthalpy_new < enthalpy_old

     new trust radius        =       0.0035594717 bohr
     new conv_thr            =            1.0E-12 Ry

     new unit-cell volume =    723.20517 a.u.^3 (   107.16795 Ang^3 )
     density =      1.06867 g/cm^3

CELL_PARAMETERS (alat= 17.00000000)
   0.387549497   0.678096388   0.678096388
   0.678096388   0.387549497   0.678096388
   0.678096388   0.678096388   0.387549497

ATOMIC_POSITIONS (crystal)
Na       0.722221842   0.722221842   0.722221842
Na       0.277778158   0.277778158   0.277778158
Na       0.500000000   0.500000000   0.500000000



     Writing output data file na.9r.save
     NEW-OLD atomic charge density approx. for the potential
     extrapolated charge   27.05347, renormalised to   27.00000

     total cpu time spent up to now is     3829.5 secs

     per-process dynamical memory:    36.6 Mb

     Self-consistent Calculation

     iteration #  1     ecut=    40.00 Ry     beta=0.70
     Davidson diagonalization with overlap
     ethr =  1.00E-06,  avg # of iterations =  2.0

     total cpu time spent up to now is     3871.9 secs

     total energy              =    -285.31870624 Ry
     Harris-Foulkes estimate   =    -284.90546197 Ry
     estimated scf accuracy    <       0.00035282 Ry

     iteration #  2     ecut=    40.00 Ry     beta=0.70
     Davidson diagonalization with overlap
     ethr =  1.31E-06,  avg # of iterations =  3.0

     total cpu time spent up to now is     3920.9 secs

     total energy              =    -285.31935028 Ry
     Harris-Foulkes estimate   =    -285.31960976 Ry
     estimated scf accuracy    <       0.00059108 Ry

     iteration #  3     ecut=    40.00 Ry     beta=0.70
     Davidson diagonalization with overlap
     ethr =  1.31E-06,  avg # of iterations =  2.0

     total cpu time spent up to now is     3957.9 secs

     total energy              =    -285.31934878 Ry
     Harris-Foulkes estimate   =    -285.31938955 Ry
     estimated scf accuracy    <       0.00011354 Ry

     iteration #  4     ecut=    40.00 Ry     beta=0.70
     Davidson diagonalization with overlap
     ethr =  4.21E-07,  avg # of iterations =  1.0

     total cpu time spent up to now is     3988.6 secs

     total energy              =    -285.31935278 Ry
     Harris-Foulkes estimate   =    -285.31935369 Ry
     estimated scf accuracy    <       0.00003582 Ry

     iteration #  5     ecut=    40.00 Ry     beta=0.70
     Davidson diagonalization with overlap
     ethr =  1.33E-07,  avg # of iterations =  1.0

     total cpu time spent up to now is     4019.7 secs

     total energy              =    -285.31934445 Ry
     Harris-Foulkes estimate   =    -285.31935313 Ry
     estimated scf accuracy    <       0.00003418 Ry

     iteration #  6     ecut=    40.00 Ry     beta=0.70
     Davidson diagonalization with overlap
     ethr =  1.27E-07,  avg # of iterations =  1.0

     total cpu time spent up to now is     4050.6 secs

     total energy              =    -285.31933982 Ry
     Harris-Foulkes estimate   =    -285.31934528 Ry
     estimated scf accuracy    <       0.00001617 Ry

     iteration #  7     ecut=    40.00 Ry     beta=0.70
     Davidson diagonalization with overlap
     ethr =  5.99E-08,  avg # of iterations =  1.0

     total cpu time spent up to now is     4081.4 secs

     total energy              =    -285.31933743 Ry
     Harris-Foulkes estimate   =    -285.31934049 Ry
     estimated scf accuracy    <       0.00000536 Ry

     iteration #  8     ecut=    40.00 Ry     beta=0.70
     Davidson diagonalization with overlap
     ethr =  1.99E-08,  avg # of iterations =  2.0

     total cpu time spent up to now is     4118.9 secs

     total energy              =    -285.31933814 Ry
     Harris-Foulkes estimate   =    -285.31933821 Ry
     estimated scf accuracy    <       0.00000025 Ry

     iteration #  9     ecut=    40.00 Ry     beta=0.70
     Davidson diagonalization with overlap
     ethr =  9.23E-10,  avg # of iterations =  1.0

     total cpu time spent up to now is     4150.1 secs

     total energy              =    -285.31933813 Ry
     Harris-Foulkes estimate   =    -285.31933815 Ry
     estimated scf accuracy    <       0.00000012 Ry

     iteration # 10     ecut=    40.00 Ry     beta=0.70
     Davidson diagonalization with overlap
     ethr =  4.48E-10,  avg # of iterations =  1.0

     total cpu time spent up to now is     4181.6 secs

     total energy              =    -285.31933808 Ry
     Harris-Foulkes estimate   =    -285.31933813 Ry
     estimated scf accuracy    <       0.00000008 Ry

     iteration # 11     ecut=    40.00 Ry     beta=0.70
     Davidson diagonalization with overlap
     ethr =  3.02E-10,  avg # of iterations =  2.0

     total cpu time spent up to now is     4221.0 secs

     total energy              =    -285.31933810 Ry
     Harris-Foulkes estimate   =    -285.31933810 Ry
     estimated scf accuracy    <          5.4E-11 Ry

     iteration # 12     ecut=    40.00 Ry     beta=0.70
     Davidson diagonalization with overlap
     ethr =  1.99E-13,  avg # of iterations =  3.5

     total cpu time spent up to now is     4262.2 secs

     total energy              =    -285.31933810 Ry
     Harris-Foulkes estimate   =    -285.31933810 Ry
     estimated scf accuracy    <          5.1E-11 Ry

     iteration # 13     ecut=    40.00 Ry     beta=0.70
     Davidson diagonalization with overlap
     ethr =  1.90E-13,  avg # of iterations =  1.0

     total cpu time spent up to now is     4293.1 secs

     total energy              =    -285.31933810 Ry
     Harris-Foulkes estimate   =    -285.31933810 Ry
     estimated scf accuracy    <          4.8E-11 Ry

     iteration # 14     ecut=    40.00 Ry     beta=0.70
     Davidson diagonalization with overlap
     ethr =  1.78E-13,  avg # of iterations =  1.0

     total cpu time spent up to now is     4324.1 secs

     total energy              =    -285.31933810 Ry
     Harris-Foulkes estimate   =    -285.31933810 Ry
     estimated scf accuracy    <          4.9E-12 Ry

     iteration # 15     ecut=    40.00 Ry     beta=0.70
     Davidson diagonalization with overlap
     ethr =  1.00E-13,  avg # of iterations =  1.0

     total cpu time spent up to now is     4355.3 secs

     total energy              =    -285.31933810 Ry
     Harris-Foulkes estimate   =    -285.31933810 Ry
     estimated scf accuracy    <          3.3E-12 Ry

     iteration # 16     ecut=    40.00 Ry     beta=0.70
     Davidson diagonalization with overlap
     ethr =  1.00E-13,  avg # of iterations =  2.0

     total cpu time spent up to now is     4393.2 secs

     total energy              =    -285.31933810 Ry
     Harris-Foulkes estimate   =    -285.31933810 Ry
     estimated scf accuracy    <          1.9E-11 Ry

     iteration # 17     ecut=    40.00 Ry     beta=0.70
     Davidson diagonalization with overlap
     ethr =  1.00E-13,  avg # of iterations =  1.0

     total cpu time spent up to now is     4424.0 secs

     total energy              =    -285.31933810 Ry
     Harris-Foulkes estimate   =    -285.31933810 Ry
     estimated scf accuracy    <          1.0E-11 Ry

     iteration # 18     ecut=    40.00 Ry     beta=0.70
     Davidson diagonalization with overlap
     ethr =  1.00E-13,  avg # of iterations =  2.0

     total cpu time spent up to now is     4457.8 secs

     End of self-consistent calculation

     Number of k-points >= 100: set verbosity='high' to print the bands.

     the Fermi energy is     1.7622 ev

!    total energy              =    -285.31933810 Ry
     Harris-Foulkes estimate   =    -285.31933810 Ry
     estimated scf accuracy    <          1.1E-13 Ry

     The total energy is the sum of the following terms:

     one-electron contribution =    -262.01371069 Ry
     hartree contribution      =     132.28293332 Ry
     xc contribution           =     -42.81995604 Ry
     ewald contribution        =    -112.76847380 Ry
     smearing contrib. (-TS)   =      -0.00013089 Ry

     convergence has been achieved in  18 iterations

     Forces acting on atoms (cartesian axes, Ry/au):

     atom    1 type  1   force =     0.00000002    0.00000002    0.00000002
     atom    2 type  1   force =    -0.00000002   -0.00000002   -0.00000002
     atom    3 type  1   force =     0.00000000    0.00000000   -0.00000000

     Total force =     0.000000     Total SCF correction =     0.000000
     SCF correction compared to forces is large: reduce conv_thr to get better values


     Computing stress (Cartesian axis) and pressure

          total   stress  (Ry/bohr**3)                   (kbar)     P=   -0.00
  -0.00000001   0.00000009   0.00000009         -0.00      0.01      0.01
   0.00000009  -0.00000001   0.00000009          0.01     -0.00      0.01
   0.00000009   0.00000009  -0.00000001          0.01      0.01     -0.00


     bfgs converged in   8 scf cycles and   7 bfgs steps
     (criteria: energy <  1.0E-04 Ry, force <  1.0E-03Ry/Bohr, cell <  5.0E-02kbar)

     End of BFGS Geometry Optimization

     Final enthalpy =    -285.3193380952 Ry
Begin final coordinates
     new unit-cell volume =    723.20517 a.u.^3 (   107.16795 Ang^3 )
     density =      1.06867 g/cm^3

CELL_PARAMETERS (alat= 17.00000000)
   0.387549497   0.678096388   0.678096388
   0.678096388   0.387549497   0.678096388
   0.678096388   0.678096388   0.387549497

ATOMIC_POSITIONS (crystal)
Na       0.722221842   0.722221842   0.722221842
Na       0.277778158   0.277778158   0.277778158
Na       0.500000000   0.500000000   0.500000000
End final coordinates



     A final scf calculation at the relaxed structure.
     The G-vectors are recalculated for the final unit cell
     Results may differ from those at the preceding step.

     Parallelization info
     --------------------
     sticks:   dense  smooth     PW     G-vecs:    dense   smooth      PW
     Min         190      96     32                 4359     1543     298
     Max         191      97     33                 4360     1544     299
     Sum        3049    1539    517                69751    24699    4773



     bravais-lattice index     =            0
     lattice parameter (alat)  =      17.0000  a.u.
     unit-cell volume          =     723.2052 (a.u.)^3
     number of atoms/cell      =            3
     number of atomic types    =            1
     number of electrons       =        27.00
     number of Kohn-Sham states=           18
     kinetic-energy cutoff     =      40.0000  Ry
     charge density cutoff     =     320.0000  Ry
     convergence threshold     =      1.0E-12
     mixing beta               =       0.7000
     number of iterations used =            8  plain     mixing
     Exchange-correlation      = SLA  PW   PBE  PBE ( 1  4  3  4 0 0)

     celldm(1)=  17.000000  celldm(2)=   0.000000  celldm(3)=   0.000000
     celldm(4)=   0.000000  celldm(5)=   0.000000  celldm(6)=   0.000000

     crystal axes: (cart. coord. in units of alat)
               a(1) = (   0.387549   0.678096   0.678096 )  
               a(2) = (   0.678096   0.387549   0.678096 )  
               a(3) = (   0.678096   0.678096   0.387549 )  

     reciprocal axes: (cart. coord. in units 2 pi/alat)
               b(1) = ( -2.103364  1.338421  1.338421 )  
               b(2) = (  1.338421 -2.103364  1.338421 )  
               b(3) = (  1.338421  1.338421 -2.103364 )  


     PseudoPot. # 1 for Na read from file:
     /home/s1333534/quantum_espresso/qe-6.1/pseudo/Na_pbe_v1.uspp.F.UPF
     MD5 check sum: 76a99c7e9422403d3e93cbc85ab7bccb
     Pseudo is Ultrasoft, Zval =  9.0
     Generated by new atomic code, or converted to UPF format
     Using radial grid of  819 points,  5 beta functions with: 
                l(1) =   0
                l(2) =   0
                l(3) =   1
                l(4) =   1
                l(5) =   2
     Q(r) pseudized with  8 coefficients,  rinner =    1.250   1.250   1.250
                                                       1.250   1.250

     atomic species   valence    mass     pseudopotential
        Na             9.00    22.99000     Na( 1.00)

     12 Sym. Ops., with inversion, found



   Cartesian axes

     site n.     atom                  positions (alat units)
         1           Na  tau(   1) = (   1.2593688   1.2593688   1.2593688  )
         2           Na  tau(   2) = (   0.4843735   0.4843735   0.4843735  )
         3           Na  tau(   3) = (   0.8718711   0.8718711   0.8718711  )

     number of k points=   770  Marzari-Vanderbilt smearing, width (Ry)=  0.0200

     Number of k-points >= 100: set verbosity='high' to print them.

     Dense  grid:    69751 G-vectors     FFT dimensions: ( 108, 108, 108)

     Smooth grid:    24699 G-vectors     FFT dimensions: (  72,  72,  72)

     Estimated max dynamical RAM per process >      18.32MB

     Estimated total allocated dynamical RAM >    1172.66MB

     Initial potential from superposition of free atoms

     starting charge   26.98113, renormalised to   27.00000
     Starting wfc are   15 randomized atomic wfcs +    3 random wfc

     Writing output data file na.9r.save

     total cpu time spent up to now is     4476.4 secs

     per-process dynamical memory:    36.1 Mb

     Self-consistent Calculation

     iteration #  1     ecut=    40.00 Ry     beta=0.70
     Davidson diagonalization with overlap
     c_bands:  1 eigenvalues not converged
     c_bands:  1 eigenvalues not converged
     c_bands:  1 eigenvalues not converged
     c_bands:  1 eigenvalues not converged
     ethr =  1.00E-06,  avg # of iterations = 13.9

     total cpu time spent up to now is     4563.4 secs

     total energy              =    -285.31914767 Ry
     Harris-Foulkes estimate   =    -285.31983892 Ry
     estimated scf accuracy    <       0.00267551 Ry

     iteration #  2     ecut=    40.00 Ry     beta=0.70
     Davidson diagonalization with overlap
     ethr =  9.91E-06,  avg # of iterations =  2.0

     total cpu time spent up to now is     4601.1 secs

     total energy              =    -285.31946385 Ry
     Harris-Foulkes estimate   =    -285.31953412 Ry
     estimated scf accuracy    <       0.00030097 Ry

     iteration #  3     ecut=    40.00 Ry     beta=0.70
     Davidson diagonalization with overlap
     ethr =  1.11E-06,  avg # of iterations =  2.0

     total cpu time spent up to now is     4640.2 secs

     total energy              =    -285.31949492 Ry
     Harris-Foulkes estimate   =    -285.31949921 Ry
     estimated scf accuracy    <       0.00001938 Ry

     iteration #  4     ecut=    40.00 Ry     beta=0.70
     Davidson diagonalization with overlap
     ethr =  7.18E-08,  avg # of iterations =  1.8

     total cpu time spent up to now is     4673.0 secs

     total energy              =    -285.31949654 Ry
     Harris-Foulkes estimate   =    -285.31949695 Ry
     estimated scf accuracy    <       0.00000145 Ry

     iteration #  5     ecut=    40.00 Ry     beta=0.70
     Davidson diagonalization with overlap
     ethr =  5.35E-09,  avg # of iterations =  2.0

     total cpu time spent up to now is     4709.4 secs

     total energy              =    -285.31949698 Ry
     Harris-Foulkes estimate   =    -285.31949700 Ry
     estimated scf accuracy    <       0.00000015 Ry

     iteration #  6     ecut=    40.00 Ry     beta=0.70
     Davidson diagonalization with overlap
     ethr =  5.64E-10,  avg # of iterations =  1.8

     total cpu time spent up to now is     4742.5 secs

     total energy              =    -285.31949700 Ry
     Harris-Foulkes estimate   =    -285.31949700 Ry
     estimated scf accuracy    <          1.0E-09 Ry

     iteration #  7     ecut=    40.00 Ry     beta=0.70
     Davidson diagonalization with overlap
     ethr =  3.81E-12,  avg # of iterations =  3.0

     total cpu time spent up to now is     4784.5 secs

     total energy              =    -285.31949700 Ry
     Harris-Foulkes estimate   =    -285.31949700 Ry
     estimated scf accuracy    <          2.3E-11 Ry

     iteration #  8     ecut=    40.00 Ry     beta=0.70
     Davidson diagonalization with overlap
     ethr =  1.00E-13,  avg # of iterations =  1.9

     total cpu time spent up to now is     4817.2 secs

     total energy              =    -285.31949700 Ry
     Harris-Foulkes estimate   =    -285.31949700 Ry
     estimated scf accuracy    <          4.3E-12 Ry

     iteration #  9     ecut=    40.00 Ry     beta=0.70
     Davidson diagonalization with overlap
     ethr =  1.00E-13,  avg # of iterations =  1.0

     total cpu time spent up to now is     4848.9 secs

     End of self-consistent calculation

     Number of k-points >= 100: set verbosity='high' to print the bands.

     the Fermi energy is     1.7623 ev

!    total energy              =    -285.31949700 Ry
     Harris-Foulkes estimate   =    -285.31949700 Ry
     estimated scf accuracy    <          1.3E-13 Ry

     The total energy is the sum of the following terms:

     one-electron contribution =    -262.01393605 Ry
     hartree contribution      =     132.28305680 Ry
     xc contribution           =     -42.82001306 Ry
     ewald contribution        =    -112.76847380 Ry
     smearing contrib. (-TS)   =      -0.00013089 Ry

     convergence has been achieved in   9 iterations

     Forces acting on atoms (cartesian axes, Ry/au):

     atom    1 type  1   force =     0.00000186    0.00000186    0.00000186
     atom    2 type  1   force =    -0.00000186   -0.00000186   -0.00000186
     atom    3 type  1   force =     0.00000000   -0.00000000    0.00000000

     Total force =     0.000005     Total SCF correction =     0.000002
     SCF correction compared to forces is large: reduce conv_thr to get better values


     Computing stress (Cartesian axis) and pressure

          total   stress  (Ry/bohr**3)                   (kbar)     P=    0.19
   0.00000126   0.00000011   0.00000011          0.19      0.02      0.02
   0.00000011   0.00000126   0.00000011          0.02      0.19      0.02
   0.00000011   0.00000011   0.00000126          0.02      0.02      0.19


     Writing output data file na.9r.save

     init_run     :     24.06s CPU     24.42s WALL (       2 calls)
     electrons    :   4721.95s CPU   4772.26s WALL (       9 calls)
     update_pot   :      5.14s CPU      5.40s WALL (       7 calls)
     forces       :      6.12s CPU      6.18s WALL (       9 calls)
     stress       :     18.38s CPU     18.46s WALL (       9 calls)

     Called by init_run:
     wfcinit      :     22.10s CPU     22.37s WALL (       2 calls)
     potinit      :      0.63s CPU      0.65s WALL (       2 calls)

     Called by electrons:
     c_bands      :   3886.19s CPU   3926.52s WALL (     134 calls)
     sum_band     :    806.89s CPU    815.58s WALL (     134 calls)
     v_of_rho     :     19.37s CPU     20.00s WALL (     142 calls)
     newd         :      5.89s CPU      5.99s WALL (     142 calls)
     mix_rho      :      1.76s CPU      1.89s WALL (     134 calls)

     Called by c_bands:
     init_us_2    :     17.08s CPU     17.30s WALL (   55584 calls)
     cegterg      :   3662.40s CPU   3701.15s WALL (   25862 calls)

     Called by sum_band:
     sum_band:bec :      1.07s CPU      1.09s WALL (   25862 calls)
     addusdens    :      6.01s CPU      6.10s WALL (     134 calls)

     Called by *egterg:
     h_psi        :   3456.52s CPU   3492.06s WALL (   73001 calls)
     s_psi        :     14.47s CPU     14.94s WALL (   73001 calls)
     g_psi        :      2.16s CPU      2.19s WALL (   46753 calls)
     cdiaghg      :    116.18s CPU    117.31s WALL (   71071 calls)

     Called by h_psi:
     h_psi:pot    :   3453.63s CPU   3489.04s WALL (   73001 calls)
     h_psi:calbec :     31.26s CPU     32.02s WALL (   73001 calls)
     vloc_psi     :   3405.93s CPU   3440.16s WALL (   73001 calls)
     add_vuspsi   :     15.61s CPU     16.05s WALL (   73001 calls)

     General routines
     calbec       :     46.36s CPU     47.40s WALL (  107548 calls)
     fft          :     12.37s CPU     13.41s WALL (    2319 calls)
     ffts         :      0.57s CPU      0.62s WALL (     276 calls)
     fftw         :   3561.98s CPU   3598.64s WALL ( 2663366 calls)
     interpolate  :      2.09s CPU      2.26s WALL (     276 calls)
     davcio       :      0.02s CPU      0.31s WALL (     386 calls)

     Parallel routines
     fft_scatter  :    822.00s CPU    838.31s WALL ( 2665961 calls)

     PWSCF        :     1h20m CPU        1h20m WALL


   This run was terminated on:   9:23:40  14Feb2018            

=------------------------------------------------------------------------------=
   JOB DONE.
=------------------------------------------------------------------------------=
