
     Program PWSCF v.6.1 (svn rev. 13369) starts on  4Mar2018 at  9: 1: 8 

     This program is part of the open-source Quantum ESPRESSO suite
     for quantum simulation of materials; please cite
         "P. Giannozzi et al., J. Phys.:Condens. Matter 21 395502 (2009);
          URL http://www.quantum-espresso.org", 
     in publications or presentations arising from this work. More details at
     http://www.quantum-espresso.org/quote

     Parallel version (MPI), running on    64 processors
     K-points division:     npool     =       4
     R & G space division:  proc/nbgrp/npool/nimage =      16
     Waiting for input...
     Reading input from standard input

     Current dimensions of program PWSCF are:
     Max number of different atomic species (ntypx) = 10
     Max number of k-points (npk) =  80000
     Max angular momentum in pseudopotentials (lmaxx) =  3

     Subspace diagonalization in iterative solution of the eigenvalue problem:
     a serial algorithm will be used


     Parallelization info
     --------------------
     sticks:   dense  smooth     PW     G-vecs:    dense   smooth      PW
     Min         180      90     29                 4007     1420     274
     Max         181      91     30                 4009     1421     277
     Sum        2893    1447    473                64127    22723    4407



     bravais-lattice index     =           -5
     lattice parameter (alat)  =      17.0000  a.u.
     unit-cell volume          =     662.3628 (a.u.)^3
     number of atoms/cell      =            3
     number of atomic types    =            1
     number of electrons       =        27.00
     number of Kohn-Sham states=           18
     kinetic-energy cutoff     =      40.0000  Ry
     charge density cutoff     =     320.0000  Ry
     convergence threshold     =      1.0E-10
     mixing beta               =       0.7000
     number of iterations used =            8  plain     mixing
     Exchange-correlation      = SLA  PW   PBE  PBE ( 1  4  3  4 0 0)
     nstep                     =           50


     celldm(1)=  17.000000  celldm(2)=   0.000000  celldm(3)=   0.000000
     celldm(4)=   0.920000  celldm(5)=   0.000000  celldm(6)=   0.000000

     crystal axes: (cart. coord. in units of alat)
               a(1) = (   0.373182   0.656024   0.656024 )  
               a(2) = (   0.656024   0.373182   0.656024 )  
               a(3) = (   0.656024   0.656024   0.373182 )  

     reciprocal axes: (cart. coord. in units 2 pi/alat)
               b(1) = ( -2.159226  1.376308  1.376308 )  
               b(2) = (  1.376308 -2.159226  1.376308 )  
               b(3) = (  1.376308  1.376308 -2.159226 )  


     PseudoPot. # 1 for Na read from file:
     /home/s1333534/quantum_espresso/qe-6.1/pseudo/Na_pbe_v1.uspp.F.UPF
     MD5 check sum: 76a99c7e9422403d3e93cbc85ab7bccb
     Pseudo is Ultrasoft, Zval =  9.0
     Generated by new atomic code, or converted to UPF format
     Using radial grid of  819 points,  5 beta functions with: 
                l(1) =   0
                l(2) =   0
                l(3) =   1
                l(4) =   1
                l(5) =   2
     Q(r) pseudized with  8 coefficients,  rinner =    1.250   1.250   1.250
                                                       1.250   1.250

     atomic species   valence    mass     pseudopotential
        Na             9.00    22.99000     Na( 1.00)

     12 Sym. Ops., with inversion, found



   Cartesian axes

     site n.     atom                  positions (alat units)
         1           Na  tau(   1) = (   1.2171236   1.2171236   1.2171236  )
         2           Na  tau(   2) = (   0.4681063   0.4681063   0.4681063  )
         3           Na  tau(   3) = (   0.8426150   0.8426150   0.8426150  )

     number of k points=   770  Marzari-Vanderbilt smearing, width (Ry)=  0.0200

     Number of k-points >= 100: set verbosity='high' to print them.

     Dense  grid:    64127 G-vectors     FFT dimensions: ( 100, 100, 100)

     Smooth grid:    22723 G-vectors     FFT dimensions: (  72,  72,  72)

     Estimated max dynamical RAM per process >      16.43MB

     Estimated total allocated dynamical RAM >    1051.57MB

     Initial potential from superposition of free atoms

     starting charge   26.98113, renormalised to   27.00000
     Starting wfc are   15 randomized atomic wfcs +    3 random wfc

     total cpu time spent up to now is       12.2 secs

     per-process dynamical memory:    27.0 Mb

     Self-consistent Calculation

     iteration #  1     ecut=    40.00 Ry     beta=0.70
     Davidson diagonalization with overlap
     ethr =  1.00E-02,  avg # of iterations =  5.5

     Threshold (ethr) on eigenvalues was too large:
     Diagonalizing with lowered threshold

     Davidson diagonalization with overlap
     ethr =  9.94E-06,  avg # of iterations =  7.4

     total cpu time spent up to now is      103.7 secs

     total energy              =    -285.31611804 Ry
     Harris-Foulkes estimate   =    -285.31691275 Ry
     estimated scf accuracy    <       0.00278138 Ry

     iteration #  2     ecut=    40.00 Ry     beta=0.70
     Davidson diagonalization with overlap
     ethr =  1.03E-05,  avg # of iterations =  2.0

     total cpu time spent up to now is      140.0 secs

     total energy              =    -285.31642367 Ry
     Harris-Foulkes estimate   =    -285.31648847 Ry
     estimated scf accuracy    <       0.00029290 Ry

     iteration #  3     ecut=    40.00 Ry     beta=0.70
     Davidson diagonalization with overlap
     ethr =  1.08E-06,  avg # of iterations =  2.0

     total cpu time spent up to now is      179.1 secs

     total energy              =    -285.31645236 Ry
     Harris-Foulkes estimate   =    -285.31645641 Ry
     estimated scf accuracy    <       0.00001799 Ry

     iteration #  4     ecut=    40.00 Ry     beta=0.70
     Davidson diagonalization with overlap
     ethr =  6.66E-08,  avg # of iterations =  2.0

     total cpu time spent up to now is      214.1 secs

     total energy              =    -285.31645427 Ry
     Harris-Foulkes estimate   =    -285.31645415 Ry
     estimated scf accuracy    <       0.00000006 Ry

     iteration #  5     ecut=    40.00 Ry     beta=0.70
     Davidson diagonalization with overlap
     ethr =  2.37E-10,  avg # of iterations =  3.3

     total cpu time spent up to now is      254.5 secs

     total energy              =    -285.31645434 Ry
     Harris-Foulkes estimate   =    -285.31645441 Ry
     estimated scf accuracy    <       0.00000026 Ry

     iteration #  6     ecut=    40.00 Ry     beta=0.70
     Davidson diagonalization with overlap
     ethr =  2.37E-10,  avg # of iterations =  1.3

     total cpu time spent up to now is      286.0 secs

     total energy              =    -285.31645438 Ry
     Harris-Foulkes estimate   =    -285.31645438 Ry
     estimated scf accuracy    <          1.7E-09 Ry

     iteration #  7     ecut=    40.00 Ry     beta=0.70
     Davidson diagonalization with overlap
     ethr =  6.46E-12,  avg # of iterations =  2.0

     total cpu time spent up to now is      318.0 secs

     total energy              =    -285.31645438 Ry
     Harris-Foulkes estimate   =    -285.31645438 Ry
     estimated scf accuracy    <          2.5E-10 Ry

     iteration #  8     ecut=    40.00 Ry     beta=0.70
     Davidson diagonalization with overlap
     ethr =  9.24E-13,  avg # of iterations =  1.9

     total cpu time spent up to now is      351.0 secs

     End of self-consistent calculation

     Number of k-points >= 100: set verbosity='high' to print the bands.

     the Fermi energy is     2.1616 ev

!    total energy              =    -285.31645438 Ry
     Harris-Foulkes estimate   =    -285.31645438 Ry
     estimated scf accuracy    <          6.2E-13 Ry

     The total energy is the sum of the following terms:

     one-electron contribution =    -256.14327683 Ry
     hartree contribution      =     129.80226548 Ry
     xc contribution           =     -42.85565928 Ry
     ewald contribution        =    -116.11964061 Ry
     smearing contrib. (-TS)   =      -0.00014315 Ry

     convergence has been achieved in   8 iterations

     Forces acting on atoms (cartesian axes, Ry/au):

     atom    1 type  1   force =    -0.00000461   -0.00000461   -0.00000461
     atom    2 type  1   force =     0.00000461    0.00000461    0.00000461
     atom    3 type  1   force =    -0.00000000   -0.00000000    0.00000000

     Total force =     0.000011     Total SCF correction =     0.000000


     Computing stress (Cartesian axis) and pressure

          total   stress  (Ry/bohr**3)                   (kbar)     P=    9.02
   0.00006132   0.00000277   0.00000277          9.02      0.41      0.41
   0.00000277   0.00006132   0.00000277          0.41      9.02      0.41
   0.00000277   0.00000277   0.00006132          0.41      0.41      9.02


     BFGS Geometry Optimization

     number of scf cycles    =   1
     number of bfgs steps    =   0

     enthalpy new            =    -285.3097004049 Ry

     new trust radius        =       0.0065984359 bohr
     new conv_thr            =            1.0E-10 Ry

     new unit-cell volume =    664.90589 a.u.^3 (    98.52889 Ang^3 )
     density =      1.16237 g/cm^3

CELL_PARAMETERS (alat= 17.00000000)
   0.373749299   0.656933964   0.656933964
   0.656933964   0.373749299   0.656933964
   0.656933964   0.656933964   0.373749299

ATOMIC_POSITIONS (crystal)
Na       0.722229839   0.722229839   0.722229839
Na       0.277770161   0.277770161   0.277770161
Na       0.500000000   0.500000000   0.500000000



     Writing output data file na.9r.save
     NEW-OLD atomic charge density approx. for the potential
     extrapolated charge   27.10320, renormalised to   27.00000

     total cpu time spent up to now is      357.7 secs

     per-process dynamical memory:    35.2 Mb

     Self-consistent Calculation

     iteration #  1     ecut=    40.00 Ry     beta=0.70
     Davidson diagonalization with overlap
     ethr =  1.00E-06,  avg # of iterations =  3.0

     total cpu time spent up to now is      404.4 secs

     total energy              =    -285.31425331 Ry
     Harris-Foulkes estimate   =    -284.53587333 Ry
     estimated scf accuracy    <       0.00131509 Ry

     iteration #  2     ecut=    40.00 Ry     beta=0.70
     Davidson diagonalization with overlap
     ethr =  4.87E-06,  avg # of iterations =  3.0

     total cpu time spent up to now is      453.1 secs

     total energy              =    -285.31665345 Ry
     Harris-Foulkes estimate   =    -285.31762095 Ry
     estimated scf accuracy    <       0.00220449 Ry

     iteration #  3     ecut=    40.00 Ry     beta=0.70
     Davidson diagonalization with overlap
     ethr =  4.87E-06,  avg # of iterations =  2.0

     total cpu time spent up to now is      489.0 secs

     total energy              =    -285.31664826 Ry
     Harris-Foulkes estimate   =    -285.31679932 Ry
     estimated scf accuracy    <       0.00042509 Ry

     iteration #  4     ecut=    40.00 Ry     beta=0.70
     Davidson diagonalization with overlap
     ethr =  1.57E-06,  avg # of iterations =  1.0

     total cpu time spent up to now is      519.9 secs

     total energy              =    -285.31666788 Ry
     Harris-Foulkes estimate   =    -285.31666629 Ry
     estimated scf accuracy    <       0.00013627 Ry

     iteration #  5     ecut=    40.00 Ry     beta=0.70
     Davidson diagonalization with overlap
     ethr =  5.05E-07,  avg # of iterations =  1.0

     total cpu time spent up to now is      550.4 secs

     total energy              =    -285.31663179 Ry
     Harris-Foulkes estimate   =    -285.31666899 Ry
     estimated scf accuracy    <       0.00014209 Ry

     iteration #  6     ecut=    40.00 Ry     beta=0.70
     Davidson diagonalization with overlap
     ethr =  5.05E-07,  avg # of iterations =  1.0

     total cpu time spent up to now is      581.8 secs

     total energy              =    -285.31662172 Ry
     Harris-Foulkes estimate   =    -285.31663548 Ry
     estimated scf accuracy    <       0.00006491 Ry

     iteration #  7     ecut=    40.00 Ry     beta=0.70
     Davidson diagonalization with overlap
     ethr =  2.40E-07,  avg # of iterations =  1.0

     total cpu time spent up to now is      612.3 secs

     total energy              =    -285.31660753 Ry
     Harris-Foulkes estimate   =    -285.31662294 Ry
     estimated scf accuracy    <       0.00003503 Ry

     iteration #  8     ecut=    40.00 Ry     beta=0.70
     Davidson diagonalization with overlap
     ethr =  1.30E-07,  avg # of iterations =  1.0

     total cpu time spent up to now is      643.4 secs

     total energy              =    -285.31660578 Ry
     Harris-Foulkes estimate   =    -285.31660966 Ry
     estimated scf accuracy    <       0.00000717 Ry

     iteration #  9     ecut=    40.00 Ry     beta=0.70
     Davidson diagonalization with overlap
     ethr =  2.66E-08,  avg # of iterations =  2.0

     total cpu time spent up to now is      679.8 secs

     total energy              =    -285.31660686 Ry
     Harris-Foulkes estimate   =    -285.31660683 Ry
     estimated scf accuracy    <       0.00000047 Ry

     iteration # 10     ecut=    40.00 Ry     beta=0.70
     Davidson diagonalization with overlap
     ethr =  1.75E-09,  avg # of iterations =  1.0

     total cpu time spent up to now is      710.4 secs

     total energy              =    -285.31660650 Ry
     Harris-Foulkes estimate   =    -285.31660687 Ry
     estimated scf accuracy    <       0.00000054 Ry

     iteration # 11     ecut=    40.00 Ry     beta=0.70
     Davidson diagonalization with overlap
     ethr =  1.75E-09,  avg # of iterations =  2.0

     total cpu time spent up to now is      749.2 secs

     total energy              =    -285.31660662 Ry
     Harris-Foulkes estimate   =    -285.31660662 Ry
     estimated scf accuracy    <          6.2E-10 Ry

     iteration # 12     ecut=    40.00 Ry     beta=0.70
     Davidson diagonalization with overlap
     ethr =  2.28E-12,  avg # of iterations =  2.9

     total cpu time spent up to now is      789.0 secs

     total energy              =    -285.31660662 Ry
     Harris-Foulkes estimate   =    -285.31660662 Ry
     estimated scf accuracy    <          8.2E-10 Ry

     iteration # 13     ecut=    40.00 Ry     beta=0.70
     Davidson diagonalization with overlap
     ethr =  2.28E-12,  avg # of iterations =  1.0

     total cpu time spent up to now is      820.4 secs

     total energy              =    -285.31660662 Ry
     Harris-Foulkes estimate   =    -285.31660662 Ry
     estimated scf accuracy    <          7.9E-10 Ry

     iteration # 14     ecut=    40.00 Ry     beta=0.70
     Davidson diagonalization with overlap
     ethr =  2.28E-12,  avg # of iterations =  1.0

     total cpu time spent up to now is      851.1 secs

     total energy              =    -285.31660662 Ry
     Harris-Foulkes estimate   =    -285.31660662 Ry
     estimated scf accuracy    <          6.6E-10 Ry

     iteration # 15     ecut=    40.00 Ry     beta=0.70
     Davidson diagonalization with overlap
     ethr =  2.28E-12,  avg # of iterations =  2.0

     total cpu time spent up to now is      890.1 secs

     total energy              =    -285.31660662 Ry
     Harris-Foulkes estimate   =    -285.31660662 Ry
     estimated scf accuracy    <          5.7E-10 Ry

     iteration # 16     ecut=    40.00 Ry     beta=0.70
     Davidson diagonalization with overlap
     ethr =  2.11E-12,  avg # of iterations =  1.0

     total cpu time spent up to now is      920.5 secs

     total energy              =    -285.31660662 Ry
     Harris-Foulkes estimate   =    -285.31660662 Ry
     estimated scf accuracy    <          5.5E-10 Ry

     iteration # 17     ecut=    40.00 Ry     beta=0.70
     Davidson diagonalization with overlap
     ethr =  2.02E-12,  avg # of iterations =  1.0

     total cpu time spent up to now is      951.3 secs

     total energy              =    -285.31660662 Ry
     Harris-Foulkes estimate   =    -285.31660662 Ry
     estimated scf accuracy    <          3.8E-10 Ry

     iteration # 18     ecut=    40.00 Ry     beta=0.70
     Davidson diagonalization with overlap
     ethr =  1.41E-12,  avg # of iterations =  2.0

     total cpu time spent up to now is      989.8 secs

     total energy              =    -285.31660662 Ry
     Harris-Foulkes estimate   =    -285.31660662 Ry
     estimated scf accuracy    <          1.2E-10 Ry

     iteration # 19     ecut=    40.00 Ry     beta=0.70
     Davidson diagonalization with overlap
     ethr =  4.26E-13,  avg # of iterations =  2.0

     total cpu time spent up to now is     1028.0 secs

     End of self-consistent calculation

     Number of k-points >= 100: set verbosity='high' to print the bands.

     the Fermi energy is     2.1433 ev

!    total energy              =    -285.31660662 Ry
     Harris-Foulkes estimate   =    -285.31660662 Ry
     estimated scf accuracy    <          1.4E-12 Ry

     The total energy is the sum of the following terms:

     one-electron contribution =    -256.40243131 Ry
     hartree contribution      =     129.91147248 Ry
     xc contribution           =     -42.85404393 Ry
     ewald contribution        =    -115.97146115 Ry
     smearing contrib. (-TS)   =      -0.00014270 Ry

     convergence has been achieved in  19 iterations

     Forces acting on atoms (cartesian axes, Ry/au):

     atom    1 type  1   force =    -0.00000387   -0.00000387   -0.00000387
     atom    2 type  1   force =     0.00000387    0.00000387    0.00000387
     atom    3 type  1   force =    -0.00000000   -0.00000000    0.00000000

     Total force =     0.000009     Total SCF correction =     0.000000


     Computing stress (Cartesian axis) and pressure

          total   stress  (Ry/bohr**3)                   (kbar)     P=    8.51
   0.00005782   0.00000266   0.00000266          8.51      0.39      0.39
   0.00000266   0.00005782   0.00000266          0.39      8.51      0.39
   0.00000266   0.00000266   0.00005782          0.39      0.39      8.51


     number of scf cycles    =   2
     number of bfgs steps    =   1

     enthalpy old            =    -285.3097004049 Ry
     enthalpy new            =    -285.3098267099 Ry

     CASE: enthalpy_new < enthalpy_old


     WARNING: bfgs curvature condition failed, Theta= 0.856
     new trust radius        =       0.0072628058 bohr
     new conv_thr            =            1.0E-12 Ry

     new unit-cell volume =    667.71045 a.u.^3 (    98.94448 Ang^3 )
     density =      1.15749 g/cm^3

CELL_PARAMETERS (alat= 17.00000000)
   0.374375856   0.657936179   0.657936179
   0.657936179   0.374375856   0.657936179
   0.657936179   0.657936179   0.374375856

ATOMIC_POSITIONS (crystal)
Na       0.722229674   0.722229674   0.722229674
Na       0.277770326   0.277770326   0.277770326
Na       0.500000000   0.500000000   0.500000000



     Writing output data file na.9r.save
     NEW-OLD atomic charge density approx. for the potential
     extrapolated charge   27.11333, renormalised to   27.00000

     total cpu time spent up to now is     1034.8 secs

     per-process dynamical memory:    35.2 Mb

     Self-consistent Calculation

     iteration #  1     ecut=    40.00 Ry     beta=0.70
     Davidson diagonalization with overlap
     ethr =  1.00E-06,  avg # of iterations =  3.0

     total cpu time spent up to now is     1081.8 secs

     total energy              =    -285.31392104 Ry
     Harris-Foulkes estimate   =    -284.45831504 Ry
     estimated scf accuracy    <       0.00158870 Ry

     iteration #  2     ecut=    40.00 Ry     beta=0.70
     Davidson diagonalization with overlap
     ethr =  5.88E-06,  avg # of iterations =  3.0

     total cpu time spent up to now is     1130.6 secs

     total energy              =    -285.31682119 Ry
     Harris-Foulkes estimate   =    -285.31798999 Ry
     estimated scf accuracy    <       0.00266319 Ry

     iteration #  3     ecut=    40.00 Ry     beta=0.70
     Davidson diagonalization with overlap
     ethr =  5.88E-06,  avg # of iterations =  2.0

     total cpu time spent up to now is     1166.6 secs

     total energy              =    -285.31681411 Ry
     Harris-Foulkes estimate   =    -285.31699728 Ry
     estimated scf accuracy    <       0.00051388 Ry

     iteration #  4     ecut=    40.00 Ry     beta=0.70
     Davidson diagonalization with overlap
     ethr =  1.90E-06,  avg # of iterations =  1.0

     total cpu time spent up to now is     1197.4 secs

     total energy              =    -285.31683938 Ry
     Harris-Foulkes estimate   =    -285.31683601 Ry
     estimated scf accuracy    <       0.00016393 Ry

     iteration #  5     ecut=    40.00 Ry     beta=0.70
     Davidson diagonalization with overlap
     ethr =  6.07E-07,  avg # of iterations =  1.0

     total cpu time spent up to now is     1227.8 secs

     total energy              =    -285.31679478 Ry
     Harris-Foulkes estimate   =    -285.31684072 Ry
     estimated scf accuracy    <       0.00017416 Ry

     iteration #  6     ecut=    40.00 Ry     beta=0.70
     Davidson diagonalization with overlap
     ethr =  6.07E-07,  avg # of iterations =  1.0

     total cpu time spent up to now is     1258.7 secs

     total energy              =    -285.31678353 Ry
     Harris-Foulkes estimate   =    -285.31679935 Ry
     estimated scf accuracy    <       0.00007898 Ry

     iteration #  7     ecut=    40.00 Ry     beta=0.70
     Davidson diagonalization with overlap
     ethr =  2.93E-07,  avg # of iterations =  1.0

     total cpu time spent up to now is     1289.8 secs

     total energy              =    -285.31676613 Ry
     Harris-Foulkes estimate   =    -285.31678491 Ry
     estimated scf accuracy    <       0.00004423 Ry

     iteration #  8     ecut=    40.00 Ry     beta=0.70
     Davidson diagonalization with overlap
     ethr =  1.64E-07,  avg # of iterations =  1.0

     total cpu time spent up to now is     1319.9 secs

     total energy              =    -285.31676307 Ry
     Harris-Foulkes estimate   =    -285.31676857 Ry
     estimated scf accuracy    <       0.00001008 Ry

     iteration #  9     ecut=    40.00 Ry     beta=0.70
     Davidson diagonalization with overlap
     ethr =  3.73E-08,  avg # of iterations =  2.0

     total cpu time spent up to now is     1357.2 secs

     total energy              =    -285.31676451 Ry
     Harris-Foulkes estimate   =    -285.31676453 Ry
     estimated scf accuracy    <       0.00000063 Ry

     iteration # 10     ecut=    40.00 Ry     beta=0.70
     Davidson diagonalization with overlap
     ethr =  2.33E-09,  avg # of iterations =  1.0

     total cpu time spent up to now is     1387.5 secs

     total energy              =    -285.31676411 Ry
     Harris-Foulkes estimate   =    -285.31676451 Ry
     estimated scf accuracy    <       0.00000059 Ry

     iteration # 11     ecut=    40.00 Ry     beta=0.70
     Davidson diagonalization with overlap
     ethr =  2.17E-09,  avg # of iterations =  2.0

     total cpu time spent up to now is     1426.1 secs

     total energy              =    -285.31676424 Ry
     Harris-Foulkes estimate   =    -285.31676424 Ry
     estimated scf accuracy    <          3.0E-09 Ry

     iteration # 12     ecut=    40.00 Ry     beta=0.70
     Davidson diagonalization with overlap
     ethr =  1.12E-11,  avg # of iterations =  2.3

     total cpu time spent up to now is     1458.2 secs

     total energy              =    -285.31676424 Ry
     Harris-Foulkes estimate   =    -285.31676424 Ry
     estimated scf accuracy    <          3.8E-09 Ry

     iteration # 13     ecut=    40.00 Ry     beta=0.70
     Davidson diagonalization with overlap
     ethr =  1.12E-11,  avg # of iterations =  1.0

     total cpu time spent up to now is     1488.8 secs

     total energy              =    -285.31676424 Ry
     Harris-Foulkes estimate   =    -285.31676424 Ry
     estimated scf accuracy    <          3.8E-09 Ry

     iteration # 14     ecut=    40.00 Ry     beta=0.70
     Davidson diagonalization with overlap
     ethr =  1.12E-11,  avg # of iterations =  1.0

     total cpu time spent up to now is     1519.0 secs

     total energy              =    -285.31676424 Ry
     Harris-Foulkes estimate   =    -285.31676424 Ry
     estimated scf accuracy    <          3.3E-09 Ry

     iteration # 15     ecut=    40.00 Ry     beta=0.70
     Davidson diagonalization with overlap
     ethr =  1.12E-11,  avg # of iterations =  2.0

     total cpu time spent up to now is     1555.4 secs

     total energy              =    -285.31676424 Ry
     Harris-Foulkes estimate   =    -285.31676424 Ry
     estimated scf accuracy    <          5.4E-10 Ry

     iteration # 16     ecut=    40.00 Ry     beta=0.70
     Davidson diagonalization with overlap
     ethr =  2.00E-12,  avg # of iterations =  1.0

     total cpu time spent up to now is     1586.1 secs

     total energy              =    -285.31676424 Ry
     Harris-Foulkes estimate   =    -285.31676424 Ry
     estimated scf accuracy    <          2.5E-10 Ry

     iteration # 17     ecut=    40.00 Ry     beta=0.70
     Davidson diagonalization with overlap
     ethr =  9.31E-13,  avg # of iterations =  1.0

     total cpu time spent up to now is     1617.6 secs

     total energy              =    -285.31676424 Ry
     Harris-Foulkes estimate   =    -285.31676424 Ry
     estimated scf accuracy    <          8.6E-11 Ry

     iteration # 18     ecut=    40.00 Ry     beta=0.70
     Davidson diagonalization with overlap
     ethr =  3.19E-13,  avg # of iterations =  1.9

     total cpu time spent up to now is     1650.9 secs

     total energy              =    -285.31676424 Ry
     Harris-Foulkes estimate   =    -285.31676424 Ry
     estimated scf accuracy    <          3.5E-11 Ry

     iteration # 19     ecut=    40.00 Ry     beta=0.70
     Davidson diagonalization with overlap
     ethr =  1.28E-13,  avg # of iterations =  2.0

     total cpu time spent up to now is     1689.2 secs

     total energy              =    -285.31676424 Ry
     Harris-Foulkes estimate   =    -285.31676424 Ry
     estimated scf accuracy    <          1.7E-11 Ry

     iteration # 20     ecut=    40.00 Ry     beta=0.70
     Davidson diagonalization with overlap
     ethr =  1.00E-13,  avg # of iterations =  1.0

     total cpu time spent up to now is     1719.2 secs

     total energy              =    -285.31676424 Ry
     Harris-Foulkes estimate   =    -285.31676424 Ry
     estimated scf accuracy    <          3.3E-12 Ry

     iteration # 21     ecut=    40.00 Ry     beta=0.70
     Davidson diagonalization with overlap
     ethr =  1.00E-13,  avg # of iterations =  1.0

     total cpu time spent up to now is     1749.2 secs

     End of self-consistent calculation

     Number of k-points >= 100: set verbosity='high' to print the bands.

     the Fermi energy is     2.1234 ev

!    total energy              =    -285.31676424 Ry
     Harris-Foulkes estimate   =    -285.31676424 Ry
     estimated scf accuracy    <          1.1E-13 Ry

     The total energy is the sum of the following terms:

     one-electron contribution =    -256.68673676 Ry
     hartree contribution      =     130.03130907 Ry
     xc contribution           =     -42.85227377 Ry
     ewald contribution        =    -115.80892057 Ry
     smearing contrib. (-TS)   =      -0.00014221 Ry

     convergence has been achieved in  21 iterations

     Forces acting on atoms (cartesian axes, Ry/au):

     atom    1 type  1   force =    -0.00000382   -0.00000382   -0.00000382
     atom    2 type  1   force =     0.00000382    0.00000382    0.00000382
     atom    3 type  1   force =     0.00000000    0.00000000    0.00000000

     Total force =     0.000009     Total SCF correction =     0.000000


     Computing stress (Cartesian axis) and pressure

          total   stress  (Ry/bohr**3)                   (kbar)     P=    7.95
   0.00005403   0.00000254   0.00000254          7.95      0.37      0.37
   0.00000254   0.00005403   0.00000254          0.37      7.95      0.37
   0.00000254   0.00000254   0.00005403          0.37      0.37      7.95


     number of scf cycles    =   3
     number of bfgs steps    =   2

     enthalpy old            =    -285.3098267099 Ry
     enthalpy new            =    -285.3099557339 Ry

     CASE: enthalpy_new < enthalpy_old

     new trust radius        =       0.0109016638 bohr
     new conv_thr            =            1.0E-12 Ry

     new unit-cell volume =    671.93119 a.u.^3 (    99.56993 Ang^3 )
     density =      1.15022 g/cm^3

CELL_PARAMETERS (alat= 17.00000000)
   0.375320317   0.659442980   0.659442980
   0.659442980   0.375320317   0.659442980
   0.659442980   0.659442980   0.375320317

ATOMIC_POSITIONS (crystal)
Na       0.722229412   0.722229412   0.722229412
Na       0.277770588   0.277770588   0.277770588
Na       0.500000000   0.500000000   0.500000000



     Writing output data file na.9r.save
     NEW-OLD atomic charge density approx. for the potential
     extrapolated charge   27.16948, renormalised to   27.00000

     total cpu time spent up to now is     1755.9 secs

     per-process dynamical memory:    35.2 Mb

     Self-consistent Calculation

     iteration #  1     ecut=    40.00 Ry     beta=0.70
     Davidson diagonalization with overlap
     ethr =  1.00E-06,  avg # of iterations =  3.0

     total cpu time spent up to now is     1803.4 secs

     total energy              =    -285.31057154 Ry
     Harris-Foulkes estimate   =    -284.03049442 Ry
     estimated scf accuracy    <       0.00358014 Ry

     iteration #  2     ecut=    40.00 Ry     beta=0.70
     Davidson diagonalization with overlap
     ethr =  1.33E-05,  avg # of iterations =  3.0

     total cpu time spent up to now is     1851.6 secs

     total energy              =    -285.31711450 Ry
     Harris-Foulkes estimate   =    -285.31974878 Ry
     estimated scf accuracy    <       0.00600265 Ry

     iteration #  3     ecut=    40.00 Ry     beta=0.70
     Davidson diagonalization with overlap
     ethr =  1.33E-05,  avg # of iterations =  2.0

     total cpu time spent up to now is     1886.9 secs

     total energy              =    -285.31709424 Ry
     Harris-Foulkes estimate   =    -285.31750965 Ry
     estimated scf accuracy    <       0.00116341 Ry

     iteration #  4     ecut=    40.00 Ry     beta=0.70
     Davidson diagonalization with overlap
     ethr =  4.31E-06,  avg # of iterations =  1.0

     total cpu time spent up to now is     1917.2 secs

     total energy              =    -285.31714971 Ry
     Harris-Foulkes estimate   =    -285.31714391 Ry
     estimated scf accuracy    <       0.00037044 Ry

     iteration #  5     ecut=    40.00 Ry     beta=0.70
     Davidson diagonalization with overlap
     ethr =  1.37E-06,  avg # of iterations =  1.0

     total cpu time spent up to now is     1947.5 secs

     total energy              =    -285.31705150 Ry
     Harris-Foulkes estimate   =    -285.31715276 Ry
     estimated scf accuracy    <       0.00038964 Ry

     iteration #  6     ecut=    40.00 Ry     beta=0.70
     Davidson diagonalization with overlap
     ethr =  1.37E-06,  avg # of iterations =  1.0

     total cpu time spent up to now is     1977.7 secs

     total energy              =    -285.31702517 Ry
     Harris-Foulkes estimate   =    -285.31706146 Ry
     estimated scf accuracy    <       0.00017936 Ry

     iteration #  7     ecut=    40.00 Ry     beta=0.70
     Davidson diagonalization with overlap
     ethr =  6.64E-07,  avg # of iterations =  1.0

     total cpu time spent up to now is     2007.6 secs

     total energy              =    -285.31698560 Ry
     Harris-Foulkes estimate   =    -285.31702829 Ry
     estimated scf accuracy    <       0.00010001 Ry

     iteration #  8     ecut=    40.00 Ry     beta=0.70
     Davidson diagonalization with overlap
     ethr =  3.70E-07,  avg # of iterations =  1.0

     total cpu time spent up to now is     2038.0 secs

     total energy              =    -285.31697901 Ry
     Harris-Foulkes estimate   =    -285.31699121 Ry
     estimated scf accuracy    <       0.00002242 Ry

     iteration #  9     ecut=    40.00 Ry     beta=0.70
     Davidson diagonalization with overlap
     ethr =  8.30E-08,  avg # of iterations =  2.0

     total cpu time spent up to now is     2074.7 secs

     total energy              =    -285.31698217 Ry
     Harris-Foulkes estimate   =    -285.31698225 Ry
     estimated scf accuracy    <       0.00000143 Ry

     iteration # 10     ecut=    40.00 Ry     beta=0.70
     Davidson diagonalization with overlap
     ethr =  5.30E-09,  avg # of iterations =  1.0

     total cpu time spent up to now is     2104.8 secs

     total energy              =    -285.31698132 Ry
     Harris-Foulkes estimate   =    -285.31698218 Ry
     estimated scf accuracy    <       0.00000127 Ry

     iteration # 11     ecut=    40.00 Ry     beta=0.70
     Davidson diagonalization with overlap
     ethr =  4.72E-09,  avg # of iterations =  2.0

     total cpu time spent up to now is     2143.2 secs

     total energy              =    -285.31698160 Ry
     Harris-Foulkes estimate   =    -285.31698159 Ry
     estimated scf accuracy    <          4.9E-09 Ry

     iteration # 12     ecut=    40.00 Ry     beta=0.70
     Davidson diagonalization with overlap
     ethr =  1.80E-11,  avg # of iterations =  2.5

     total cpu time spent up to now is     2176.1 secs

     total energy              =    -285.31698160 Ry
     Harris-Foulkes estimate   =    -285.31698160 Ry
     estimated scf accuracy    <          6.4E-09 Ry

     iteration # 13     ecut=    40.00 Ry     beta=0.70
     Davidson diagonalization with overlap
     ethr =  1.80E-11,  avg # of iterations =  1.0

     total cpu time spent up to now is     2206.4 secs

     total energy              =    -285.31698160 Ry
     Harris-Foulkes estimate   =    -285.31698160 Ry
     estimated scf accuracy    <          6.4E-09 Ry

     iteration # 14     ecut=    40.00 Ry     beta=0.70
     Davidson diagonalization with overlap
     ethr =  1.80E-11,  avg # of iterations =  1.0

     total cpu time spent up to now is     2236.2 secs

     total energy              =    -285.31698159 Ry
     Harris-Foulkes estimate   =    -285.31698160 Ry
     estimated scf accuracy    <          6.5E-09 Ry

     iteration # 15     ecut=    40.00 Ry     beta=0.70
     Davidson diagonalization with overlap
     ethr =  1.80E-11,  avg # of iterations =  2.0

     total cpu time spent up to now is     2275.4 secs

     total energy              =    -285.31698159 Ry
     Harris-Foulkes estimate   =    -285.31698159 Ry
     estimated scf accuracy    <          1.9E-09 Ry

     iteration # 16     ecut=    40.00 Ry     beta=0.70
     Davidson diagonalization with overlap
     ethr =  7.15E-12,  avg # of iterations =  1.0

     total cpu time spent up to now is     2305.4 secs

     total energy              =    -285.31698159 Ry
     Harris-Foulkes estimate   =    -285.31698159 Ry
     estimated scf accuracy    <          1.3E-09 Ry

     iteration # 17     ecut=    40.00 Ry     beta=0.70
     Davidson diagonalization with overlap
     ethr =  4.93E-12,  avg # of iterations =  1.0

     total cpu time spent up to now is     2336.7 secs

     total energy              =    -285.31698159 Ry
     Harris-Foulkes estimate   =    -285.31698159 Ry
     estimated scf accuracy    <          6.8E-10 Ry

     iteration # 18     ecut=    40.00 Ry     beta=0.70
     Davidson diagonalization with overlap
     ethr =  2.51E-12,  avg # of iterations =  1.9

     total cpu time spent up to now is     2368.7 secs

     total energy              =    -285.31698159 Ry
     Harris-Foulkes estimate   =    -285.31698159 Ry
     estimated scf accuracy    <          1.9E-10 Ry

     iteration # 19     ecut=    40.00 Ry     beta=0.70
     Davidson diagonalization with overlap
     ethr =  6.92E-13,  avg # of iterations =  1.0

     total cpu time spent up to now is     2399.1 secs

     total energy              =    -285.31698159 Ry
     Harris-Foulkes estimate   =    -285.31698159 Ry
     estimated scf accuracy    <          1.4E-10 Ry

     iteration # 20     ecut=    40.00 Ry     beta=0.70
     Davidson diagonalization with overlap
     ethr =  5.10E-13,  avg # of iterations =  1.0

     total cpu time spent up to now is     2429.8 secs

     total energy              =    -285.31698159 Ry
     Harris-Foulkes estimate   =    -285.31698159 Ry
     estimated scf accuracy    <          4.3E-11 Ry

     iteration # 21     ecut=    40.00 Ry     beta=0.70
     Davidson diagonalization with overlap
     ethr =  1.58E-13,  avg # of iterations =  1.0

     total cpu time spent up to now is     2460.0 secs

     total energy              =    -285.31698159 Ry
     Harris-Foulkes estimate   =    -285.31698159 Ry
     estimated scf accuracy    <          4.4E-12 Ry

     iteration # 22     ecut=    40.00 Ry     beta=0.70
     Davidson diagonalization with overlap
     ethr =  1.00E-13,  avg # of iterations =  1.0

     total cpu time spent up to now is     2490.6 secs

     End of self-consistent calculation

     Number of k-points >= 100: set verbosity='high' to print the bands.

     the Fermi energy is     2.0937 ev

!    total energy              =    -285.31698159 Ry
     Harris-Foulkes estimate   =    -285.31698159 Ry
     estimated scf accuracy    <          1.3E-14 Ry

     The total energy is the sum of the following terms:

     one-electron contribution =    -257.11168806 Ry
     hartree contribution      =     130.21049126 Ry
     xc contribution           =     -42.84963225 Ry
     ewald contribution        =    -115.56601108 Ry
     smearing contrib. (-TS)   =      -0.00014147 Ry

     convergence has been achieved in  22 iterations

     Forces acting on atoms (cartesian axes, Ry/au):

     atom    1 type  1   force =    -0.00000370   -0.00000370   -0.00000370
     atom    2 type  1   force =     0.00000370    0.00000370    0.00000370
     atom    3 type  1   force =     0.00000000    0.00000000    0.00000000

     Total force =     0.000009     Total SCF correction =     0.000000


     Computing stress (Cartesian axis) and pressure

          total   stress  (Ry/bohr**3)                   (kbar)     P=    7.13
   0.00004844   0.00000236   0.00000236          7.13      0.35      0.35
   0.00000236   0.00004844   0.00000236          0.35      7.13      0.35
   0.00000236   0.00000236   0.00004844          0.35      0.35      7.13


     number of scf cycles    =   4
     number of bfgs steps    =   3

     enthalpy old            =    -285.3099557339 Ry
     enthalpy new            =    -285.3101300491 Ry

     CASE: enthalpy_new < enthalpy_old

     new trust radius        =       0.0163692255 bohr
     new conv_thr            =            1.0E-12 Ry

     new unit-cell volume =    678.29408 a.u.^3 (   100.51281 Ang^3 )
     density =      1.13943 g/cm^3

CELL_PARAMETERS (alat= 17.00000000)
   0.376744701   0.661708964   0.661708964
   0.661708964   0.376744701   0.661708964
   0.661708964   0.661708964   0.376744701

ATOMIC_POSITIONS (crystal)
Na       0.722228998   0.722228998   0.722228998
Na       0.277771002   0.277771002   0.277771002
Na       0.500000000   0.500000000   0.500000000



     Writing output data file na.9r.save
     NEW-OLD atomic charge density approx. for the potential
     extrapolated charge   27.25310, renormalised to   27.00000

     total cpu time spent up to now is     2497.2 secs

     per-process dynamical memory:    35.2 Mb

     Self-consistent Calculation

     iteration #  1     ecut=    40.00 Ry     beta=0.70
     Davidson diagonalization with overlap
     ethr =  1.00E-06,  avg # of iterations =  3.2

     total cpu time spent up to now is     2547.1 secs

     total energy              =    -285.30279887 Ry
     Harris-Foulkes estimate   =    -283.39010429 Ry
     estimated scf accuracy    <       0.00807483 Ry

     iteration #  2     ecut=    40.00 Ry     beta=0.70
     Davidson diagonalization with overlap
     ethr =  2.99E-05,  avg # of iterations =  3.0

     total cpu time spent up to now is     2595.4 secs

     total energy              =    -285.31758065 Ry
     Harris-Foulkes estimate   =    -285.32352316 Ry
     estimated scf accuracy    <       0.01354157 Ry

     iteration #  3     ecut=    40.00 Ry     beta=0.70
     Davidson diagonalization with overlap
     ethr =  2.99E-05,  avg # of iterations =  2.0

     total cpu time spent up to now is     2631.8 secs

     total energy              =    -285.31752051 Ry
     Harris-Foulkes estimate   =    -285.31846625 Ry
     estimated scf accuracy    <       0.00264175 Ry

     iteration #  4     ecut=    40.00 Ry     beta=0.70
     Davidson diagonalization with overlap
     ethr =  9.78E-06,  avg # of iterations =  1.0

     total cpu time spent up to now is     2662.3 secs

     total energy              =    -285.31764636 Ry
     Harris-Foulkes estimate   =    -285.31763356 Ry
     estimated scf accuracy    <       0.00083893 Ry

     iteration #  5     ecut=    40.00 Ry     beta=0.70
     Davidson diagonalization with overlap
     ethr =  3.11E-06,  avg # of iterations =  1.0

     total cpu time spent up to now is     2693.2 secs

     total energy              =    -285.31742864 Ry
     Harris-Foulkes estimate   =    -285.31765329 Ry
     estimated scf accuracy    <       0.00088189 Ry

     iteration #  6     ecut=    40.00 Ry     beta=0.70
     Davidson diagonalization with overlap
     ethr =  3.11E-06,  avg # of iterations =  1.0

     total cpu time spent up to now is     2723.9 secs

     total energy              =    -285.31736660 Ry
     Harris-Foulkes estimate   =    -285.31745031 Ry
     estimated scf accuracy    <       0.00041413 Ry

     iteration #  7     ecut=    40.00 Ry     beta=0.70
     Davidson diagonalization with overlap
     ethr =  1.53E-06,  avg # of iterations =  1.0

     total cpu time spent up to now is     2754.5 secs

     total energy              =    -285.31727569 Ry
     Harris-Foulkes estimate   =    -285.31737366 Ry
     estimated scf accuracy    <       0.00023169 Ry

     iteration #  8     ecut=    40.00 Ry     beta=0.70
     Davidson diagonalization with overlap
     ethr =  8.58E-07,  avg # of iterations =  1.0

     total cpu time spent up to now is     2784.9 secs

     total energy              =    -285.31725559 Ry
     Harris-Foulkes estimate   =    -285.31728842 Ry
     estimated scf accuracy    <       0.00005328 Ry

     iteration #  9     ecut=    40.00 Ry     beta=0.70
     Davidson diagonalization with overlap
     ethr =  1.97E-07,  avg # of iterations =  2.0

     total cpu time spent up to now is     2823.6 secs

     total energy              =    -285.31726595 Ry
     Harris-Foulkes estimate   =    -285.31726581 Ry
     estimated scf accuracy    <       0.00000072 Ry

     iteration # 10     ecut=    40.00 Ry     beta=0.70
     Davidson diagonalization with overlap
     ethr =  2.69E-09,  avg # of iterations =  1.5

     total cpu time spent up to now is     2855.0 secs

     total energy              =    -285.31726525 Ry
     Harris-Foulkes estimate   =    -285.31726597 Ry
     estimated scf accuracy    <       0.00000104 Ry

     iteration # 11     ecut=    40.00 Ry     beta=0.70
     Davidson diagonalization with overlap
     ethr =  2.69E-09,  avg # of iterations =  2.0

     total cpu time spent up to now is     2893.4 secs

     total energy              =    -285.31726550 Ry
     Harris-Foulkes estimate   =    -285.31726549 Ry
     estimated scf accuracy    <       0.00000003 Ry

     iteration # 12     ecut=    40.00 Ry     beta=0.70
     Davidson diagonalization with overlap
     ethr =  9.47E-11,  avg # of iterations =  1.4

     total cpu time spent up to now is     2925.2 secs

     total energy              =    -285.31726550 Ry
     Harris-Foulkes estimate   =    -285.31726550 Ry
     estimated scf accuracy    <       0.00000004 Ry

     iteration # 13     ecut=    40.00 Ry     beta=0.70
     Davidson diagonalization with overlap
     ethr =  9.47E-11,  avg # of iterations =  1.0

     total cpu time spent up to now is     2955.4 secs

     total energy              =    -285.31726551 Ry
     Harris-Foulkes estimate   =    -285.31726550 Ry
     estimated scf accuracy    <       0.00000004 Ry

     iteration # 14     ecut=    40.00 Ry     beta=0.70
     Davidson diagonalization with overlap
     ethr =  9.47E-11,  avg # of iterations =  2.0

     total cpu time spent up to now is     2993.1 secs

     total energy              =    -285.31726547 Ry
     Harris-Foulkes estimate   =    -285.31726551 Ry
     estimated scf accuracy    <       0.00000007 Ry

     iteration # 15     ecut=    40.00 Ry     beta=0.70
     Davidson diagonalization with overlap
     ethr =  9.47E-11,  avg # of iterations =  2.0

     total cpu time spent up to now is     3031.7 secs

     total energy              =    -285.31726548 Ry
     Harris-Foulkes estimate   =    -285.31726548 Ry
     estimated scf accuracy    <          1.4E-09 Ry

     iteration # 16     ecut=    40.00 Ry     beta=0.70
     Davidson diagonalization with overlap
     ethr =  5.05E-12,  avg # of iterations =  1.9

     total cpu time spent up to now is     3063.8 secs

     total energy              =    -285.31726548 Ry
     Harris-Foulkes estimate   =    -285.31726548 Ry
     estimated scf accuracy    <          1.2E-10 Ry

     iteration # 17     ecut=    40.00 Ry     beta=0.70
     Davidson diagonalization with overlap
     ethr =  4.41E-13,  avg # of iterations =  1.0

     total cpu time spent up to now is     3094.2 secs

     total energy              =    -285.31726548 Ry
     Harris-Foulkes estimate   =    -285.31726548 Ry
     estimated scf accuracy    <          1.3E-10 Ry

     iteration # 18     ecut=    40.00 Ry     beta=0.70
     Davidson diagonalization with overlap
     ethr =  4.41E-13,  avg # of iterations =  1.0

     total cpu time spent up to now is     3124.4 secs

     total energy              =    -285.31726548 Ry
     Harris-Foulkes estimate   =    -285.31726548 Ry
     estimated scf accuracy    <          3.3E-11 Ry

     iteration # 19     ecut=    40.00 Ry     beta=0.70
     Davidson diagonalization with overlap
     ethr =  1.22E-13,  avg # of iterations =  1.9

     total cpu time spent up to now is     3156.8 secs

     End of self-consistent calculation

     Number of k-points >= 100: set verbosity='high' to print the bands.

     the Fermi energy is     2.0496 ev

!    total energy              =    -285.31726548 Ry
     Harris-Foulkes estimate   =    -285.31726548 Ry
     estimated scf accuracy    <          3.5E-13 Ry

     The total energy is the sum of the following terms:

     one-electron contribution =    -257.74580982 Ry
     hartree contribution      =     130.47802268 Ry
     xc contribution           =     -42.84570386 Ry
     ewald contribution        =    -115.20363410 Ry
     smearing contrib. (-TS)   =      -0.00014039 Ry

     convergence has been achieved in  19 iterations

     Forces acting on atoms (cartesian axes, Ry/au):

     atom    1 type  1   force =    -0.00000331   -0.00000331   -0.00000331
     atom    2 type  1   force =     0.00000331    0.00000331    0.00000331
     atom    3 type  1   force =    -0.00000000    0.00000000    0.00000000

     Total force =     0.000008     Total SCF correction =     0.000000


     Computing stress (Cartesian axis) and pressure

          total   stress  (Ry/bohr**3)                   (kbar)     P=    5.93
   0.00004033   0.00000210   0.00000210          5.93      0.31      0.31
   0.00000210   0.00004033   0.00000210          0.31      5.93      0.31
   0.00000210   0.00000210   0.00004033          0.31      0.31      5.93


     number of scf cycles    =   5
     number of bfgs steps    =   4

     enthalpy old            =    -285.3101300491 Ry
     enthalpy new            =    -285.3103490576 Ry

     CASE: enthalpy_new < enthalpy_old

     new trust radius        =       0.0245913555 bohr
     new conv_thr            =            1.0E-12 Ry

     new unit-cell volume =    687.91062 a.u.^3 (   101.93783 Ang^3 )
     density =      1.12350 g/cm^3

CELL_PARAMETERS (alat= 17.00000000)
   0.378895108   0.665118321   0.665118321
   0.665118321   0.378895108   0.665118321
   0.665118321   0.665118321   0.378895108

ATOMIC_POSITIONS (crystal)
Na       0.722228351   0.722228351   0.722228351
Na       0.277771649   0.277771649   0.277771649
Na       0.500000000   0.500000000   0.500000000



     Writing output data file na.9r.save
     NEW-OLD atomic charge density approx. for the potential
     extrapolated charge   27.37718, renormalised to   27.00000

     total cpu time spent up to now is     3163.5 secs

     per-process dynamical memory:    35.2 Mb

     Self-consistent Calculation

     iteration #  1     ecut=    40.00 Ry     beta=0.70
     Davidson diagonalization with overlap
     ethr =  1.00E-06,  avg # of iterations =  4.1

     total cpu time spent up to now is     3217.6 secs

     total energy              =    -285.28489070 Ry
     Harris-Foulkes estimate   =    -282.43258062 Ry
     estimated scf accuracy    <       0.01824208 Ry

     iteration #  2     ecut=    40.00 Ry     beta=0.70
     Davidson diagonalization with overlap
     ethr =  6.76E-05,  avg # of iterations =  3.0

     total cpu time spent up to now is     3266.2 secs

     total energy              =    -285.31836274 Ry
     Harris-Foulkes estimate   =    -285.33178917 Ry
     estimated scf accuracy    <       0.03059594 Ry

     iteration #  3     ecut=    40.00 Ry     beta=0.70
     Davidson diagonalization with overlap
     ethr =  6.76E-05,  avg # of iterations =  2.0

     total cpu time spent up to now is     3301.9 secs

     total energy              =    -285.31817798 Ry
     Harris-Foulkes estimate   =    -285.32034428 Ry
     estimated scf accuracy    <       0.00602617 Ry

     iteration #  4     ecut=    40.00 Ry     beta=0.70
     Davidson diagonalization with overlap
     ethr =  2.23E-05,  avg # of iterations =  1.0

     total cpu time spent up to now is     3332.5 secs

     total energy              =    -285.31849095 Ry
     Harris-Foulkes estimate   =    -285.31843687 Ry
     estimated scf accuracy    <       0.00190553 Ry

     iteration #  5     ecut=    40.00 Ry     beta=0.70
     Davidson diagonalization with overlap
     ethr =  7.06E-06,  avg # of iterations =  1.0

     total cpu time spent up to now is     3362.8 secs

     total energy              =    -285.31800256 Ry
     Harris-Foulkes estimate   =    -285.31850659 Ry
     estimated scf accuracy    <       0.00205811 Ry

     iteration #  6     ecut=    40.00 Ry     beta=0.70
     Davidson diagonalization with overlap
     ethr =  7.06E-06,  avg # of iterations =  1.0

     total cpu time spent up to now is     3393.5 secs

     total energy              =    -285.31787859 Ry
     Harris-Foulkes estimate   =    -285.31804917 Ry
     estimated scf accuracy    <       0.00100354 Ry

     iteration #  7     ecut=    40.00 Ry     beta=0.70
     Davidson diagonalization with overlap
     ethr =  3.72E-06,  avg # of iterations =  1.0

     total cpu time spent up to now is     3424.1 secs

     total energy              =    -285.31766405 Ry
     Harris-Foulkes estimate   =    -285.31789153 Ry
     estimated scf accuracy    <       0.00062313 Ry

     iteration #  8     ecut=    40.00 Ry     beta=0.70
     Davidson diagonalization with overlap
     ethr =  2.31E-06,  avg # of iterations =  1.0

     total cpu time spent up to now is     3455.0 secs

     total energy              =    -285.31755786 Ry
     Harris-Foulkes estimate   =    -285.31768765 Ry
     estimated scf accuracy    <       0.00019933 Ry

     iteration #  9     ecut=    40.00 Ry     beta=0.70
     Davidson diagonalization with overlap
     ethr =  7.38E-07,  avg # of iterations =  2.0

     total cpu time spent up to now is     3493.3 secs

     total energy              =    -285.31759949 Ry
     Harris-Foulkes estimate   =    -285.31759943 Ry
     estimated scf accuracy    <       0.00000069 Ry

     iteration # 10     ecut=    40.00 Ry     beta=0.70
     Davidson diagonalization with overlap
     ethr =  2.57E-09,  avg # of iterations =  2.0

     total cpu time spent up to now is     3525.6 secs

     total energy              =    -285.31759920 Ry
     Harris-Foulkes estimate   =    -285.31759952 Ry
     estimated scf accuracy    <       0.00000082 Ry

     iteration # 11     ecut=    40.00 Ry     beta=0.70
     Davidson diagonalization with overlap
     ethr =  2.57E-09,  avg # of iterations =  2.0

     total cpu time spent up to now is     3562.8 secs

     total energy              =    -285.31759940 Ry
     Harris-Foulkes estimate   =    -285.31759930 Ry
     estimated scf accuracy    <       0.00000040 Ry

     iteration # 12     ecut=    40.00 Ry     beta=0.70
     Davidson diagonalization with overlap
     ethr =  1.49E-09,  avg # of iterations =  1.0

     total cpu time spent up to now is     3593.8 secs

     total energy              =    -285.31759941 Ry
     Harris-Foulkes estimate   =    -285.31759943 Ry
     estimated scf accuracy    <       0.00000078 Ry

     iteration # 13     ecut=    40.00 Ry     beta=0.70
     Davidson diagonalization with overlap
     ethr =  1.49E-09,  avg # of iterations =  1.0

     total cpu time spent up to now is     3624.3 secs

     total energy              =    -285.31759932 Ry
     Harris-Foulkes estimate   =    -285.31759941 Ry
     estimated scf accuracy    <       0.00000072 Ry

     iteration # 14     ecut=    40.00 Ry     beta=0.70
     Davidson diagonalization with overlap
     ethr =  1.49E-09,  avg # of iterations =  1.9

     total cpu time spent up to now is     3656.4 secs

     total energy              =    -285.31759909 Ry
     Harris-Foulkes estimate   =    -285.31759935 Ry
     estimated scf accuracy    <       0.00000042 Ry

     iteration # 15     ecut=    40.00 Ry     beta=0.70
     Davidson diagonalization with overlap
     ethr =  1.49E-09,  avg # of iterations =  2.0

     total cpu time spent up to now is     3695.2 secs

     total energy              =    -285.31759917 Ry
     Harris-Foulkes estimate   =    -285.31759917 Ry
     estimated scf accuracy    <          9.9E-11 Ry

     iteration # 16     ecut=    40.00 Ry     beta=0.70
     Davidson diagonalization with overlap
     ethr =  3.66E-13,  avg # of iterations =  2.2

     total cpu time spent up to now is     3735.0 secs

     total energy              =    -285.31759917 Ry
     Harris-Foulkes estimate   =    -285.31759917 Ry
     estimated scf accuracy    <          6.4E-11 Ry

     iteration # 17     ecut=    40.00 Ry     beta=0.70
     Davidson diagonalization with overlap
     ethr =  2.37E-13,  avg # of iterations =  1.0

     total cpu time spent up to now is     3765.7 secs

     total energy              =    -285.31759917 Ry
     Harris-Foulkes estimate   =    -285.31759917 Ry
     estimated scf accuracy    <          3.6E-11 Ry

     iteration # 18     ecut=    40.00 Ry     beta=0.70
     Davidson diagonalization with overlap
     ethr =  1.34E-13,  avg # of iterations =  1.0

     total cpu time spent up to now is     3796.0 secs

     total energy              =    -285.31759917 Ry
     Harris-Foulkes estimate   =    -285.31759917 Ry
     estimated scf accuracy    <          2.4E-11 Ry

     iteration # 19     ecut=    40.00 Ry     beta=0.70
     Davidson diagonalization with overlap
     ethr =  1.00E-13,  avg # of iterations =  1.8

     total cpu time spent up to now is     3828.4 secs

     total energy              =    -285.31759917 Ry
     Harris-Foulkes estimate   =    -285.31759917 Ry
     estimated scf accuracy    <          2.6E-12 Ry

     iteration # 20     ecut=    40.00 Ry     beta=0.70
     Davidson diagonalization with overlap
     ethr =  1.00E-13,  avg # of iterations =  1.0

     total cpu time spent up to now is     3858.5 secs

     total energy              =    -285.31759917 Ry
     Harris-Foulkes estimate   =    -285.31759917 Ry
     estimated scf accuracy    <          2.9E-12 Ry

     iteration # 21     ecut=    40.00 Ry     beta=0.70
     Davidson diagonalization with overlap
     ethr =  1.00E-13,  avg # of iterations =  1.0

     total cpu time spent up to now is     3889.4 secs

     End of self-consistent calculation

     Number of k-points >= 100: set verbosity='high' to print the bands.

     the Fermi energy is     1.9847 ev

!    total energy              =    -285.31759917 Ry
     Harris-Foulkes estimate   =    -285.31759917 Ry
     estimated scf accuracy    <          3.2E-14 Ry

     The total energy is the sum of the following terms:

     one-electron contribution =    -258.68967895 Ry
     hartree contribution      =     130.87656318 Ry
     xc contribution           =     -42.83988422 Ry
     ewald contribution        =    -114.66446038 Ry
     smearing contrib. (-TS)   =      -0.00013881 Ry

     convergence has been achieved in  21 iterations

     Forces acting on atoms (cartesian axes, Ry/au):

     atom    1 type  1   force =    -0.00000300   -0.00000300   -0.00000300
     atom    2 type  1   force =     0.00000300    0.00000300    0.00000300
     atom    3 type  1   force =     0.00000000   -0.00000000    0.00000000

     Total force =     0.000007     Total SCF correction =     0.000000


     Computing stress (Cartesian axis) and pressure

          total   stress  (Ry/bohr**3)                   (kbar)     P=    4.23
   0.00002874   0.00000171   0.00000171          4.23      0.25      0.25
   0.00000171   0.00002874   0.00000171          0.25      4.23      0.25
   0.00000171   0.00000171   0.00002874          0.25      0.25      4.23


     number of scf cycles    =   6
     number of bfgs steps    =   5

     enthalpy old            =    -285.3103490576 Ry
     enthalpy new            =    -285.3105846905 Ry

     CASE: enthalpy_new < enthalpy_old

     new trust radius        =       0.0369710756 bohr
     new conv_thr            =            1.0E-12 Ry

     new unit-cell volume =    702.49803 a.u.^3 (   104.09947 Ang^3 )
     density =      1.10017 g/cm^3

CELL_PARAMETERS (alat= 17.00000000)
   0.382152582   0.670256227   0.670256227
   0.670256227   0.382152582   0.670256227
   0.670256227   0.670256227   0.382152582

ATOMIC_POSITIONS (crystal)
Na       0.722227299   0.722227299   0.722227299
Na       0.277772701   0.277772701   0.277772701
Na       0.500000000   0.500000000   0.500000000



     Writing output data file na.9r.save
     NEW-OLD atomic charge density approx. for the potential
     extrapolated charge   27.56026, renormalised to   27.00000

     total cpu time spent up to now is     3896.0 secs

     per-process dynamical memory:    35.2 Mb

     Self-consistent Calculation

     iteration #  1     ecut=    40.00 Ry     beta=0.70
     Davidson diagonalization with overlap
     ethr =  1.00E-06,  avg # of iterations =  4.6

     total cpu time spent up to now is     3952.7 secs

     total energy              =    -285.24375007 Ry
     Harris-Foulkes estimate   =    -281.00372207 Ry
     estimated scf accuracy    <       0.04131470 Ry

     iteration #  2     ecut=    40.00 Ry     beta=0.70
     Davidson diagonalization with overlap
     ethr =  1.53E-04,  avg # of iterations =  3.0

     total cpu time spent up to now is     4001.2 secs

     total energy              =    -285.31980280 Ry
     Harris-Foulkes estimate   =    -285.35020762 Ry
     estimated scf accuracy    <       0.06927945 Ry

     iteration #  3     ecut=    40.00 Ry     beta=0.70
     Davidson diagonalization with overlap
     ethr =  1.53E-04,  avg # of iterations =  2.0

     total cpu time spent up to now is     4036.4 secs

     total energy              =    -285.31924337 Ry
     Harris-Foulkes estimate   =    -285.32422335 Ry
     estimated scf accuracy    <       0.01384681 Ry

     iteration #  4     ecut=    40.00 Ry     beta=0.70
     Davidson diagonalization with overlap
     ethr =  5.13E-05,  avg # of iterations =  1.0

     total cpu time spent up to now is     4066.8 secs

     total energy              =    -285.31992177 Ry
     Harris-Foulkes estimate   =    -285.31983846 Ry
     estimated scf accuracy    <       0.00438808 Ry

     iteration #  5     ecut=    40.00 Ry     beta=0.70
     Davidson diagonalization with overlap
     ethr =  1.63E-05,  avg # of iterations =  1.0

     total cpu time spent up to now is     4096.8 secs

     total energy              =    -285.31873438 Ry
     Harris-Foulkes estimate   =    -285.31995808 Ry
     estimated scf accuracy    <       0.00465526 Ry

     iteration #  6     ecut=    40.00 Ry     beta=0.70
     Davidson diagonalization with overlap
     ethr =  1.63E-05,  avg # of iterations =  1.0

     total cpu time spent up to now is     4127.5 secs

     total energy              =    -285.31840083 Ry
     Harris-Foulkes estimate   =    -285.31885454 Ry
     estimated scf accuracy    <       0.00212944 Ry

     iteration #  7     ecut=    40.00 Ry     beta=0.70
     Davidson diagonalization with overlap
     ethr =  7.89E-06,  avg # of iterations =  1.0

     total cpu time spent up to now is     4158.1 secs

     total energy              =    -285.31795390 Ry
     Harris-Foulkes estimate   =    -285.31844065 Ry
     estimated scf accuracy    <       0.00115017 Ry

     iteration #  8     ecut=    40.00 Ry     beta=0.70
     Davidson diagonalization with overlap
     ethr =  4.26E-06,  avg # of iterations =  1.0

     total cpu time spent up to now is     4189.0 secs

     total energy              =    -285.31783808 Ry
     Harris-Foulkes estimate   =    -285.31801701 Ry
     estimated scf accuracy    <       0.00026558 Ry

     iteration #  9     ecut=    40.00 Ry     beta=0.70
     Davidson diagonalization with overlap
     ethr =  9.84E-07,  avg # of iterations =  2.0

     total cpu time spent up to now is     4227.1 secs

     total energy              =    -285.31790208 Ry
     Harris-Foulkes estimate   =    -285.31790195 Ry
     estimated scf accuracy    <       0.00000156 Ry

     iteration # 10     ecut=    40.00 Ry     beta=0.70
     Davidson diagonalization with overlap
     ethr =  5.76E-09,  avg # of iterations =  2.2

     total cpu time spent up to now is     4259.8 secs

     total energy              =    -285.31790203 Ry
     Harris-Foulkes estimate   =    -285.31790223 Ry
     estimated scf accuracy    <       0.00000221 Ry

     iteration # 11     ecut=    40.00 Ry     beta=0.70
     Davidson diagonalization with overlap
     ethr =  5.76E-09,  avg # of iterations =  1.0

     total cpu time spent up to now is     4290.6 secs

     total energy              =    -285.31790212 Ry
     Harris-Foulkes estimate   =    -285.31790207 Ry
     estimated scf accuracy    <       0.00000170 Ry

     iteration # 12     ecut=    40.00 Ry     beta=0.70
     Davidson diagonalization with overlap
     ethr =  5.76E-09,  avg # of iterations =  1.0

     total cpu time spent up to now is     4320.7 secs

     total energy              =    -285.31790221 Ry
     Harris-Foulkes estimate   =    -285.31790213 Ry
     estimated scf accuracy    <       0.00000189 Ry

     iteration # 13     ecut=    40.00 Ry     beta=0.70
     Davidson diagonalization with overlap
     ethr =  5.76E-09,  avg # of iterations =  1.0

     total cpu time spent up to now is     4350.9 secs

     total energy              =    -285.31790208 Ry
     Harris-Foulkes estimate   =    -285.31790222 Ry
     estimated scf accuracy    <       0.00000241 Ry

     iteration # 14     ecut=    40.00 Ry     beta=0.70
     Davidson diagonalization with overlap
     ethr =  5.76E-09,  avg # of iterations =  1.0

     total cpu time spent up to now is     4381.4 secs

     total energy              =    -285.31790123 Ry
     Harris-Foulkes estimate   =    -285.31790211 Ry
     estimated scf accuracy    <       0.00000306 Ry

     iteration # 15     ecut=    40.00 Ry     beta=0.70
     Davidson diagonalization with overlap
     ethr =  5.76E-09,  avg # of iterations =  2.0

     total cpu time spent up to now is     4420.9 secs

     total energy              =    -285.31790155 Ry
     Harris-Foulkes estimate   =    -285.31790156 Ry
     estimated scf accuracy    <       0.00000037 Ry

     iteration # 16     ecut=    40.00 Ry     beta=0.70
     Davidson diagonalization with overlap
     ethr =  1.36E-09,  avg # of iterations =  1.9

     total cpu time spent up to now is     4452.5 secs

     total energy              =    -285.31790154 Ry
     Harris-Foulkes estimate   =    -285.31790155 Ry
     estimated scf accuracy    <       0.00000011 Ry

     iteration # 17     ecut=    40.00 Ry     beta=0.70
     Davidson diagonalization with overlap
     ethr =  4.05E-10,  avg # of iterations =  1.0

     total cpu time spent up to now is     4483.0 secs

     total energy              =    -285.31790151 Ry
     Harris-Foulkes estimate   =    -285.31790154 Ry
     estimated scf accuracy    <       0.00000007 Ry

     iteration # 18     ecut=    40.00 Ry     beta=0.70
     Davidson diagonalization with overlap
     ethr =  2.58E-10,  avg # of iterations =  1.0

     total cpu time spent up to now is     4513.2 secs

     total energy              =    -285.31790151 Ry
     Harris-Foulkes estimate   =    -285.31790151 Ry
     estimated scf accuracy    <       0.00000003 Ry

     iteration # 19     ecut=    40.00 Ry     beta=0.70
     Davidson diagonalization with overlap
     ethr =  9.28E-11,  avg # of iterations =  1.9

     total cpu time spent up to now is     4545.2 secs

     total energy              =    -285.31790151 Ry
     Harris-Foulkes estimate   =    -285.31790151 Ry
     estimated scf accuracy    <          1.4E-09 Ry

     iteration # 20     ecut=    40.00 Ry     beta=0.70
     Davidson diagonalization with overlap
     ethr =  5.18E-12,  avg # of iterations =  2.0

     total cpu time spent up to now is     4581.3 secs

     total energy              =    -285.31790151 Ry
     Harris-Foulkes estimate   =    -285.31790151 Ry
     estimated scf accuracy    <          1.6E-11 Ry

     iteration # 21     ecut=    40.00 Ry     beta=0.70
     Davidson diagonalization with overlap
     ethr =  1.00E-13,  avg # of iterations =  2.0

     total cpu time spent up to now is     4620.9 secs

     total energy              =    -285.31790151 Ry
     Harris-Foulkes estimate   =    -285.31790151 Ry
     estimated scf accuracy    <          1.8E-12 Ry

     iteration # 22     ecut=    40.00 Ry     beta=0.70
     Davidson diagonalization with overlap
     ethr =  1.00E-13,  avg # of iterations =  1.0

     total cpu time spent up to now is     4651.9 secs

     End of self-consistent calculation

     Number of k-points >= 100: set verbosity='high' to print the bands.

     the Fermi energy is     1.8897 ev

!    total energy              =    -285.31790151 Ry
     Harris-Foulkes estimate   =    -285.31790151 Ry
     estimated scf accuracy    <          1.1E-14 Ry

     The total energy is the sum of the following terms:

     one-electron contribution =    -260.08924395 Ry
     hartree contribution      =     131.46824889 Ry
     xc contribution           =     -42.83131846 Ry
     ewald contribution        =    -113.86545140 Ry
     smearing contrib. (-TS)   =      -0.00013659 Ry

     convergence has been achieved in  22 iterations

     Forces acting on atoms (cartesian axes, Ry/au):

     atom    1 type  1   force =    -0.00000248   -0.00000248   -0.00000248
     atom    2 type  1   force =     0.00000248    0.00000248    0.00000248
     atom    3 type  1   force =    -0.00000000    0.00000000    0.00000000

     Total force =     0.000006     Total SCF correction =     0.000000


     Computing stress (Cartesian axis) and pressure

          total   stress  (Ry/bohr**3)                   (kbar)     P=    1.86
   0.00001263   0.00000114   0.00000114          1.86      0.17      0.17
   0.00000114   0.00001263   0.00000114          0.17      1.86      0.17
   0.00000114   0.00000114   0.00001263          0.17      0.17      1.86


     number of scf cycles    =   7
     number of bfgs steps    =   6

     enthalpy old            =    -285.3105846905 Ry
     enthalpy new            =    -285.3107382828 Ry

     CASE: enthalpy_new < enthalpy_old

     new trust radius        =       0.0060332023 bohr
     new conv_thr            =            1.0E-12 Ry

     new unit-cell volume =    704.88115 a.u.^3 (   104.45261 Ang^3 )
     density =      1.09645 g/cm^3

CELL_PARAMETERS (alat= 17.00000000)
   0.382716754   0.671117336   0.671117336
   0.671117336   0.382716754   0.671117336
   0.671117336   0.671117336   0.382716754

ATOMIC_POSITIONS (crystal)
Na       0.722227043   0.722227043   0.722227043
Na       0.277772957   0.277772957   0.277772957
Na       0.500000000   0.500000000   0.500000000



     Writing output data file na.9r.save
     NEW-OLD atomic charge density approx. for the potential
     extrapolated charge   27.09122, renormalised to   27.00000

     total cpu time spent up to now is     4658.5 secs

     per-process dynamical memory:    35.2 Mb

     Self-consistent Calculation

     iteration #  1     ecut=    40.00 Ry     beta=0.70
     Davidson diagonalization with overlap
     ethr =  1.00E-06,  avg # of iterations =  3.0

     total cpu time spent up to now is     4705.0 secs

     total energy              =    -285.31608320 Ry
     Harris-Foulkes estimate   =    -284.61656538 Ry
     estimated scf accuracy    <       0.00103079 Ry

     iteration #  2     ecut=    40.00 Ry     beta=0.70
     Davidson diagonalization with overlap
     ethr =  3.82E-06,  avg # of iterations =  3.0

     total cpu time spent up to now is     4753.4 secs

     total energy              =    -285.31796567 Ry
     Harris-Foulkes estimate   =    -285.31872416 Ry
     estimated scf accuracy    <       0.00172805 Ry

     iteration #  3     ecut=    40.00 Ry     beta=0.70
     Davidson diagonalization with overlap
     ethr =  3.82E-06,  avg # of iterations =  2.0

     total cpu time spent up to now is     4789.9 secs

     total energy              =    -285.31795864 Ry
     Harris-Foulkes estimate   =    -285.31808019 Ry
     estimated scf accuracy    <       0.00033267 Ry

     iteration #  4     ecut=    40.00 Ry     beta=0.70
     Davidson diagonalization with overlap
     ethr =  1.23E-06,  avg # of iterations =  1.0

     total cpu time spent up to now is     4820.1 secs

     total energy              =    -285.31797816 Ry
     Harris-Foulkes estimate   =    -285.31797345 Ry
     estimated scf accuracy    <       0.00010177 Ry

     iteration #  5     ecut=    40.00 Ry     beta=0.70
     Davidson diagonalization with overlap
     ethr =  3.77E-07,  avg # of iterations =  1.0

     total cpu time spent up to now is     4851.0 secs

     total energy              =    -285.31794910 Ry
     Harris-Foulkes estimate   =    -285.31797905 Ry
     estimated scf accuracy    <       0.00011364 Ry

     iteration #  6     ecut=    40.00 Ry     beta=0.70
     Davidson diagonalization with overlap
     ethr =  3.77E-07,  avg # of iterations =  1.0

     total cpu time spent up to now is     4881.6 secs

     total energy              =    -285.31794253 Ry
     Harris-Foulkes estimate   =    -285.31795208 Ry
     estimated scf accuracy    <       0.00005156 Ry

     iteration #  7     ecut=    40.00 Ry     beta=0.70
     Davidson diagonalization with overlap
     ethr =  1.91E-07,  avg # of iterations =  1.0

     total cpu time spent up to now is     4912.5 secs

     total energy              =    -285.31793074 Ry
     Harris-Foulkes estimate   =    -285.31794334 Ry
     estimated scf accuracy    <       0.00003030 Ry

     iteration #  8     ecut=    40.00 Ry     beta=0.70
     Davidson diagonalization with overlap
     ethr =  1.12E-07,  avg # of iterations =  1.0

     total cpu time spent up to now is     4943.1 secs

     total energy              =    -285.31792788 Ry
     Harris-Foulkes estimate   =    -285.31793230 Ry
     estimated scf accuracy    <       0.00000734 Ry

     iteration #  9     ecut=    40.00 Ry     beta=0.70
     Davidson diagonalization with overlap
     ethr =  2.72E-08,  avg # of iterations =  2.0

     total cpu time spent up to now is     4981.2 secs

     total energy              =    -285.31792923 Ry
     Harris-Foulkes estimate   =    -285.31792920 Ry
     estimated scf accuracy    <       0.00000016 Ry

     iteration # 10     ecut=    40.00 Ry     beta=0.70
     Davidson diagonalization with overlap
     ethr =  5.88E-10,  avg # of iterations =  1.1

     total cpu time spent up to now is     5011.9 secs

     total energy              =    -285.31792909 Ry
     Harris-Foulkes estimate   =    -285.31792923 Ry
     estimated scf accuracy    <       0.00000021 Ry

     iteration # 11     ecut=    40.00 Ry     beta=0.70
     Davidson diagonalization with overlap
     ethr =  5.88E-10,  avg # of iterations =  2.0

     total cpu time spent up to now is     5050.1 secs

     total energy              =    -285.31792914 Ry
     Harris-Foulkes estimate   =    -285.31792914 Ry
     estimated scf accuracy    <       0.00000003 Ry

     iteration # 12     ecut=    40.00 Ry     beta=0.70
     Davidson diagonalization with overlap
     ethr =  1.22E-10,  avg # of iterations =  1.0

     total cpu time spent up to now is     5080.6 secs

     total energy              =    -285.31792914 Ry
     Harris-Foulkes estimate   =    -285.31792914 Ry
     estimated scf accuracy    <       0.00000005 Ry

     iteration # 13     ecut=    40.00 Ry     beta=0.70
     Davidson diagonalization with overlap
     ethr =  1.22E-10,  avg # of iterations =  1.0

     total cpu time spent up to now is     5110.6 secs

     total energy              =    -285.31792913 Ry
     Harris-Foulkes estimate   =    -285.31792914 Ry
     estimated scf accuracy    <       0.00000002 Ry

     iteration # 14     ecut=    40.00 Ry     beta=0.70
     Davidson diagonalization with overlap
     ethr =  9.02E-11,  avg # of iterations =  1.0

     total cpu time spent up to now is     5141.3 secs

     total energy              =    -285.31792913 Ry
     Harris-Foulkes estimate   =    -285.31792913 Ry
     estimated scf accuracy    <          1.9E-09 Ry

     iteration # 15     ecut=    40.00 Ry     beta=0.70
     Davidson diagonalization with overlap
     ethr =  6.90E-12,  avg # of iterations =  2.0

     total cpu time spent up to now is     5179.7 secs

     total energy              =    -285.31792913 Ry
     Harris-Foulkes estimate   =    -285.31792913 Ry
     estimated scf accuracy    <          4.3E-10 Ry

     iteration # 16     ecut=    40.00 Ry     beta=0.70
     Davidson diagonalization with overlap
     ethr =  1.60E-12,  avg # of iterations =  1.3

     total cpu time spent up to now is     5211.1 secs

     total energy              =    -285.31792913 Ry
     Harris-Foulkes estimate   =    -285.31792913 Ry
     estimated scf accuracy    <          8.5E-10 Ry

     iteration # 17     ecut=    40.00 Ry     beta=0.70
     Davidson diagonalization with overlap
     ethr =  1.60E-12,  avg # of iterations =  1.0

     total cpu time spent up to now is     5243.4 secs

     total energy              =    -285.31792913 Ry
     Harris-Foulkes estimate   =    -285.31792913 Ry
     estimated scf accuracy    <          1.2E-09 Ry

     iteration # 18     ecut=    40.00 Ry     beta=0.70
     Davidson diagonalization with overlap
     ethr =  1.60E-12,  avg # of iterations =  2.0

     total cpu time spent up to now is     5281.5 secs

     total energy              =    -285.31792913 Ry
     Harris-Foulkes estimate   =    -285.31792913 Ry
     estimated scf accuracy    <          4.1E-12 Ry

     iteration # 19     ecut=    40.00 Ry     beta=0.70
     Davidson diagonalization with overlap
     ethr =  1.00E-13,  avg # of iterations =  1.0

     total cpu time spent up to now is     5312.1 secs

     total energy              =    -285.31792913 Ry
     Harris-Foulkes estimate   =    -285.31792913 Ry
     estimated scf accuracy    <          5.8E-12 Ry

     iteration # 20     ecut=    40.00 Ry     beta=0.70
     Davidson diagonalization with overlap
     ethr =  1.00E-13,  avg # of iterations =  1.0

     total cpu time spent up to now is     5342.4 secs

     total energy              =    -285.31792913 Ry
     Harris-Foulkes estimate   =    -285.31792913 Ry
     estimated scf accuracy    <          2.2E-12 Ry

     iteration # 21     ecut=    40.00 Ry     beta=0.70
     Davidson diagonalization with overlap
     ethr =  1.00E-13,  avg # of iterations =  1.0

     total cpu time spent up to now is     5372.8 secs

     End of self-consistent calculation

     Number of k-points >= 100: set verbosity='high' to print the bands.

     the Fermi energy is     1.8745 ev

!    total energy              =    -285.31792913 Ry
     Harris-Foulkes estimate   =    -285.31792913 Ry
     estimated scf accuracy    <          3.4E-14 Ry

     The total energy is the sum of the following terms:

     one-electron contribution =    -260.31429143 Ry
     hartree contribution      =     131.56347236 Ry
     xc contribution           =     -42.82994847 Ry
     ewald contribution        =    -113.73702546 Ry
     smearing contrib. (-TS)   =      -0.00013612 Ry

     convergence has been achieved in  21 iterations

     Forces acting on atoms (cartesian axes, Ry/au):

     atom    1 type  1   force =    -0.00000227   -0.00000227   -0.00000227
     atom    2 type  1   force =     0.00000227    0.00000227    0.00000227
     atom    3 type  1   force =    -0.00000000    0.00000000    0.00000000

     Total force =     0.000006     Total SCF correction =     0.000000


     Computing stress (Cartesian axis) and pressure

          total   stress  (Ry/bohr**3)                   (kbar)     P=    1.50
   0.00001017   0.00000103   0.00000103          1.50      0.15      0.15
   0.00000103   0.00001017   0.00000103          0.15      1.50      0.15
   0.00000103   0.00000103   0.00001017          0.15      0.15      1.50


     number of scf cycles    =   8
     number of bfgs steps    =   7

     enthalpy old            =    -285.3107382828 Ry
     enthalpy new            =    -285.3107416002 Ry

     CASE: enthalpy_new < enthalpy_old

     new trust radius        =       0.0004333796 bohr
     new conv_thr            =            1.0E-12 Ry

     new unit-cell volume =    705.02326 a.u.^3 (   104.47367 Ang^3 )
     density =      1.09623 g/cm^3

CELL_PARAMETERS (alat= 17.00000000)
   0.382786439   0.671196953   0.671196953
   0.671196953   0.382786439   0.671196953
   0.671196953   0.671196953   0.382786439

ATOMIC_POSITIONS (crystal)
Na       0.722226944   0.722226944   0.722226944
Na       0.277773056   0.277773056   0.277773056
Na       0.500000000   0.500000000   0.500000000



     Writing output data file na.9r.save
     NEW-OLD atomic charge density approx. for the potential
     extrapolated charge   27.00544, renormalised to   27.00000

     total cpu time spent up to now is     5379.5 secs

     per-process dynamical memory:    35.2 Mb

     Self-consistent Calculation

     iteration #  1     ecut=    40.00 Ry     beta=0.70
     Davidson diagonalization with overlap
     ethr =  1.00E-06,  avg # of iterations =  2.0

     Threshold (ethr) on eigenvalues was too large:
     Diagonalizing with lowered threshold

     Davidson diagonalization with overlap
     ethr =  1.33E-08,  avg # of iterations =  1.0

     total cpu time spent up to now is     5448.5 secs

     total energy              =    -285.31792428 Ry
     Harris-Foulkes estimate   =    -285.27613635 Ry
[...]

     total cpu time spent up to now is     7286.0 secs

     total energy              =    -285.31793454 Ry
     Harris-Foulkes estimate   =    -285.31793454 Ry
     estimated scf accuracy    <          2.8E-11 Ry

     iteration #  7     ecut=    40.00 Ry     beta=0.70
     Davidson diagonalization with overlap
     ethr =  1.03E-13,  avg # of iterations =  2.0

     total cpu time spent up to now is     7324.3 secs

     End of self-consistent calculation

     Number of k-points >= 100: set verbosity='high' to print the bands.

     the Fermi energy is     1.8722 ev

!    total energy              =    -285.31793454 Ry
     Harris-Foulkes estimate   =    -285.31793454 Ry
     estimated scf accuracy    <          3.8E-13 Ry

     The total energy is the sum of the following terms:

     one-electron contribution =    -260.34903359 Ry
     hartree contribution      =     131.57815239 Ry
     xc contribution           =     -42.82973519 Ry
     ewald contribution        =    -113.71718486 Ry
     smearing contrib. (-TS)   =      -0.00013329 Ry

     convergence has been achieved in   7 iterations

     Forces acting on atoms (cartesian axes, Ry/au):

     atom    1 type  1   force =    -0.00000103   -0.00000103   -0.00000103
     atom    2 type  1   force =     0.00000103    0.00000103    0.00000103
     atom    3 type  1   force =     0.00000000    0.00000000   -0.00000000

     Total force =     0.000003     Total SCF correction =     0.000000


     Computing stress (Cartesian axis) and pressure

          total   stress  (Ry/bohr**3)                   (kbar)     P=    1.44
   0.00000980   0.00000047   0.00000047          1.44      0.07      0.07
   0.00000047   0.00000980   0.00000047          0.07      1.44      0.07
   0.00000047   0.00000047   0.00000980          0.07      0.07      1.44


     number of scf cycles    =  13
     number of bfgs steps    =  12

     enthalpy old            =    -285.3107426782 Ry
     enthalpy new            =    -285.3107432117 Ry

     CASE: enthalpy_new < enthalpy_old

     new trust radius        =       0.0024118862 bohr
     new conv_thr            =            1.0E-12 Ry

     new unit-cell volume =    705.15000 a.u.^3 (   104.49245 Ang^3 )
     density =      1.09603 g/cm^3

CELL_PARAMETERS (alat= 17.00000000)
   0.383909599   0.672101264   0.672101264
   0.672101264   0.383909599   0.672101264
   0.672101264   0.672101264   0.383909599

ATOMIC_POSITIONS (crystal)
Na       0.722224406   0.722224406   0.722224406
Na       0.277775594   0.277775594   0.277775594
Na       0.500000000   0.500000000   0.500000000



     Writing output data file na.9r.save
     NEW-OLD atomic charge density approx. for the potential
     extrapolated charge   26.99604, renormalised to   27.00000

     total cpu time spent up to now is     7330.9 secs

     per-process dynamical memory:    35.2 Mb

     Self-consistent Calculation

     iteration #  1     ecut=    40.00 Ry     beta=0.70
     Davidson diagonalization with overlap
     ethr =  1.00E-06,  avg # of iterations =  2.0

     Threshold (ethr) on eigenvalues was too large:
     Diagonalizing with lowered threshold

     Davidson diagonalization with overlap
     ethr =  6.94E-09,  avg # of iterations =  2.0

     total cpu time spent up to now is     7403.3 secs

     total energy              =    -285.31793053 Ry
     Harris-Foulkes estimate   =    -285.34833953 Ry
     estimated scf accuracy    <       0.00000189 Ry

     iteration #  2     ecut=    40.00 Ry     beta=0.70
     Davidson diagonalization with overlap
     ethr =  7.01E-09,  avg # of iterations =  3.0

     total cpu time spent up to now is     7448.9 secs

     total energy              =    -285.31793399 Ry
     Harris-Foulkes estimate   =    -285.31793537 Ry
     estimated scf accuracy    <       0.00000317 Ry

     iteration #  3     ecut=    40.00 Ry     beta=0.70
     Davidson diagonalization with overlap
     ethr =  7.01E-09,  avg # of iterations =  2.0

     total cpu time spent up to now is     7484.8 secs

     total energy              =    -285.31793398 Ry
     Harris-Foulkes estimate   =    -285.31793420 Ry
     estimated scf accuracy    <       0.00000061 Ry

     iteration #  4     ecut=    40.00 Ry     beta=0.70
     Davidson diagonalization with overlap
     ethr =  2.25E-09,  avg # of iterations =  1.0

     total cpu time spent up to now is     7514.8 secs

     total energy              =    -285.31793394 Ry
     Harris-Foulkes estimate   =    -285.31793401 Ry
     estimated scf accuracy    <       0.00000018 Ry

     iteration #  5     ecut=    40.00 Ry     beta=0.70
     Davidson diagonalization with overlap
     ethr =  6.69E-10,  avg # of iterations =  1.0

     total cpu time spent up to now is     7545.4 secs

     total energy              =    -285.31793392 Ry
     Harris-Foulkes estimate   =    -285.31793395 Ry
     estimated scf accuracy    <       0.00000004 Ry

     iteration #  6     ecut=    40.00 Ry     beta=0.70
     Davidson diagonalization with overlap
     ethr =  1.64E-10,  avg # of iterations =  2.0

     total cpu time spent up to now is     7583.7 secs

     total energy              =    -285.31793393 Ry
     Harris-Foulkes estimate   =    -285.31793393 Ry
     estimated scf accuracy    <          5.1E-11 Ry

     iteration #  7     ecut=    40.00 Ry     beta=0.70
     Davidson diagonalization with overlap
     ethr =  1.90E-13,  avg # of iterations =  3.0

     total cpu time spent up to now is     7625.8 secs

     total energy              =    -285.31793393 Ry
     Harris-Foulkes estimate   =    -285.31793393 Ry
     estimated scf accuracy    <          1.2E-10 Ry

     iteration #  8     ecut=    40.00 Ry     beta=0.70
     Davidson diagonalization with overlap
     ethr =  1.90E-13,  avg # of iterations =  3.0

     total cpu time spent up to now is     7668.0 secs

     total energy              =    -285.31793393 Ry
     Harris-Foulkes estimate   =    -285.31793393 Ry
     estimated scf accuracy    <          7.1E-10 Ry

     iteration #  9     ecut=    40.00 Ry     beta=0.70
     Davidson diagonalization with overlap
     ethr =  1.90E-13,  avg # of iterations =  3.0

     total cpu time spent up to now is     7714.0 secs

     total energy              =    -285.31793393 Ry
     Harris-Foulkes estimate   =    -285.31793393 Ry
     estimated scf accuracy    <          4.6E-12 Ry

     iteration # 10     ecut=    40.00 Ry     beta=0.70
     Davidson diagonalization with overlap
     ethr =  1.00E-13,  avg # of iterations =  1.0

     total cpu time spent up to now is     7743.9 secs

     End of self-consistent calculation

     Number of k-points >= 100: set verbosity='high' to print the bands.

     the Fermi energy is     1.8728 ev

!    total energy              =    -285.31793393 Ry
     Harris-Foulkes estimate   =    -285.31793393 Ry
     estimated scf accuracy    <          4.7E-13 Ry

     The total energy is the sum of the following terms:

     one-electron contribution =    -260.33915572 Ry
     hartree contribution      =     131.57395472 Ry
     xc contribution           =     -42.82979277 Ry
     ewald contribution        =    -113.72280858 Ry
     smearing contrib. (-TS)   =      -0.00013158 Ry

     convergence has been achieved in  10 iterations

     Forces acting on atoms (cartesian axes, Ry/au):

     atom    1 type  1   force =    -0.00000029   -0.00000029   -0.00000029
     atom    2 type  1   force =     0.00000029    0.00000029    0.00000029
     atom    3 type  1   force =     0.00000000   -0.00000000    0.00000000

     Total force =     0.000001     Total SCF correction =     0.000000
     SCF correction compared to forces is large: reduce conv_thr to get better values


     Computing stress (Cartesian axis) and pressure

          total   stress  (Ry/bohr**3)                   (kbar)     P=    1.45
   0.00000988   0.00000014   0.00000014          1.45      0.02      0.02
   0.00000014   0.00000988   0.00000014          0.02      1.45      0.02
   0.00000014   0.00000014   0.00000988          0.02      0.02      1.45


     bfgs converged in  14 scf cycles and  13 bfgs steps
     (criteria: energy <  1.0E-04 Ry, force <  1.0E-03Ry/Bohr, cell <  5.0E-02kbar)

     End of BFGS Geometry Optimization

     Final enthalpy =    -285.3107436623 Ry
Begin final coordinates
     new unit-cell volume =    705.15000 a.u.^3 (   104.49245 Ang^3 )
     density =      1.09603 g/cm^3

CELL_PARAMETERS (alat= 17.00000000)
   0.383909599   0.672101264   0.672101264
   0.672101264   0.383909599   0.672101264
   0.672101264   0.672101264   0.383909599

ATOMIC_POSITIONS (crystal)
Na       0.722224406   0.722224406   0.722224406
Na       0.277775594   0.277775594   0.277775594
Na       0.500000000   0.500000000   0.500000000
End final coordinates



     A final scf calculation at the relaxed structure.
     The G-vectors are recalculated for the final unit cell
     Results may differ from those at the preceding step.

     Parallelization info
     --------------------
     sticks:   dense  smooth     PW     G-vecs:    dense   smooth      PW
     Min         188      93     31                 4262     1497     287
     Max         189      95     32                 4263     1498     288
     Sum        3011    1497    507                68197    23967    4605



     bravais-lattice index     =           -5
     lattice parameter (alat)  =      17.0000  a.u.
     unit-cell volume          =     705.1500 (a.u.)^3
     number of atoms/cell      =            3
     number of atomic types    =            1
     number of electrons       =        27.00
     number of Kohn-Sham states=           18
     kinetic-energy cutoff     =      40.0000  Ry
     charge density cutoff     =     320.0000  Ry
     convergence threshold     =      1.0E-12
     mixing beta               =       0.7000
     number of iterations used =            8  plain     mixing
     Exchange-correlation      = SLA  PW   PBE  PBE ( 1  4  3  4 0 0)

     celldm(1)=  17.000000  celldm(2)=   0.000000  celldm(3)=   0.000000
     celldm(4)=   0.920000  celldm(5)=   0.000000  celldm(6)=   0.000000

     crystal axes: (cart. coord. in units of alat)
               a(1) = (   0.383910   0.672101   0.672101 )  
               a(2) = (   0.672101   0.383910   0.672101 )  
               a(3) = (   0.672101   0.672101   0.383910 )  

     reciprocal axes: (cart. coord. in units 2 pi/alat)
               b(1) = ( -2.120387  1.349526  1.349526 )  
               b(2) = (  1.349526 -2.120387  1.349526 )  
               b(3) = (  1.349526  1.349526 -2.120387 )  


     PseudoPot. # 1 for Na read from file:
     /home/s1333534/quantum_espresso/qe-6.1/pseudo/Na_pbe_v1.uspp.F.UPF
     MD5 check sum: 76a99c7e9422403d3e93cbc85ab7bccb
     Pseudo is Ultrasoft, Zval =  9.0
     Generated by new atomic code, or converted to UPF format
     Using radial grid of  819 points,  5 beta functions with: 
                l(1) =   0
                l(2) =   0
                l(3) =   1
                l(4) =   1
                l(5) =   2
     Q(r) pseudized with  8 coefficients,  rinner =    1.250   1.250   1.250
                                                       1.250   1.250

     atomic species   valence    mass     pseudopotential
        Na             9.00    22.99000     Na( 1.00)

     12 Sym. Ops., with inversion, found



   Cartesian axes

     site n.     atom                  positions (alat units)
         1           Na  tau(   1) = (   1.2480848   1.2480848   1.2480848  )
         2           Na  tau(   2) = (   0.4800274   0.4800274   0.4800274  )
         3           Na  tau(   3) = (   0.8640561   0.8640561   0.8640561  )

     number of k points=   770  Marzari-Vanderbilt smearing, width (Ry)=  0.0200

     Number of k-points >= 100: set verbosity='high' to print them.

     Dense  grid:    68197 G-vectors     FFT dimensions: ( 100, 100, 100)

     Smooth grid:    23967 G-vectors     FFT dimensions: (  72,  72,  72)

     Estimated max dynamical RAM per process >      17.20MB

     Estimated total allocated dynamical RAM >    1101.07MB

     Initial potential from superposition of free atoms

     starting charge   26.98113, renormalised to   27.00000
     Starting wfc are   15 randomized atomic wfcs +    3 random wfc

     Writing output data file na.9r.save

     total cpu time spent up to now is     7762.3 secs

     per-process dynamical memory:    34.3 Mb

     Self-consistent Calculation

     iteration #  1     ecut=    40.00 Ry     beta=0.70
     Davidson diagonalization with overlap
     c_bands:  1 eigenvalues not converged
     c_bands:  1 eigenvalues not converged
     c_bands:  1 eigenvalues not converged
     c_bands:  1 eigenvalues not converged
     ethr =  1.00E-06,  avg # of iterations = 13.8

     total cpu time spent up to now is     7847.6 secs

     total energy              =    -285.31862092 Ry
     Harris-Foulkes estimate   =    -285.31936212 Ry
     estimated scf accuracy    <       0.00271123 Ry

     iteration #  2     ecut=    40.00 Ry     beta=0.70
     Davidson diagonalization with overlap
     ethr =  1.00E-05,  avg # of iterations =  2.0

     total cpu time spent up to now is     7884.7 secs

     total energy              =    -285.31894390 Ry
     Harris-Foulkes estimate   =    -285.31901783 Ry
     estimated scf accuracy    <       0.00030559 Ry

     iteration #  3     ecut=    40.00 Ry     beta=0.70
     Davidson diagonalization with overlap
     ethr =  1.13E-06,  avg # of iterations =  2.0

     total cpu time spent up to now is     7923.9 secs

     total energy              =    -285.31897552 Ry
     Harris-Foulkes estimate   =    -285.31897999 Ry
     estimated scf accuracy    <       0.00001960 Ry

     iteration #  4     ecut=    40.00 Ry     beta=0.70
     Davidson diagonalization with overlap
     ethr =  7.26E-08,  avg # of iterations =  1.6

     total cpu time spent up to now is     7955.3 secs

     total energy              =    -285.31897712 Ry
     Harris-Foulkes estimate   =    -285.31897761 Ry
     estimated scf accuracy    <       0.00000168 Ry

     iteration #  5     ecut=    40.00 Ry     beta=0.70
     Davidson diagonalization with overlap
     ethr =  6.23E-09,  avg # of iterations =  2.0

     total cpu time spent up to now is     7990.0 secs

     total energy              =    -285.31897760 Ry
     Harris-Foulkes estimate   =    -285.31897762 Ry
     estimated scf accuracy    <       0.00000014 Ry

     iteration #  6     ecut=    40.00 Ry     beta=0.70
     Davidson diagonalization with overlap
     ethr =  5.03E-10,  avg # of iterations =  2.0

     total cpu time spent up to now is     8023.8 secs

     total energy              =    -285.31897763 Ry
     Harris-Foulkes estimate   =    -285.31897763 Ry
     estimated scf accuracy    <          1.8E-09 Ry

     iteration #  7     ecut=    40.00 Ry     beta=0.70
     Davidson diagonalization with overlap
     ethr =  6.74E-12,  avg # of iterations =  2.6

     total cpu time spent up to now is     8065.1 secs

     total energy              =    -285.31897763 Ry
     Harris-Foulkes estimate   =    -285.31897763 Ry
     estimated scf accuracy    <          2.9E-11 Ry

     iteration #  8     ecut=    40.00 Ry     beta=0.70
     Davidson diagonalization with overlap
     ethr =  1.08E-13,  avg # of iterations =  2.2

     total cpu time spent up to now is     8098.7 secs

     total energy              =    -285.31897763 Ry
     Harris-Foulkes estimate   =    -285.31897763 Ry
     estimated scf accuracy    <          3.8E-12 Ry

     iteration #  9     ecut=    40.00 Ry     beta=0.70
     Davidson diagonalization with overlap
     ethr =  1.00E-13,  avg # of iterations =  1.0

     total cpu time spent up to now is     8129.1 secs

     End of self-consistent calculation

     Number of k-points >= 100: set verbosity='high' to print the bands.

     the Fermi energy is     1.8733 ev

!    total energy              =    -285.31897763 Ry
     Harris-Foulkes estimate   =    -285.31897763 Ry
     estimated scf accuracy    <          4.9E-14 Ry

     The total energy is the sum of the following terms:

     one-electron contribution =    -260.34034715 Ry
     hartree contribution      =     131.57436875 Ry
     xc contribution           =     -42.83005905 Ry
     ewald contribution        =    -113.72280858 Ry
     smearing contrib. (-TS)   =      -0.00013160 Ry

     convergence has been achieved in   9 iterations

     Forces acting on atoms (cartesian axes, Ry/au):

     atom    1 type  1   force =    -0.00000357   -0.00000357   -0.00000357
     atom    2 type  1   force =     0.00000357    0.00000357    0.00000357
     atom    3 type  1   force =     0.00000000    0.00000000   -0.00000000

     Total force =     0.000009     Total SCF correction =     0.000002
     SCF correction compared to forces is large: reduce conv_thr to get better values


     Computing stress (Cartesian axis) and pressure

          total   stress  (Ry/bohr**3)                   (kbar)     P=    2.45
   0.00001666   0.00000043   0.00000043          2.45      0.06      0.06
   0.00000043   0.00001666   0.00000043          0.06      2.45      0.06
   0.00000043   0.00000043   0.00001666          0.06      0.06      2.45


     Writing output data file na.9r.save

     init_run     :     23.58s CPU     23.85s WALL (       2 calls)
     electrons    :   7928.52s CPU   8013.12s WALL (      15 calls)
     update_pot   :      8.70s CPU      9.15s WALL (      13 calls)
     forces       :      9.75s CPU      9.87s WALL (      15 calls)
     stress       :     29.12s CPU     29.25s WALL (      15 calls)

     Called by init_run:
     wfcinit      :     21.73s CPU     21.93s WALL (       2 calls)
     potinit      :      0.60s CPU      0.62s WALL (       2 calls)

     Called by electrons:
     c_bands      :   6536.27s CPU   6603.08s WALL (     227 calls)
     sum_band     :   1345.49s CPU   1361.22s WALL (     227 calls)
     v_of_rho     :     30.98s CPU     32.12s WALL (     235 calls)
     newd         :      9.00s CPU      9.10s WALL (     235 calls)
     mix_rho      :      2.66s CPU      2.84s WALL (     227 calls)

     Called by c_bands:
     init_us_2    :     30.80s CPU     31.18s WALL (   93798 calls)
     cegterg      :   6196.73s CPU   6260.26s WALL (   43811 calls)

     Called by sum_band:
     sum_band:bec :      1.98s CPU      2.03s WALL (   43811 calls)
     addusdens    :      9.35s CPU      9.46s WALL (     227 calls)

     Called by *egterg:
     h_psi        :   5845.89s CPU   5903.42s WALL (  121961 calls)
     s_psi        :     22.96s CPU     23.78s WALL (  121961 calls)
     g_psi        :      3.47s CPU      3.51s WALL (   77764 calls)
     cdiaghg      :    193.09s CPU    195.21s WALL (  117715 calls)

     Called by h_psi:
     h_psi:pot    :   5841.43s CPU   5898.84s WALL (  121961 calls)
     h_psi:calbec :     50.60s CPU     51.84s WALL (  121961 calls)
     vloc_psi     :   5764.89s CPU   5820.38s WALL (  121961 calls)
     add_vuspsi   :     24.58s CPU     25.29s WALL (  121961 calls)

     General routines
     calbec       :     75.88s CPU     77.63s WALL (  180247 calls)
     fft          :     18.79s CPU     20.55s WALL (    3861 calls)
     ffts         :      0.78s CPU      0.85s WALL (     462 calls)
     fftw         :   6057.98s CPU   6119.45s WALL ( 4540046 calls)
     interpolate  :      3.10s CPU      3.35s WALL (     462 calls)
     davcio       :      0.01s CPU      0.28s WALL (     386 calls)

     Parallel routines
     fft_scatter  :   1431.20s CPU   1458.06s WALL ( 4544369 calls)

     PWSCF        :     2h14m CPU        2h15m WALL


   This run was terminated on:  11:16:44   4Mar2018            

=------------------------------------------------------------------------------=
   JOB DONE.
=------------------------------------------------------------------------------=
