
     Program PWSCF v.6.1 (svn rev. 13369) starts on 12Feb2018 at 16: 4: 0 

     This program is part of the open-source Quantum ESPRESSO suite
     for quantum simulation of materials; please cite
         "P. Giannozzi et al., J. Phys.:Condens. Matter 21 395502 (2009);
          URL http://www.quantum-espresso.org", 
     in publications or presentations arising from this work. More details at
     http://www.quantum-espresso.org/quote

     Parallel version (MPI), running on    64 processors
     K-points division:     npool     =       4
     R & G space division:  proc/nbgrp/npool/nimage =      16
     Waiting for input...
     Reading input from standard input

     Current dimensions of program PWSCF are:
     Max number of different atomic species (ntypx) = 10
     Max number of k-points (npk) =  80000
     Max angular momentum in pseudopotentials (lmaxx) =  3

     Subspace diagonalization in iterative solution of the eigenvalue problem:
     a serial algorithm will be used


     Parallelization info
     --------------------
     sticks:   dense  smooth     PW     G-vecs:    dense   smooth      PW
     Min         180      90     29                 4007     1420     274
     Max         181      91     30                 4009     1421     277
     Sum        2893    1447    473                64127    22723    4407



     bravais-lattice index     =           -5
     lattice parameter (alat)  =      17.0000  a.u.
     unit-cell volume          =     662.3628 (a.u.)^3
     number of atoms/cell      =            3
     number of atomic types    =            1
     number of electrons       =        27.00
     number of Kohn-Sham states=           18
     kinetic-energy cutoff     =      40.0000  Ry
     charge density cutoff     =     320.0000  Ry
     convergence threshold     =      1.0E-10
     mixing beta               =       0.7000
     number of iterations used =            8  plain     mixing
     Exchange-correlation      = SLA  PW   PBE  PBE ( 1  4  3  4 0 0)
     nstep                     =           50


     celldm(1)=  17.000000  celldm(2)=   0.000000  celldm(3)=   0.000000
     celldm(4)=   0.920000  celldm(5)=   0.000000  celldm(6)=   0.000000

     crystal axes: (cart. coord. in units of alat)
               a(1) = (   0.373182   0.656024   0.656024 )  
               a(2) = (   0.656024   0.373182   0.656024 )  
               a(3) = (   0.656024   0.656024   0.373182 )  

     reciprocal axes: (cart. coord. in units 2 pi/alat)
               b(1) = ( -2.159226  1.376308  1.376308 )  
               b(2) = (  1.376308 -2.159226  1.376308 )  
               b(3) = (  1.376308  1.376308 -2.159226 )  


     PseudoPot. # 1 for Na read from file:
     /home/s1333534/quantum_espresso/qe-6.1/pseudo/Na_pbe_v1.uspp.F.UPF
     MD5 check sum: 76a99c7e9422403d3e93cbc85ab7bccb
     Pseudo is Ultrasoft, Zval =  9.0
     Generated by new atomic code, or converted to UPF format
     Using radial grid of  819 points,  5 beta functions with: 
                l(1) =   0
                l(2) =   0
                l(3) =   1
                l(4) =   1
                l(5) =   2
     Q(r) pseudized with  8 coefficients,  rinner =    1.250   1.250   1.250
                                                       1.250   1.250

     atomic species   valence    mass     pseudopotential
        Na             9.00    22.99000     Na( 1.00)

     12 Sym. Ops., with inversion, found



   Cartesian axes

     site n.     atom                  positions (alat units)
         1           Na  tau(   1) = (   1.2171236   1.2171236   1.2171236  )
         2           Na  tau(   2) = (   0.4681063   0.4681063   0.4681063  )
         3           Na  tau(   3) = (   0.8426150   0.8426150   0.8426150  )

     number of k points=   770  Marzari-Vanderbilt smearing, width (Ry)=  0.0200

     Number of k-points >= 100: set verbosity='high' to print them.

     Dense  grid:    64127 G-vectors     FFT dimensions: ( 100, 100, 100)

     Smooth grid:    22723 G-vectors     FFT dimensions: (  72,  72,  72)

     Estimated max dynamical RAM per process >      16.43MB

     Estimated total allocated dynamical RAM >    1051.57MB

     Initial potential from superposition of free atoms

     starting charge   26.98113, renormalised to   27.00000
     Starting wfc are   15 randomized atomic wfcs +    3 random wfc

     total cpu time spent up to now is       12.3 secs

     per-process dynamical memory:    27.1 Mb

     Self-consistent Calculation

     iteration #  1     ecut=    40.00 Ry     beta=0.70
     Davidson diagonalization with overlap
     ethr =  1.00E-02,  avg # of iterations =  5.5

     Threshold (ethr) on eigenvalues was too large:
     Diagonalizing with lowered threshold

     Davidson diagonalization with overlap
     ethr =  9.94E-06,  avg # of iterations =  7.4

     total cpu time spent up to now is      103.6 secs

     total energy              =    -285.31611804 Ry
     Harris-Foulkes estimate   =    -285.31691275 Ry
     estimated scf accuracy    <       0.00278138 Ry

     iteration #  2     ecut=    40.00 Ry     beta=0.70
     Davidson diagonalization with overlap
     ethr =  1.03E-05,  avg # of iterations =  2.0

     total cpu time spent up to now is      140.2 secs

     total energy              =    -285.31642367 Ry
     Harris-Foulkes estimate   =    -285.31648847 Ry
     estimated scf accuracy    <       0.00029290 Ry

     iteration #  3     ecut=    40.00 Ry     beta=0.70
     Davidson diagonalization with overlap
     ethr =  1.08E-06,  avg # of iterations =  2.0

     total cpu time spent up to now is      178.5 secs

     total energy              =    -285.31645236 Ry
     Harris-Foulkes estimate   =    -285.31645641 Ry
     estimated scf accuracy    <       0.00001799 Ry

     iteration #  4     ecut=    40.00 Ry     beta=0.70
     Davidson diagonalization with overlap
     ethr =  6.66E-08,  avg # of iterations =  2.0

     total cpu time spent up to now is      212.6 secs

     total energy              =    -285.31645427 Ry
     Harris-Foulkes estimate   =    -285.31645415 Ry
     estimated scf accuracy    <       0.00000006 Ry

     iteration #  5     ecut=    40.00 Ry     beta=0.70
     Davidson diagonalization with overlap
     ethr =  2.37E-10,  avg # of iterations =  3.3

     total cpu time spent up to now is      253.0 secs

     total energy              =    -285.31645434 Ry
     Harris-Foulkes estimate   =    -285.31645441 Ry
     estimated scf accuracy    <       0.00000026 Ry

     iteration #  6     ecut=    40.00 Ry     beta=0.70
     Davidson diagonalization with overlap
     ethr =  2.37E-10,  avg # of iterations =  1.3

     total cpu time spent up to now is      284.2 secs

     total energy              =    -285.31645438 Ry
     Harris-Foulkes estimate   =    -285.31645438 Ry
     estimated scf accuracy    <          1.7E-09 Ry

     iteration #  7     ecut=    40.00 Ry     beta=0.70
     Davidson diagonalization with overlap
     ethr =  6.46E-12,  avg # of iterations =  2.0

     total cpu time spent up to now is      316.3 secs

     total energy              =    -285.31645438 Ry
     Harris-Foulkes estimate   =    -285.31645438 Ry
     estimated scf accuracy    <          2.5E-10 Ry

     iteration #  8     ecut=    40.00 Ry     beta=0.70
     Davidson diagonalization with overlap
     ethr =  9.24E-13,  avg # of iterations =  1.9

     total cpu time spent up to now is      348.4 secs

     End of self-consistent calculation

     Number of k-points >= 100: set verbosity='high' to print the bands.

     the Fermi energy is     2.1616 ev

!    total energy              =    -285.31645438 Ry
     Harris-Foulkes estimate   =    -285.31645438 Ry
     estimated scf accuracy    <          6.2E-13 Ry

     The total energy is the sum of the following terms:

     one-electron contribution =    -256.14327683 Ry
     hartree contribution      =     129.80226548 Ry
     xc contribution           =     -42.85565928 Ry
     ewald contribution        =    -116.11964061 Ry
     smearing contrib. (-TS)   =      -0.00014315 Ry

     convergence has been achieved in   8 iterations

     Forces acting on atoms (cartesian axes, Ry/au):

     atom    1 type  1   force =    -0.00000461   -0.00000461   -0.00000461
     atom    2 type  1   force =     0.00000461    0.00000461    0.00000461
     atom    3 type  1   force =    -0.00000000   -0.00000000    0.00000000

     Total force =     0.000011     Total SCF correction =     0.000000


     Computing stress (Cartesian axis) and pressure

          total   stress  (Ry/bohr**3)                   (kbar)     P=    9.02
   0.00006132   0.00000277   0.00000277          9.02      0.41      0.41
   0.00000277   0.00006132   0.00000277          0.41      9.02      0.41
   0.00000277   0.00000277   0.00006132          0.41      0.41      9.02


     BFGS Geometry Optimization

     number of scf cycles    =   1
     number of bfgs steps    =   0

     enthalpy new            =    -285.3164543820 Ry

     new trust radius        =       0.0079073857 bohr
     new conv_thr            =            1.0E-10 Ry

     new unit-cell volume =    665.41386 a.u.^3 (    98.60416 Ang^3 )
     density =      1.16149 g/cm^3

CELL_PARAMETERS (alat= 17.00000000)
   0.373844430   0.657101198   0.657101198
   0.657101198   0.373844430   0.657101198
   0.657101198   0.657101198   0.373844430

ATOMIC_POSITIONS (crystal)
Na       0.722229839   0.722229839   0.722229839
Na       0.277770161   0.277770161   0.277770161
Na       0.500000000   0.500000000   0.500000000



     Writing output data file na.9r.save
     NEW-OLD atomic charge density approx. for the potential
     extrapolated charge   27.12371, renormalised to   27.00000

     total cpu time spent up to now is      354.7 secs

     per-process dynamical memory:    35.0 Mb

     Self-consistent Calculation

     iteration #  1     ecut=    40.00 Ry     beta=0.70
     Davidson diagonalization with overlap
     ethr =  1.00E-06,  avg # of iterations =  3.0

     total cpu time spent up to now is      401.6 secs

     total energy              =    -285.31324396 Ry
     Harris-Foulkes estimate   =    -284.38036157 Ry
     estimated scf accuracy    <       0.00189522 Ry

     iteration #  2     ecut=    40.00 Ry     beta=0.70
     Davidson diagonalization with overlap
     ethr =  7.02E-06,  avg # of iterations =  3.0

     total cpu time spent up to now is      449.8 secs

     total energy              =    -285.31670418 Ry
     Harris-Foulkes estimate   =    -285.31809852 Ry
     estimated scf accuracy    <       0.00317717 Ry

     iteration #  3     ecut=    40.00 Ry     beta=0.70
     Davidson diagonalization with overlap
     ethr =  7.02E-06,  avg # of iterations =  2.0

     total cpu time spent up to now is      485.5 secs

     total energy              =    -285.31669593 Ry
     Harris-Foulkes estimate   =    -285.31691407 Ry
     estimated scf accuracy    <       0.00061365 Ry

     iteration #  4     ecut=    40.00 Ry     beta=0.70
     Davidson diagonalization with overlap
     ethr =  2.27E-06,  avg # of iterations =  1.0

     total cpu time spent up to now is      516.2 secs

     total energy              =    -285.31672457 Ry
     Harris-Foulkes estimate   =    -285.31672196 Ry
     estimated scf accuracy    <       0.00019666 Ry

     iteration #  5     ecut=    40.00 Ry     beta=0.70
     Davidson diagonalization with overlap
     ethr =  7.28E-07,  avg # of iterations =  1.0

     total cpu time spent up to now is      546.5 secs

     total energy              =    -285.31667247 Ry
     Harris-Foulkes estimate   =    -285.31672617 Ry
     estimated scf accuracy    <       0.00020577 Ry

     iteration #  6     ecut=    40.00 Ry     beta=0.70
     Davidson diagonalization with overlap
     ethr =  7.28E-07,  avg # of iterations =  1.0

     total cpu time spent up to now is      577.1 secs

     total energy              =    -285.31665815 Ry
     Harris-Foulkes estimate   =    -285.31667777 Ry
     estimated scf accuracy    <       0.00009433 Ry

     iteration #  7     ecut=    40.00 Ry     beta=0.70
     Davidson diagonalization with overlap
     ethr =  3.49E-07,  avg # of iterations =  1.0

     total cpu time spent up to now is      607.5 secs

     total energy              =    -285.31663734 Ry
     Harris-Foulkes estimate   =    -285.31665987 Ry
     estimated scf accuracy    <       0.00005160 Ry

     iteration #  8     ecut=    40.00 Ry     beta=0.70
     Davidson diagonalization with overlap
     ethr =  1.91E-07,  avg # of iterations =  1.0

     total cpu time spent up to now is      637.9 secs

     total energy              =    -285.31663455 Ry
     Harris-Foulkes estimate   =    -285.31664041 Ry
     estimated scf accuracy    <       0.00001081 Ry

     iteration #  9     ecut=    40.00 Ry     beta=0.70
     Davidson diagonalization with overlap
     ethr =  4.00E-08,  avg # of iterations =  2.0

     total cpu time spent up to now is      674.1 secs

     total energy              =    -285.31663616 Ry
     Harris-Foulkes estimate   =    -285.31663613 Ry
     estimated scf accuracy    <       0.00000070 Ry

     iteration # 10     ecut=    40.00 Ry     beta=0.70
     Davidson diagonalization with overlap
     ethr =  2.61E-09,  avg # of iterations =  1.0

     total cpu time spent up to now is      704.6 secs

     total energy              =    -285.31663565 Ry
     Harris-Foulkes estimate   =    -285.31663616 Ry
     estimated scf accuracy    <       0.00000076 Ry

     iteration # 11     ecut=    40.00 Ry     beta=0.70
     Davidson diagonalization with overlap
     ethr =  2.61E-09,  avg # of iterations =  2.0

     total cpu time spent up to now is      743.0 secs

     total energy              =    -285.31663581 Ry
     Harris-Foulkes estimate   =    -285.31663581 Ry
     estimated scf accuracy    <          1.3E-09 Ry

     iteration # 12     ecut=    40.00 Ry     beta=0.70
     Davidson diagonalization with overlap
     ethr =  4.86E-12,  avg # of iterations =  2.8

     total cpu time spent up to now is      777.7 secs

     total energy              =    -285.31663581 Ry
     Harris-Foulkes estimate   =    -285.31663581 Ry
     estimated scf accuracy    <          1.6E-09 Ry

     iteration # 13     ecut=    40.00 Ry     beta=0.70
     Davidson diagonalization with overlap
     ethr =  4.86E-12,  avg # of iterations =  1.0

     total cpu time spent up to now is      808.0 secs

     total energy              =    -285.31663581 Ry
     Harris-Foulkes estimate   =    -285.31663581 Ry
     estimated scf accuracy    <          1.5E-09 Ry

     iteration # 14     ecut=    40.00 Ry     beta=0.70
     Davidson diagonalization with overlap
     ethr =  4.86E-12,  avg # of iterations =  1.0

     total cpu time spent up to now is      838.0 secs

     total energy              =    -285.31663581 Ry
     Harris-Foulkes estimate   =    -285.31663581 Ry
     estimated scf accuracy    <          1.6E-09 Ry

     iteration # 15     ecut=    40.00 Ry     beta=0.70
     Davidson diagonalization with overlap
     ethr =  4.86E-12,  avg # of iterations =  2.0

     total cpu time spent up to now is      876.1 secs

     total energy              =    -285.31663581 Ry
     Harris-Foulkes estimate   =    -285.31663581 Ry
     estimated scf accuracy    <          9.4E-10 Ry

     iteration # 16     ecut=    40.00 Ry     beta=0.70
     Davidson diagonalization with overlap
     ethr =  3.49E-12,  avg # of iterations =  1.0

     total cpu time spent up to now is      905.9 secs

     total energy              =    -285.31663581 Ry
     Harris-Foulkes estimate   =    -285.31663581 Ry
     estimated scf accuracy    <          1.1E-09 Ry

     iteration # 17     ecut=    40.00 Ry     beta=0.70
     Davidson diagonalization with overlap
     ethr =  3.49E-12,  avg # of iterations =  1.0

     total cpu time spent up to now is      935.9 secs

     total energy              =    -285.31663581 Ry
     Harris-Foulkes estimate   =    -285.31663581 Ry
     estimated scf accuracy    <          8.8E-10 Ry

     iteration # 18     ecut=    40.00 Ry     beta=0.70
     Davidson diagonalization with overlap
     ethr =  3.25E-12,  avg # of iterations =  2.0

     total cpu time spent up to now is      975.3 secs

     total energy              =    -285.31663581 Ry
     Harris-Foulkes estimate   =    -285.31663581 Ry
     estimated scf accuracy    <          1.6E-09 Ry

     iteration # 19     ecut=    40.00 Ry     beta=0.70
     Davidson diagonalization with overlap
     ethr =  3.25E-12,  avg # of iterations =  2.0

     total cpu time spent up to now is     1013.7 secs

     total energy              =    -285.31663581 Ry
     Harris-Foulkes estimate   =    -285.31663581 Ry
     estimated scf accuracy    <          1.6E-10 Ry

     iteration # 20     ecut=    40.00 Ry     beta=0.70
     Davidson diagonalization with overlap
     ethr =  5.97E-13,  avg # of iterations =  2.0

     total cpu time spent up to now is     1049.5 secs

     End of self-consistent calculation

     Number of k-points >= 100: set verbosity='high' to print the bands.

     the Fermi energy is     2.1397 ev

!    total energy              =    -285.31663581 Ry
     Harris-Foulkes estimate   =    -285.31663581 Ry
     estimated scf accuracy    <          7.5E-12 Ry

     The total energy is the sum of the following terms:

     one-electron contribution =    -256.45407974 Ry
     hartree contribution      =     129.93325628 Ry
     xc contribution           =     -42.85372670 Ry
     ewald contribution        =    -115.94194297 Ry
     smearing contrib. (-TS)   =      -0.00014269 Ry

     convergence has been achieved in  20 iterations

     Forces acting on atoms (cartesian axes, Ry/au):

     atom    1 type  1   force =    -0.00000385   -0.00000385   -0.00000385
     atom    2 type  1   force =     0.00000385    0.00000385    0.00000385
     atom    3 type  1   force =    -0.00000000    0.00000000    0.00000000

     Total force =     0.000009     Total SCF correction =     0.000000


     Computing stress (Cartesian axis) and pressure

          total   stress  (Ry/bohr**3)                   (kbar)     P=    8.42
   0.00005722   0.00000266   0.00000266          8.42      0.39      0.39
   0.00000266   0.00005722   0.00000266          0.39      8.42      0.39
   0.00000266   0.00000266   0.00005722          0.39      0.39      8.42


     number of scf cycles    =   2
     number of bfgs steps    =   1

     enthalpy old            =    -285.3164543820 Ry
     enthalpy new            =    -285.3166358134 Ry

     CASE: enthalpy_new < enthalpy_old


     WARNING: bfgs curvature condition failed, Theta= 0.855
     new trust radius        =       0.0087046787 bohr
     new conv_thr            =            1.0E-12 Ry

     new unit-cell volume =    668.78059 a.u.^3 (    99.10306 Ang^3 )
     density =      1.15564 g/cm^3

CELL_PARAMETERS (alat= 17.00000000)
   0.374575357   0.658287171   0.658287171
   0.658287171   0.374575357   0.658287171
   0.658287171   0.658287171   0.374575357

ATOMIC_POSITIONS (crystal)
Na       0.722229675   0.722229675   0.722229675
Na       0.277770325   0.277770325   0.277770325
Na       0.500000000   0.500000000   0.500000000



     Writing output data file na.9r.save
     NEW-OLD atomic charge density approx. for the potential
     extrapolated charge   27.13583, renormalised to   27.00000

     total cpu time spent up to now is     1056.0 secs

     per-process dynamical memory:    35.2 Mb

     Self-consistent Calculation

     iteration #  1     ecut=    40.00 Ry     beta=0.70
     Davidson diagonalization with overlap
     ethr =  1.00E-06,  avg # of iterations =  3.0

     total cpu time spent up to now is     1102.5 secs

     total energy              =    -285.31272395 Ry
     Harris-Foulkes estimate   =    -284.28735587 Ry
     estimated scf accuracy    <       0.00228920 Ry

     iteration #  2     ecut=    40.00 Ry     beta=0.70
     Davidson diagonalization with overlap
     ethr =  8.48E-06,  avg # of iterations =  3.0

     total cpu time spent up to now is     1150.3 secs

     total energy              =    -285.31690447 Ry
     Harris-Foulkes estimate   =    -285.31858864 Ry
     estimated scf accuracy    <       0.00383751 Ry

     iteration #  3     ecut=    40.00 Ry     beta=0.70
     Davidson diagonalization with overlap
     ethr =  8.48E-06,  avg # of iterations =  2.0

     total cpu time spent up to now is     1186.0 secs

     total energy              =    -285.31689333 Ry
     Harris-Foulkes estimate   =    -285.31715776 Ry
     estimated scf accuracy    <       0.00074180 Ry

     iteration #  4     ecut=    40.00 Ry     beta=0.70
     Davidson diagonalization with overlap
     ethr =  2.75E-06,  avg # of iterations =  1.0

     total cpu time spent up to now is     1216.3 secs

     total energy              =    -285.31692903 Ry
     Harris-Foulkes estimate   =    -285.31692494 Ry
     estimated scf accuracy    <       0.00023668 Ry

     iteration #  5     ecut=    40.00 Ry     beta=0.70
     Davidson diagonalization with overlap
     ethr =  8.77E-07,  avg # of iterations =  1.0

     total cpu time spent up to now is     1247.0 secs

     total energy              =    -285.31686550 Ry
     Harris-Foulkes estimate   =    -285.31693097 Ry
     estimated scf accuracy    <       0.00024977 Ry

     iteration #  6     ecut=    40.00 Ry     beta=0.70
     Davidson diagonalization with overlap
     ethr =  8.77E-07,  avg # of iterations =  1.0

     total cpu time spent up to now is     1276.6 secs

     total energy              =    -285.31684900 Ry
     Harris-Foulkes estimate   =    -285.31687199 Ry
     estimated scf accuracy    <       0.00011398 Ry

     iteration #  7     ecut=    40.00 Ry     beta=0.70
     Davidson diagonalization with overlap
     ethr =  4.22E-07,  avg # of iterations =  1.0

     total cpu time spent up to now is     1307.0 secs

     total energy              =    -285.31682356 Ry
     Harris-Foulkes estimate   =    -285.31685099 Ry
     estimated scf accuracy    <       0.00006362 Ry

     iteration #  8     ecut=    40.00 Ry     beta=0.70
     Davidson diagonalization with overlap
     ethr =  2.36E-07,  avg # of iterations =  1.0

     total cpu time spent up to now is     1336.7 secs

     total energy              =    -285.31681974 Ry
     Harris-Foulkes estimate   =    -285.31682721 Ry
     estimated scf accuracy    <       0.00001389 Ry

     iteration #  9     ecut=    40.00 Ry     beta=0.70
     Davidson diagonalization with overlap
     ethr =  5.14E-08,  avg # of iterations =  2.0

     total cpu time spent up to now is     1373.1 secs

     total energy              =    -285.31682167 Ry
     Harris-Foulkes estimate   =    -285.31682172 Ry
     estimated scf accuracy    <       0.00000095 Ry

     iteration # 10     ecut=    40.00 Ry     beta=0.70
     Davidson diagonalization with overlap
     ethr =  3.53E-09,  avg # of iterations =  1.0

     total cpu time spent up to now is     1403.4 secs

     total energy              =    -285.31682109 Ry
     Harris-Foulkes estimate   =    -285.31682168 Ry
     estimated scf accuracy    <       0.00000086 Ry

     iteration # 11     ecut=    40.00 Ry     beta=0.70
     Davidson diagonalization with overlap
     ethr =  3.17E-09,  avg # of iterations =  2.0

     total cpu time spent up to now is     1441.4 secs

     total energy              =    -285.31682128 Ry
     Harris-Foulkes estimate   =    -285.31682128 Ry
     estimated scf accuracy    <          3.1E-09 Ry

     iteration # 12     ecut=    40.00 Ry     beta=0.70
     Davidson diagonalization with overlap
     ethr =  1.15E-11,  avg # of iterations =  2.5

     total cpu time spent up to now is     1474.3 secs

     total energy              =    -285.31682128 Ry
     Harris-Foulkes estimate   =    -285.31682128 Ry
     estimated scf accuracy    <          3.9E-09 Ry

     iteration # 13     ecut=    40.00 Ry     beta=0.70
     Davidson diagonalization with overlap
     ethr =  1.15E-11,  avg # of iterations =  1.0

     total cpu time spent up to now is     1504.0 secs

     total energy              =    -285.31682128 Ry
     Harris-Foulkes estimate   =    -285.31682128 Ry
     estimated scf accuracy    <          3.9E-09 Ry

     iteration # 14     ecut=    40.00 Ry     beta=0.70
     Davidson diagonalization with overlap
     ethr =  1.15E-11,  avg # of iterations =  1.0

     total cpu time spent up to now is     1534.1 secs

     total energy              =    -285.31682128 Ry
     Harris-Foulkes estimate   =    -285.31682128 Ry
     estimated scf accuracy    <          3.9E-09 Ry

     iteration # 15     ecut=    40.00 Ry     beta=0.70
     Davidson diagonalization with overlap
     ethr =  1.15E-11,  avg # of iterations =  2.0

     total cpu time spent up to now is     1571.8 secs

     total energy              =    -285.31682128 Ry
     Harris-Foulkes estimate   =    -285.31682128 Ry
     estimated scf accuracy    <          9.6E-10 Ry

     iteration # 16     ecut=    40.00 Ry     beta=0.70
     Davidson diagonalization with overlap
     ethr =  3.56E-12,  avg # of iterations =  1.0

     total cpu time spent up to now is     1602.1 secs

     total energy              =    -285.31682128 Ry
     Harris-Foulkes estimate   =    -285.31682128 Ry
     estimated scf accuracy    <          6.5E-10 Ry

     iteration # 17     ecut=    40.00 Ry     beta=0.70
     Davidson diagonalization with overlap
     ethr =  2.42E-12,  avg # of iterations =  1.0

     total cpu time spent up to now is     1632.1 secs

     total energy              =    -285.31682128 Ry
     Harris-Foulkes estimate   =    -285.31682128 Ry
     estimated scf accuracy    <          3.0E-10 Ry

     iteration # 18     ecut=    40.00 Ry     beta=0.70
     Davidson diagonalization with overlap
     ethr =  1.13E-12,  avg # of iterations =  1.9

     total cpu time spent up to now is     1663.8 secs

     total energy              =    -285.31682128 Ry
     Harris-Foulkes estimate   =    -285.31682128 Ry
     estimated scf accuracy    <          8.6E-11 Ry

     iteration # 19     ecut=    40.00 Ry     beta=0.70
     Davidson diagonalization with overlap
     ethr =  3.20E-13,  avg # of iterations =  2.0

     total cpu time spent up to now is     1701.7 secs

     total energy              =    -285.31682128 Ry
     Harris-Foulkes estimate   =    -285.31682128 Ry
     estimated scf accuracy    <          4.8E-11 Ry

     iteration # 20     ecut=    40.00 Ry     beta=0.70
     Davidson diagonalization with overlap
     ethr =  1.79E-13,  avg # of iterations =  1.0

     total cpu time spent up to now is     1731.2 secs

     total energy              =    -285.31682128 Ry
     Harris-Foulkes estimate   =    -285.31682128 Ry
     estimated scf accuracy    <          9.8E-12 Ry

     iteration # 21     ecut=    40.00 Ry     beta=0.70
     Davidson diagonalization with overlap
     ethr =  1.00E-13,  avg # of iterations =  1.0

     total cpu time spent up to now is     1760.7 secs

     End of self-consistent calculation

     Number of k-points >= 100: set verbosity='high' to print the bands.

     the Fermi energy is     2.1158 ev

!    total energy              =    -285.31682128 Ry
     Harris-Foulkes estimate   =    -285.31682128 Ry
     estimated scf accuracy    <          4.4E-14 Ry

     The total energy is the sum of the following terms:

     one-electron contribution =    -256.79485053 Ry
     hartree contribution      =     130.07689031 Ry
     xc contribution           =     -42.85160143 Ry
     ewald contribution        =    -115.74711744 Ry
     smearing contrib. (-TS)   =      -0.00014219 Ry

     convergence has been achieved in  21 iterations

     Forces acting on atoms (cartesian axes, Ry/au):

     atom    1 type  1   force =    -0.00000379   -0.00000379   -0.00000379
     atom    2 type  1   force =     0.00000379    0.00000379    0.00000379
     atom    3 type  1   force =     0.00000000    0.00000000    0.00000000

     Total force =     0.000009     Total SCF correction =     0.000000


     Computing stress (Cartesian axis) and pressure

          total   stress  (Ry/bohr**3)                   (kbar)     P=    7.74
   0.00005260   0.00000253   0.00000253          7.74      0.37      0.37
   0.00000253   0.00005260   0.00000253          0.37      7.74      0.37
   0.00000253   0.00000253   0.00005260          0.37      0.37      7.74


     number of scf cycles    =   3
     number of bfgs steps    =   2

     enthalpy old            =    -285.3166358134 Ry
     enthalpy new            =    -285.3168212820 Ry

     CASE: enthalpy_new < enthalpy_old

     new trust radius        =       0.0130678174 bohr
     new conv_thr            =            1.0E-12 Ry

     new unit-cell volume =    673.85123 a.u.^3 (    99.85445 Ang^3 )
     density =      1.14694 g/cm^3

CELL_PARAMETERS (alat= 17.00000000)
   0.375676274   0.660069563   0.660069563
   0.660069563   0.375676274   0.660069563
   0.660069563   0.660069563   0.375676274

ATOMIC_POSITIONS (crystal)
Na       0.722229414   0.722229414   0.722229414
Na       0.277770586   0.277770586   0.277770586
Na       0.500000000   0.500000000   0.500000000



     Writing output data file na.9r.save
     NEW-OLD atomic charge density approx. for the potential
     extrapolated charge   27.20303, renormalised to   27.00000

     total cpu time spent up to now is     1767.1 secs

     per-process dynamical memory:    35.2 Mb

     Self-consistent Calculation

     iteration #  1     ecut=    40.00 Ry     beta=0.70
     Davidson diagonalization with overlap
     ethr =  1.00E-06,  avg # of iterations =  3.1

     total cpu time spent up to now is     1814.8 secs

     total energy              =    -285.30783015 Ry
     Harris-Foulkes estimate   =    -283.77442544 Ry
     estimated scf accuracy    <       0.00516064 Ry

     iteration #  2     ecut=    40.00 Ry     beta=0.70
     Davidson diagonalization with overlap
     ethr =  1.91E-05,  avg # of iterations =  3.0

     total cpu time spent up to now is     1862.9 secs

     total energy              =    -285.31726771 Ry
     Harris-Foulkes estimate   =    -285.32106519 Ry
     estimated scf accuracy    <       0.00865340 Ry

     iteration #  3     ecut=    40.00 Ry     beta=0.70
     Davidson diagonalization with overlap
     ethr =  1.91E-05,  avg # of iterations =  2.0

     total cpu time spent up to now is     1898.7 secs

     total energy              =    -285.31723560 Ry
     Harris-Foulkes estimate   =    -285.31783582 Ry
     estimated scf accuracy    <       0.00168176 Ry

     iteration #  4     ecut=    40.00 Ry     beta=0.70
     Davidson diagonalization with overlap
     ethr =  6.23E-06,  avg # of iterations =  1.0

     total cpu time spent up to now is     1928.9 secs

     total energy              =    -285.31731447 Ry
     Harris-Foulkes estimate   =    -285.31730733 Ry
     estimated scf accuracy    <       0.00053622 Ry

     iteration #  5     ecut=    40.00 Ry     beta=0.70
     Davidson diagonalization with overlap
     ethr =  1.99E-06,  avg # of iterations =  1.0

     total cpu time spent up to now is     1959.3 secs

     total energy              =    -285.31717254 Ry
     Harris-Foulkes estimate   =    -285.31731889 Ry
     estimated scf accuracy    <       0.00056133 Ry

     iteration #  6     ecut=    40.00 Ry     beta=0.70
     Davidson diagonalization with overlap
     ethr =  1.99E-06,  avg # of iterations =  1.0

     total cpu time spent up to now is     1989.6 secs

     total energy              =    -285.31713424 Ry
     Harris-Foulkes estimate   =    -285.31718696 Ry
     estimated scf accuracy    <       0.00025769 Ry

     iteration #  7     ecut=    40.00 Ry     beta=0.70
     Davidson diagonalization with overlap
     ethr =  9.54E-07,  avg # of iterations =  1.0

     total cpu time spent up to now is     2020.2 secs

     total energy              =    -285.31707690 Ry
     Harris-Foulkes estimate   =    -285.31713881 Ry
     estimated scf accuracy    <       0.00014266 Ry

     iteration #  8     ecut=    40.00 Ry     beta=0.70
     Davidson diagonalization with overlap
     ethr =  5.28E-07,  avg # of iterations =  1.0

     total cpu time spent up to now is     2050.4 secs

     total energy              =    -285.31706787 Ry
     Harris-Foulkes estimate   =    -285.31708524 Ry
     estimated scf accuracy    <       0.00003056 Ry

     iteration #  9     ecut=    40.00 Ry     beta=0.70
     Davidson diagonalization with overlap
     ethr =  1.13E-07,  avg # of iterations =  2.0

     total cpu time spent up to now is     2087.5 secs

     total energy              =    -285.31707282 Ry
     Harris-Foulkes estimate   =    -285.31707280 Ry
     estimated scf accuracy    <       0.00000132 Ry

     iteration # 10     ecut=    40.00 Ry     beta=0.70
     Davidson diagonalization with overlap
     ethr =  4.89E-09,  avg # of iterations =  1.0

     total cpu time spent up to now is     2118.0 secs

     total energy              =    -285.31707190 Ry
     Harris-Foulkes estimate   =    -285.31707283 Ry
     estimated scf accuracy    <       0.00000137 Ry

     iteration # 11     ecut=    40.00 Ry     beta=0.70
     Davidson diagonalization with overlap
     ethr =  4.89E-09,  avg # of iterations =  2.0

     total cpu time spent up to now is     2156.2 secs

     total energy              =    -285.31707221 Ry
     Harris-Foulkes estimate   =    -285.31707220 Ry
     estimated scf accuracy    <          7.4E-09 Ry

     iteration # 12     ecut=    40.00 Ry     beta=0.70
     Davidson diagonalization with overlap
     ethr =  2.75E-11,  avg # of iterations =  2.4

     total cpu time spent up to now is     2190.6 secs

     total energy              =    -285.31707221 Ry
     Harris-Foulkes estimate   =    -285.31707221 Ry
     estimated scf accuracy    <          9.7E-09 Ry

     iteration # 13     ecut=    40.00 Ry     beta=0.70
     Davidson diagonalization with overlap
     ethr =  2.75E-11,  avg # of iterations =  1.0

     total cpu time spent up to now is     2220.8 secs

     total energy              =    -285.31707221 Ry
     Harris-Foulkes estimate   =    -285.31707221 Ry
     estimated scf accuracy    <          9.2E-09 Ry

     iteration # 14     ecut=    40.00 Ry     beta=0.70
     Davidson diagonalization with overlap
     ethr =  2.75E-11,  avg # of iterations =  1.0

     total cpu time spent up to now is     2251.5 secs

     total energy              =    -285.31707220 Ry
     Harris-Foulkes estimate   =    -285.31707221 Ry
     estimated scf accuracy    <       0.00000001 Ry

     iteration # 15     ecut=    40.00 Ry     beta=0.70
     Davidson diagonalization with overlap
     ethr =  2.75E-11,  avg # of iterations =  2.0

     total cpu time spent up to now is     2290.0 secs

     total energy              =    -285.31707220 Ry
     Harris-Foulkes estimate   =    -285.31707220 Ry
     estimated scf accuracy    <          5.0E-09 Ry

     iteration # 16     ecut=    40.00 Ry     beta=0.70
     Davidson diagonalization with overlap
     ethr =  1.86E-11,  avg # of iterations =  1.0

     total cpu time spent up to now is     2320.8 secs

     total energy              =    -285.31707220 Ry
     Harris-Foulkes estimate   =    -285.31707220 Ry
     estimated scf accuracy    <          6.2E-09 Ry

     iteration # 17     ecut=    40.00 Ry     beta=0.70
     Davidson diagonalization with overlap
     ethr =  1.86E-11,  avg # of iterations =  1.0

     total cpu time spent up to now is     2351.3 secs

     total energy              =    -285.31707221 Ry
     Harris-Foulkes estimate   =    -285.31707220 Ry
     estimated scf accuracy    <          6.0E-09 Ry

     iteration # 18     ecut=    40.00 Ry     beta=0.70
     Davidson diagonalization with overlap
     ethr =  1.86E-11,  avg # of iterations =  2.0

     total cpu time spent up to now is     2392.1 secs

     total energy              =    -285.31707220 Ry
     Harris-Foulkes estimate   =    -285.31707221 Ry
     estimated scf accuracy    <          8.7E-09 Ry

     iteration # 19     ecut=    40.00 Ry     beta=0.70
     Davidson diagonalization with overlap
     ethr =  1.86E-11,  avg # of iterations =  1.0

     total cpu time spent up to now is     2422.9 secs

     total energy              =    -285.31707220 Ry
     Harris-Foulkes estimate   =    -285.31707220 Ry
     estimated scf accuracy    <          3.1E-09 Ry

     iteration # 20     ecut=    40.00 Ry     beta=0.70
     Davidson diagonalization with overlap
     ethr =  1.13E-11,  avg # of iterations =  1.0

     total cpu time spent up to now is     2453.6 secs

     total energy              =    -285.31707220 Ry
     Harris-Foulkes estimate   =    -285.31707220 Ry
     estimated scf accuracy    <          3.0E-10 Ry

     iteration # 21     ecut=    40.00 Ry     beta=0.70
     Davidson diagonalization with overlap
     ethr =  1.10E-12,  avg # of iterations =  1.7

     total cpu time spent up to now is     2485.5 secs

     total energy              =    -285.31707220 Ry
     Harris-Foulkes estimate   =    -285.31707220 Ry
     estimated scf accuracy    <          2.3E-10 Ry

     iteration # 22     ecut=    40.00 Ry     beta=0.70
     Davidson diagonalization with overlap
     ethr =  8.68E-13,  avg # of iterations =  2.0

     total cpu time spent up to now is     2523.9 secs

     total energy              =    -285.31707220 Ry
     Harris-Foulkes estimate   =    -285.31707220 Ry
     estimated scf accuracy    <          2.7E-12 Ry

     iteration # 23     ecut=    40.00 Ry     beta=0.70
     Davidson diagonalization with overlap
     ethr =  1.00E-13,  avg # of iterations =  1.0

     total cpu time spent up to now is     2554.6 secs

     End of self-consistent calculation

     Number of k-points >= 100: set verbosity='high' to print the bands.

     the Fermi energy is     2.0803 ev

!    total energy              =    -285.31707220 Ry
     Harris-Foulkes estimate   =    -285.31707220 Ry
     estimated scf accuracy    <          3.6E-14 Ry

     The total energy is the sum of the following terms:

     one-electron contribution =    -257.30393047 Ry
     hartree contribution      =     130.29158411 Ry
     xc contribution           =     -42.84844086 Ry
     ewald contribution        =    -115.45614352 Ry
     smearing contrib. (-TS)   =      -0.00014146 Ry

     convergence has been achieved in  23 iterations

     Forces acting on atoms (cartesian axes, Ry/au):

     atom    1 type  1   force =    -0.00000368   -0.00000368   -0.00000368
     atom    2 type  1   force =     0.00000368    0.00000368    0.00000368
     atom    3 type  1   force =     0.00000000    0.00000000   -0.00000000

     Total force =     0.000009     Total SCF correction =     0.000000


     Computing stress (Cartesian axis) and pressure

          total   stress  (Ry/bohr**3)                   (kbar)     P=    6.76
   0.00004596   0.00000235   0.00000235          6.76      0.35      0.35
   0.00000235   0.00004596   0.00000235          0.35      6.76      0.35
   0.00000235   0.00000235   0.00004596          0.35      0.35      6.76


     number of scf cycles    =   4
     number of bfgs steps    =   3

     enthalpy old            =    -285.3168212820 Ry
     enthalpy new            =    -285.3170722028 Ry

     CASE: enthalpy_new < enthalpy_old

     new trust radius        =       0.0196259706 bohr
     new conv_thr            =            1.0E-12 Ry

     new unit-cell volume =    681.50397 a.u.^3 (   100.98847 Ang^3 )
     density =      1.13406 g/cm^3

CELL_PARAMETERS (alat= 17.00000000)
   0.377334713   0.662748500   0.662748500
   0.662748500   0.377334713   0.662748500
   0.662748500   0.662748500   0.377334713

ATOMIC_POSITIONS (crystal)
Na       0.722229002   0.722229002   0.722229002
Na       0.277770998   0.277770998   0.277770998
Na       0.500000000   0.500000000   0.500000000



     Writing output data file na.9r.save
     NEW-OLD atomic charge density approx. for the potential
     extrapolated charge   27.30298, renormalised to   27.00000

     total cpu time spent up to now is     2561.2 secs

     per-process dynamical memory:    35.2 Mb

     Self-consistent Calculation

     iteration #  1     ecut=    40.00 Ry     beta=0.70
     Davidson diagonalization with overlap
     ethr =  1.00E-06,  avg # of iterations =  3.5

     total cpu time spent up to now is     2613.7 secs

     total energy              =    -285.29651100 Ry
     Harris-Foulkes estimate   =    -283.00683549 Ry
     estimated scf accuracy    <       0.01164951 Ry

     iteration #  2     ecut=    40.00 Ry     beta=0.70
     Davidson diagonalization with overlap
     ethr =  4.31E-05,  avg # of iterations =  3.0

     total cpu time spent up to now is     2662.0 secs

     total energy              =    -285.31785643 Ry
     Harris-Foulkes estimate   =    -285.32643011 Ry
     estimated scf accuracy    <       0.01953767 Ry

     iteration #  3     ecut=    40.00 Ry     beta=0.70
     Davidson diagonalization with overlap
     ethr =  4.31E-05,  avg # of iterations =  2.0

     total cpu time spent up to now is     2697.4 secs

     total energy              =    -285.31775743 Ry
     Harris-Foulkes estimate   =    -285.31912920 Ry
     estimated scf accuracy    <       0.00382614 Ry

     iteration #  4     ecut=    40.00 Ry     beta=0.70
     Davidson diagonalization with overlap
     ethr =  1.42E-05,  avg # of iterations =  1.0

     total cpu time spent up to now is     2727.9 secs

     total energy              =    -285.31794603 Ry
     Harris-Foulkes estimate   =    -285.31792135 Ry
     estimated scf accuracy    <       0.00121344 Ry

     iteration #  5     ecut=    40.00 Ry     beta=0.70
     Davidson diagonalization with overlap
     ethr =  4.49E-06,  avg # of iterations =  1.0

     total cpu time spent up to now is     2758.1 secs

     total energy              =    -285.31763898 Ry
     Harris-Foulkes estimate   =    -285.31795600 Ry
     estimated scf accuracy    <       0.00128923 Ry

     iteration #  6     ecut=    40.00 Ry     beta=0.70
     Davidson diagonalization with overlap
     ethr =  4.49E-06,  avg # of iterations =  1.0

     total cpu time spent up to now is     2788.5 secs

     total energy              =    -285.31754906 Ry
     Harris-Foulkes estimate   =    -285.31766858 Ry
     estimated scf accuracy    <       0.00062558 Ry

     iteration #  7     ecut=    40.00 Ry     beta=0.70
     Davidson diagonalization with overlap
     ethr =  2.32E-06,  avg # of iterations =  1.0

     total cpu time spent up to now is     2818.4 secs

     total energy              =    -285.31741289 Ry
     Harris-Foulkes estimate   =    -285.31755860 Ry
     estimated scf accuracy    <       0.00036379 Ry

     iteration #  8     ecut=    40.00 Ry     beta=0.70
     Davidson diagonalization with overlap
     ethr =  1.35E-06,  avg # of iterations =  1.0

     total cpu time spent up to now is     2848.8 secs

     total energy              =    -285.31736956 Ry
     Harris-Foulkes estimate   =    -285.31743036 Ry
     estimated scf accuracy    <       0.00009575 Ry

     iteration #  9     ecut=    40.00 Ry     beta=0.70
     Davidson diagonalization with overlap
     ethr =  3.55E-07,  avg # of iterations =  2.0

     total cpu time spent up to now is     2886.8 secs

     total energy              =    -285.31738880 Ry
     Harris-Foulkes estimate   =    -285.31738882 Ry
     estimated scf accuracy    <       0.00000064 Ry

     iteration # 10     ecut=    40.00 Ry     beta=0.70
     Davidson diagonalization with overlap
     ethr =  2.36E-09,  avg # of iterations =  1.8

     total cpu time spent up to now is     2918.2 secs

     total energy              =    -285.31738846 Ry
     Harris-Foulkes estimate   =    -285.31738882 Ry
     estimated scf accuracy    <       0.00000059 Ry

     iteration # 11     ecut=    40.00 Ry     beta=0.70
     Davidson diagonalization with overlap
     ethr =  2.17E-09,  avg # of iterations =  2.0

     total cpu time spent up to now is     2956.3 secs

     total energy              =    -285.31738859 Ry
     Harris-Foulkes estimate   =    -285.31738857 Ry
     estimated scf accuracy    <       0.00000009 Ry

     iteration # 12     ecut=    40.00 Ry     beta=0.70
     Davidson diagonalization with overlap
     ethr =  3.16E-10,  avg # of iterations =  1.4

     total cpu time spent up to now is     2987.6 secs

     total energy              =    -285.31738860 Ry
     Harris-Foulkes estimate   =    -285.31738860 Ry
     estimated scf accuracy    <       0.00000016 Ry

     iteration # 13     ecut=    40.00 Ry     beta=0.70
     Davidson diagonalization with overlap
     ethr =  3.16E-10,  avg # of iterations =  1.0

     total cpu time spent up to now is     3017.8 secs

     total energy              =    -285.31738863 Ry
     Harris-Foulkes estimate   =    -285.31738860 Ry
     estimated scf accuracy    <       0.00000016 Ry

     iteration # 14     ecut=    40.00 Ry     beta=0.70
     Davidson diagonalization with overlap
     ethr =  3.16E-10,  avg # of iterations =  2.0

     total cpu time spent up to now is     3056.9 secs

     total energy              =    -285.31738849 Ry
     Harris-Foulkes estimate   =    -285.31738865 Ry
     estimated scf accuracy    <       0.00000024 Ry

     iteration # 15     ecut=    40.00 Ry     beta=0.70
     Davidson diagonalization with overlap
     ethr =  3.16E-10,  avg # of iterations =  2.0

     total cpu time spent up to now is     3095.4 secs

     total energy              =    -285.31738854 Ry
     Harris-Foulkes estimate   =    -285.31738854 Ry
     estimated scf accuracy    <          9.6E-10 Ry

     iteration # 16     ecut=    40.00 Ry     beta=0.70
     Davidson diagonalization with overlap
     ethr =  3.56E-12,  avg # of iterations =  1.5

     total cpu time spent up to now is     3126.6 secs

     total energy              =    -285.31738854 Ry
     Harris-Foulkes estimate   =    -285.31738854 Ry
     estimated scf accuracy    <          1.8E-10 Ry

     iteration # 17     ecut=    40.00 Ry     beta=0.70
     Davidson diagonalization with overlap
     ethr =  6.83E-13,  avg # of iterations =  1.7

     total cpu time spent up to now is     3158.6 secs

     total energy              =    -285.31738854 Ry
     Harris-Foulkes estimate   =    -285.31738854 Ry
     estimated scf accuracy    <          4.0E-12 Ry

     iteration # 18     ecut=    40.00 Ry     beta=0.70
     Davidson diagonalization with overlap
     ethr =  1.00E-13,  avg # of iterations =  1.0

     total cpu time spent up to now is     3188.8 secs

     End of self-consistent calculation

     Number of k-points >= 100: set verbosity='high' to print the bands.

     the Fermi energy is     2.0277 ev

!    total energy              =    -285.31738854 Ry
     Harris-Foulkes estimate   =    -285.31738854 Ry
     estimated scf accuracy    <          5.5E-13 Ry

     The total energy is the sum of the following terms:

     one-electron contribution =    -258.06290332 Ry
     hartree contribution      =     130.61188064 Ry
     xc contribution           =     -42.84374749 Ry
     ewald contribution        =    -115.02247798 Ry
     smearing contrib. (-TS)   =      -0.00014039 Ry

     convergence has been achieved in  18 iterations

     Forces acting on atoms (cartesian axes, Ry/au):

     atom    1 type  1   force =    -0.00000362   -0.00000362   -0.00000362
     atom    2 type  1   force =     0.00000362    0.00000362    0.00000362
     atom    3 type  1   force =     0.00000000    0.00000000   -0.00000000

     Total force =     0.000009     Total SCF correction =     0.000001
     SCF correction compared to forces is large: reduce conv_thr to get better values


     Computing stress (Cartesian axis) and pressure

          total   stress  (Ry/bohr**3)                   (kbar)     P=    5.35
   0.00003640   0.00000207   0.00000207          5.35      0.31      0.31
   0.00000207   0.00003640   0.00000207          0.31      5.35      0.31
   0.00000207   0.00000207   0.00003640          0.31      0.31      5.35


     number of scf cycles    =   5
     number of bfgs steps    =   4

     enthalpy old            =    -285.3170722028 Ry
     enthalpy new            =    -285.3173885442 Ry

     CASE: enthalpy_new < enthalpy_old

     new trust radius        =       0.0294933536 bohr
     new conv_thr            =            1.0E-12 Ry

     new unit-cell volume =    693.08911 a.u.^3 (   102.70521 Ang^3 )
     density =      1.11511 g/cm^3

CELL_PARAMETERS (alat= 17.00000000)
   0.379835046   0.666776496   0.666776496
   0.666776496   0.379835046   0.666776496
   0.666776496   0.666776496   0.379835046

ATOMIC_POSITIONS (crystal)
Na       0.722228338   0.722228338   0.722228338
Na       0.277771662   0.277771662   0.277771662
Na       0.500000000   0.500000000   0.500000000



     Writing output data file na.9r.save
     NEW-OLD atomic charge density approx. for the potential
     extrapolated charge   27.45100, renormalised to   27.00000

     total cpu time spent up to now is     3195.3 secs

     per-process dynamical memory:    35.2 Mb

     Self-consistent Calculation

     iteration #  1     ecut=    40.00 Ry     beta=0.70
     Davidson diagonalization with overlap
     ethr =  1.00E-06,  avg # of iterations =  4.4

     total cpu time spent up to now is     3250.5 secs

     total energy              =    -285.27046319 Ry
     Harris-Foulkes estimate   =    -281.85964534 Ry
     estimated scf accuracy    <       0.02635216 Ry

     iteration #  2     ecut=    40.00 Ry     beta=0.70
     Davidson diagonalization with overlap
     ethr =  9.76E-05,  avg # of iterations =  3.0

     total cpu time spent up to now is     3298.6 secs

     total energy              =    -285.31887973 Ry
     Harris-Foulkes estimate   =    -285.33827506 Ry
     estimated scf accuracy    <       0.04419676 Ry

     iteration #  3     ecut=    40.00 Ry     beta=0.70
     Davidson diagonalization with overlap
     ethr =  9.76E-05,  avg # of iterations =  2.0

     total cpu time spent up to now is     3333.8 secs

     total energy              =    -285.31857742 Ry
     Harris-Foulkes estimate   =    -285.32172511 Ry
     estimated scf accuracy    <       0.00875646 Ry

     iteration #  4     ecut=    40.00 Ry     beta=0.70
     Davidson diagonalization with overlap
     ethr =  3.24E-05,  avg # of iterations =  1.0

     total cpu time spent up to now is     3364.0 secs

     total energy              =    -285.31901101 Ry
     Harris-Foulkes estimate   =    -285.31895339 Ry
     estimated scf accuracy    <       0.00277261 Ry

     iteration #  5     ecut=    40.00 Ry     beta=0.70
     Davidson diagonalization with overlap
     ethr =  1.03E-05,  avg # of iterations =  1.0

     total cpu time spent up to now is     3394.6 secs

     total energy              =    -285.31829951 Ry
     Harris-Foulkes estimate   =    -285.31903387 Ry
     estimated scf accuracy    <       0.00295019 Ry

     iteration #  6     ecut=    40.00 Ry     beta=0.70
     Davidson diagonalization with overlap
     ethr =  1.03E-05,  avg # of iterations =  1.0

     total cpu time spent up to now is     3424.8 secs

     total energy              =    -285.31811750 Ry
     Harris-Foulkes estimate   =    -285.31836848 Ry
     estimated scf accuracy    <       0.00141846 Ry

     iteration #  7     ecut=    40.00 Ry     beta=0.70
     Davidson diagonalization with overlap
     ethr =  5.25E-06,  avg # of iterations =  1.0

     total cpu time spent up to now is     3455.2 secs

     total energy              =    -285.31781298 Ry
     Harris-Foulkes estimate   =    -285.31813701 Ry
     estimated scf accuracy    <       0.00086183 Ry

     iteration #  8     ecut=    40.00 Ry     beta=0.70
     Davidson diagonalization with overlap
     ethr =  3.19E-06,  avg # of iterations =  1.0

     total cpu time spent up to now is     3485.4 secs

     total energy              =    -285.31767571 Ry
     Harris-Foulkes estimate   =    -285.31784806 Ry
     estimated scf accuracy    <       0.00026090 Ry

     iteration #  9     ecut=    40.00 Ry     beta=0.70
     Davidson diagonalization with overlap
     ethr =  9.66E-07,  avg # of iterations =  2.0

     total cpu time spent up to now is     3524.0 secs

     total energy              =    -285.31773278 Ry
     Harris-Foulkes estimate   =    -285.31773274 Ry
     estimated scf accuracy    <       0.00000062 Ry

     iteration # 10     ecut=    40.00 Ry     beta=0.70
     Davidson diagonalization with overlap
     ethr =  2.31E-09,  avg # of iterations =  2.3

     total cpu time spent up to now is     3556.9 secs

     total energy              =    -285.31773268 Ry
     Harris-Foulkes estimate   =    -285.31773282 Ry
     estimated scf accuracy    <       0.00000069 Ry

     iteration # 11     ecut=    40.00 Ry     beta=0.70
     Davidson diagonalization with overlap
     ethr =  2.31E-09,  avg # of iterations =  2.0

     total cpu time spent up to now is     3592.5 secs

     total energy              =    -285.31773289 Ry
     Harris-Foulkes estimate   =    -285.31773274 Ry
     estimated scf accuracy    <       0.00000057 Ry

     iteration # 12     ecut=    40.00 Ry     beta=0.70
     Davidson diagonalization with overlap
     ethr =  2.11E-09,  avg # of iterations =  1.0

     total cpu time spent up to now is     3622.7 secs

     total energy              =    -285.31773287 Ry
     Harris-Foulkes estimate   =    -285.31773293 Ry
     estimated scf accuracy    <       0.00000112 Ry

     iteration # 13     ecut=    40.00 Ry     beta=0.70
     Davidson diagonalization with overlap
     ethr =  2.11E-09,  avg # of iterations =  1.0

     total cpu time spent up to now is     3652.9 secs

     total energy              =    -285.31773279 Ry
     Harris-Foulkes estimate   =    -285.31773288 Ry
     estimated scf accuracy    <       0.00000098 Ry

     iteration # 14     ecut=    40.00 Ry     beta=0.70
     Davidson diagonalization with overlap
     ethr =  2.11E-09,  avg # of iterations =  1.9

     total cpu time spent up to now is     3685.0 secs

     total energy              =    -285.31773243 Ry
     Harris-Foulkes estimate   =    -285.31773284 Ry
     estimated scf accuracy    <       0.00000067 Ry

     iteration # 15     ecut=    40.00 Ry     beta=0.70
     Davidson diagonalization with overlap
     ethr =  2.11E-09,  avg # of iterations =  2.0

     total cpu time spent up to now is     3723.4 secs

     total energy              =    -285.31773256 Ry
     Harris-Foulkes estimate   =    -285.31773256 Ry
     estimated scf accuracy    <          9.1E-11 Ry

     iteration # 16     ecut=    40.00 Ry     beta=0.70
     Davidson diagonalization with overlap
     ethr =  3.36E-13,  avg # of iterations =  2.3

     total cpu time spent up to now is     3764.0 secs

     total energy              =    -285.31773256 Ry
     Harris-Foulkes estimate   =    -285.31773256 Ry
     estimated scf accuracy    <          9.7E-11 Ry

     iteration # 17     ecut=    40.00 Ry     beta=0.70
     Davidson diagonalization with overlap
     ethr =  3.36E-13,  avg # of iterations =  1.0

     total cpu time spent up to now is     3794.2 secs

     total energy              =    -285.31773256 Ry
     Harris-Foulkes estimate   =    -285.31773256 Ry
     estimated scf accuracy    <          6.0E-11 Ry

     iteration # 18     ecut=    40.00 Ry     beta=0.70
     Davidson diagonalization with overlap
     ethr =  2.23E-13,  avg # of iterations =  1.0

     total cpu time spent up to now is     3824.6 secs

     total energy              =    -285.31773256 Ry
     Harris-Foulkes estimate   =    -285.31773256 Ry
     estimated scf accuracy    <          1.1E-11 Ry

     iteration # 19     ecut=    40.00 Ry     beta=0.70
     Davidson diagonalization with overlap
     ethr =  1.00E-13,  avg # of iterations =  1.3

     total cpu time spent up to now is     3855.2 secs

     End of self-consistent calculation

     Number of k-points >= 100: set verbosity='high' to print the bands.

     the Fermi energy is     1.9505 ev

!    total energy              =    -285.31773256 Ry
     Harris-Foulkes estimate   =    -285.31773256 Ry
     estimated scf accuracy    <          3.3E-13 Ry

     The total energy is the sum of the following terms:

     one-electron contribution =    -259.19106023 Ry
     hartree contribution      =     131.08844248 Ry
     xc contribution           =     -42.83680914 Ry
     ewald contribution        =    -114.37816678 Ry
     smearing contrib. (-TS)   =      -0.00013889 Ry

     convergence has been achieved in  19 iterations

     Forces acting on atoms (cartesian axes, Ry/au):

     atom    1 type  1   force =    -0.00000309   -0.00000309   -0.00000309
     atom    2 type  1   force =     0.00000309    0.00000309    0.00000309
     atom    3 type  1   force =    -0.00000000   -0.00000000    0.00000000

     Total force =     0.000008     Total SCF correction =     0.000000


     Computing stress (Cartesian axis) and pressure

          total   stress  (Ry/bohr**3)                   (kbar)     P=    3.36
   0.00002284   0.00000168   0.00000168          3.36      0.25      0.25
   0.00000168   0.00002284   0.00000168          0.25      3.36      0.25
   0.00000168   0.00000168   0.00002284          0.25      0.25      3.36


     number of scf cycles    =   6
     number of bfgs steps    =   5

     enthalpy old            =    -285.3173885442 Ry
     enthalpy new            =    -285.3177325585 Ry

     CASE: enthalpy_new < enthalpy_old

     new trust radius        =       0.0443619568 bohr
     new conv_thr            =            1.0E-12 Ry

     new unit-cell volume =    710.70640 a.u.^3 (   105.31582 Ang^3 )
     density =      1.08747 g/cm^3

CELL_PARAMETERS (alat= 17.00000000)
   0.383614107   0.672840075   0.672840075
   0.672840075   0.383614107   0.672840075
   0.672840075   0.672840075   0.383614107

ATOMIC_POSITIONS (crystal)
Na       0.722227274   0.722227274   0.722227274
Na       0.277772726   0.277772726   0.277772726
Na       0.500000000   0.500000000   0.500000000



     Writing output data file na.9r.save
     NEW-OLD atomic charge density approx. for the potential
     extrapolated charge   27.66882, renormalised to   27.00000

     total cpu time spent up to now is     3861.9 secs

     per-process dynamical memory:    35.2 Mb

     Self-consistent Calculation

     iteration #  1     ecut=    40.00 Ry     beta=0.70
     Davidson diagonalization with overlap
     ethr =  1.00E-06,  avg # of iterations =  4.8

     total cpu time spent up to now is     3918.4 secs

     total energy              =    -285.21055322 Ry
     Harris-Foulkes estimate   =    -280.14889935 Ry
     estimated scf accuracy    <       0.05982320 Ry

     iteration #  2     ecut=    40.00 Ry     beta=0.70
     Davidson diagonalization with overlap
     ethr =  2.22E-04,  avg # of iterations =  3.0

     total cpu time spent up to now is     3966.4 secs

     total energy              =    -285.32087112 Ry
     Harris-Foulkes estimate   =    -285.36488625 Ry
     estimated scf accuracy    <       0.10028001 Ry

     iteration #  3     ecut=    40.00 Ry     beta=0.70
     Davidson diagonalization with overlap
     ethr =  2.22E-04,  avg # of iterations =  2.0

     total cpu time spent up to now is     4001.7 secs

     total energy              =    -285.31994043 Ry
     Harris-Foulkes estimate   =    -285.32721303 Ry
     estimated scf accuracy    <       0.02021676 Ry

     iteration #  4     ecut=    40.00 Ry     beta=0.70
     Davidson diagonalization with overlap
     ethr =  7.49E-05,  avg # of iterations =  1.0

     total cpu time spent up to now is     4031.8 secs

     total energy              =    -285.32080696 Ry
     Harris-Foulkes estimate   =    -285.32080961 Ry
     estimated scf accuracy    <       0.00641567 Ry

     iteration #  5     ecut=    40.00 Ry     beta=0.70
     Davidson diagonalization with overlap
     ethr =  2.38E-05,  avg # of iterations =  1.0

     total cpu time spent up to now is     4062.5 secs

     total energy              =    -285.31911167 Ry
     Harris-Foulkes estimate   =    -285.32086183 Ry
     estimated scf accuracy    <       0.00653470 Ry

     iteration #  6     ecut=    40.00 Ry     beta=0.70
     Davidson diagonalization with overlap
     ethr =  2.38E-05,  avg # of iterations =  1.0

     total cpu time spent up to now is     4092.6 secs

     total energy              =    -285.31824583 Ry
     Harris-Foulkes estimate   =    -285.31928606 Ry
     estimated scf accuracy    <       0.00294001 Ry

     iteration #  7     ecut=    40.00 Ry     beta=0.70
     Davidson diagonalization with overlap
     ethr =  1.09E-05,  avg # of iterations =  1.0

     total cpu time spent up to now is     4123.0 secs

     total energy              =    -285.31794045 Ry
     Harris-Foulkes estimate   =    -285.31837925 Ry
     estimated scf accuracy    <       0.00090797 Ry

     iteration #  8     ecut=    40.00 Ry     beta=0.70
     Davidson diagonalization with overlap
     ethr =  3.36E-06,  avg # of iterations =  2.0

     total cpu time spent up to now is     4157.7 secs

     total energy              =    -285.31798091 Ry
     Harris-Foulkes estimate   =    -285.31802738 Ry
     estimated scf accuracy    <       0.00012537 Ry

     iteration #  9     ecut=    40.00 Ry     beta=0.70
     Davidson diagonalization with overlap
     ethr =  4.64E-07,  avg # of iterations =  1.8

     total cpu time spent up to now is     4189.8 secs

     total energy              =    -285.31797084 Ry
     Harris-Foulkes estimate   =    -285.31798836 Ry
     estimated scf accuracy    <       0.00003924 Ry

     iteration # 10     ecut=    40.00 Ry     beta=0.70
     Davidson diagonalization with overlap
     ethr =  1.45E-07,  avg # of iterations =  2.0

     total cpu time spent up to now is     4224.0 secs

     total energy              =    -285.31796903 Ry
     Harris-Foulkes estimate   =    -285.31797410 Ry
     estimated scf accuracy    <       0.00000773 Ry

     iteration # 11     ecut=    40.00 Ry     beta=0.70
     Davidson diagonalization with overlap
     ethr =  2.86E-08,  avg # of iterations =  2.0

     total cpu time spent up to now is     4262.6 secs

     total energy              =    -285.31797131 Ry
     Harris-Foulkes estimate   =    -285.31797131 Ry
     estimated scf accuracy    <       0.00000194 Ry

     iteration # 12     ecut=    40.00 Ry     beta=0.70
     Davidson diagonalization with overlap
     ethr =  7.18E-09,  avg # of iterations =  1.0

     total cpu time spent up to now is     4293.3 secs

     total energy              =    -285.31797131 Ry
     Harris-Foulkes estimate   =    -285.31797131 Ry
     estimated scf accuracy    <       0.00000193 Ry

     iteration # 13     ecut=    40.00 Ry     beta=0.70
     Davidson diagonalization with overlap
     ethr =  7.13E-09,  avg # of iterations =  1.0

     total cpu time spent up to now is     4323.5 secs

     total energy              =    -285.31797124 Ry
     Harris-Foulkes estimate   =    -285.31797131 Ry
     estimated scf accuracy    <       0.00000192 Ry

     iteration # 14     ecut=    40.00 Ry     beta=0.70
     Davidson diagonalization with overlap
     ethr =  7.10E-09,  avg # of iterations =  1.0

     total cpu time spent up to now is     4354.2 secs

     total energy              =    -285.31797072 Ry
     Harris-Foulkes estimate   =    -285.31797124 Ry
     estimated scf accuracy    <       0.00000168 Ry

     iteration # 15     ecut=    40.00 Ry     beta=0.70
     Davidson diagonalization with overlap
     ethr =  6.21E-09,  avg # of iterations =  1.0

     total cpu time spent up to now is     4384.5 secs

     total energy              =    -285.31797060 Ry
     Harris-Foulkes estimate   =    -285.31797075 Ry
     estimated scf accuracy    <       0.00000037 Ry

     iteration # 16     ecut=    40.00 Ry     beta=0.70
     Davidson diagonalization with overlap
     ethr =  1.38E-09,  avg # of iterations =  2.0

     total cpu time spent up to now is     4423.3 secs

     total energy              =    -285.31797065 Ry
     Harris-Foulkes estimate   =    -285.31797065 Ry
     estimated scf accuracy    <       0.00000012 Ry

     iteration # 17     ecut=    40.00 Ry     beta=0.70
     Davidson diagonalization with overlap
     ethr =  4.26E-10,  avg # of iterations =  1.0

     total cpu time spent up to now is     4453.5 secs

     total energy              =    -285.31797065 Ry
     Harris-Foulkes estimate   =    -285.31797065 Ry
     estimated scf accuracy    <       0.00000011 Ry

     iteration # 18     ecut=    40.00 Ry     beta=0.70
     Davidson diagonalization with overlap
     ethr =  4.03E-10,  avg # of iterations =  1.0

     total cpu time spent up to now is     4484.1 secs

     total energy              =    -285.31797066 Ry
     Harris-Foulkes estimate   =    -285.31797065 Ry
     estimated scf accuracy    <       0.00000011 Ry

     iteration # 19     ecut=    40.00 Ry     beta=0.70
     Davidson diagonalization with overlap
     ethr =  4.03E-10,  avg # of iterations =  1.0

     total cpu time spent up to now is     4514.3 secs

     total energy              =    -285.31797067 Ry
     Harris-Foulkes estimate   =    -285.31797066 Ry
     estimated scf accuracy    <       0.00000004 Ry

     iteration # 20     ecut=    40.00 Ry     beta=0.70
     Davidson diagonalization with overlap
     ethr =  1.54E-10,  avg # of iterations =  1.0

     total cpu time spent up to now is     4544.6 secs

     total energy              =    -285.31797068 Ry
     Harris-Foulkes estimate   =    -285.31797068 Ry
     estimated scf accuracy    <       0.00000001 Ry

     iteration # 21     ecut=    40.00 Ry     beta=0.70
     Davidson diagonalization with overlap
     ethr =  4.01E-11,  avg # of iterations =  1.9

     total cpu time spent up to now is     4576.6 secs

     total energy              =    -285.31797068 Ry
     Harris-Foulkes estimate   =    -285.31797068 Ry
     estimated scf accuracy    <          3.6E-10 Ry

     iteration # 22     ecut=    40.00 Ry     beta=0.70
     Davidson diagonalization with overlap
     ethr =  1.34E-12,  avg # of iterations =  2.0

     total cpu time spent up to now is     4612.4 secs

     total energy              =    -285.31797068 Ry
     Harris-Foulkes estimate   =    -285.31797068 Ry
     estimated scf accuracy    <          2.8E-12 Ry

     iteration # 23     ecut=    40.00 Ry     beta=0.70
     Davidson diagonalization with overlap
     ethr =  1.00E-13,  avg # of iterations =  1.4

     total cpu time spent up to now is     4643.7 secs

     End of self-consistent calculation

     Number of k-points >= 100: set verbosity='high' to print the bands.

     the Fermi energy is     1.8380 ev

!    total energy              =    -285.31797068 Ry
     Harris-Foulkes estimate   =    -285.31797068 Ry
     estimated scf accuracy    <          2.9E-13 Ry

     The total energy is the sum of the following terms:

     one-electron contribution =    -260.86053201 Ry
     hartree contribution      =     131.79471000 Ry
     xc contribution           =     -42.82663257 Ry
     ewald contribution        =    -113.42537922 Ry
     smearing contrib. (-TS)   =      -0.00013688 Ry

     convergence has been achieved in  23 iterations

     Forces acting on atoms (cartesian axes, Ry/au):

     atom    1 type  1   force =    -0.00000258   -0.00000258   -0.00000258
     atom    2 type  1   force =     0.00000258    0.00000258    0.00000258
     atom    3 type  1   force =    -0.00000000    0.00000000   -0.00000000

     Total force =     0.000006     Total SCF correction =     0.000000


     Computing stress (Cartesian axis) and pressure

          total   stress  (Ry/bohr**3)                   (kbar)     P=    0.63
   0.00000432   0.00000112   0.00000112          0.63      0.17      0.17
   0.00000112   0.00000432   0.00000112          0.17      0.63      0.17
   0.00000112   0.00000112   0.00000432          0.17      0.17      0.63


     number of scf cycles    =   7
     number of bfgs steps    =   6

     enthalpy old            =    -285.3177325585 Ry
     enthalpy new            =    -285.3179706799 Ry

     CASE: enthalpy_new < enthalpy_old

     new trust radius        =       0.0108540792 bohr
     new conv_thr            =            1.0E-12 Ry

     new unit-cell volume =    715.03755 a.u.^3 (   105.95763 Ang^3 )
     density =      1.08088 g/cm^3

CELL_PARAMETERS (alat= 17.00000000)
   0.384567947   0.674342400   0.674342400
   0.674342400   0.384567947   0.674342400
   0.674342400   0.674342400   0.384567947

ATOMIC_POSITIONS (crystal)
Na       0.722226926   0.722226926   0.722226926
Na       0.277773074   0.277773074   0.277773074
Na       0.500000000   0.500000000   0.500000000



     Writing output data file na.9r.save
     NEW-OLD atomic charge density approx. for the potential
     extrapolated charge   27.16343, renormalised to   27.00000

     total cpu time spent up to now is     4650.3 secs

     per-process dynamical memory:    35.2 Mb

     Self-consistent Calculation

     iteration #  1     ecut=    40.00 Ry     beta=0.70
     Davidson diagonalization with overlap
     ethr =  1.00E-06,  avg # of iterations =  3.1

     total cpu time spent up to now is     4698.2 secs

     total energy              =    -285.31198952 Ry
     Harris-Foulkes estimate   =    -284.05598409 Ry
     estimated scf accuracy    <       0.00334346 Ry

     iteration #  2     ecut=    40.00 Ry     beta=0.70
     Davidson diagonalization with overlap
     ethr =  1.24E-05,  avg # of iterations =  3.0

     total cpu time spent up to now is     4745.9 secs

     total energy              =    -285.31810494 Ry
     Harris-Foulkes estimate   =    -285.32056560 Ry
     estimated scf accuracy    <       0.00560655 Ry

     iteration #  3     ecut=    40.00 Ry     beta=0.70
     Davidson diagonalization with overlap
     ethr =  1.24E-05,  avg # of iterations =  2.0

     total cpu time spent up to now is     4781.8 secs

     total energy              =    -285.31807613 Ry
     Harris-Foulkes estimate   =    -285.31847439 Ry
     estimated scf accuracy    <       0.00108543 Ry

     iteration #  4     ecut=    40.00 Ry     beta=0.70
     Davidson diagonalization with overlap
     ethr =  4.02E-06,  avg # of iterations =  1.0

     total cpu time spent up to now is     4812.1 secs

     total energy              =    -285.31814081 Ry
     Harris-Foulkes estimate   =    -285.31812474 Ry
     estimated scf accuracy    <       0.00033009 Ry

     iteration #  5     ecut=    40.00 Ry     beta=0.70
     Davidson diagonalization with overlap
     ethr =  1.22E-06,  avg # of iterations =  1.0

     total cpu time spent up to now is     4842.5 secs

     total energy              =    -285.31805225 Ry
     Harris-Foulkes estimate   =    -285.31814372 Ry
     estimated scf accuracy    <       0.00037031 Ry

     iteration #  6     ecut=    40.00 Ry     beta=0.70
     Davidson diagonalization with overlap
     ethr =  1.22E-06,  avg # of iterations =  1.0

     total cpu time spent up to now is     4872.7 secs

     total energy              =    -285.31803118 Ry
     Harris-Foulkes estimate   =    -285.31806082 Ry
     estimated scf accuracy    <       0.00017869 Ry

     iteration #  7     ecut=    40.00 Ry     beta=0.70
     Davidson diagonalization with overlap
     ethr =  6.62E-07,  avg # of iterations =  1.0

     total cpu time spent up to now is     4903.3 secs

     total energy              =    -285.31799057 Ry
     Harris-Foulkes estimate   =    -285.31803346 Ry
     estimated scf accuracy    <       0.00011210 Ry

     iteration #  8     ecut=    40.00 Ry     beta=0.70
     Davidson diagonalization with overlap
     ethr =  4.15E-07,  avg # of iterations =  1.0

     total cpu time spent up to now is     4933.6 secs

     total energy              =    -285.31797696 Ry
     Harris-Foulkes estimate   =    -285.31799529 Ry
     estimated scf accuracy    <       0.00003282 Ry

     iteration #  9     ecut=    40.00 Ry     beta=0.70
     Davidson diagonalization with overlap
     ethr =  1.22E-07,  avg # of iterations =  2.0

     total cpu time spent up to now is     4970.7 secs

     total energy              =    -285.31798142 Ry
     Harris-Foulkes estimate   =    -285.31798167 Ry
     estimated scf accuracy    <       0.00000172 Ry

     iteration # 10     ecut=    40.00 Ry     beta=0.70
     Davidson diagonalization with overlap
     ethr =  6.37E-09,  avg # of iterations =  1.0

     total cpu time spent up to now is     5001.1 secs

     total energy              =    -285.31798066 Ry
     Harris-Foulkes estimate   =    -285.31798144 Ry
     estimated scf accuracy    <       0.00000123 Ry

     iteration # 11     ecut=    40.00 Ry     beta=0.70
     Davidson diagonalization with overlap
     ethr =  4.56E-09,  avg # of iterations =  2.0

     total cpu time spent up to now is     5039.7 secs

     total energy              =    -285.31798095 Ry
     Harris-Foulkes estimate   =    -285.31798092 Ry
     estimated scf accuracy    <       0.00000013 Ry

     iteration # 12     ecut=    40.00 Ry     beta=0.70
     Davidson diagonalization with overlap
     ethr =  4.93E-10,  avg # of iterations =  1.0

     total cpu time spent up to now is     5070.5 secs

     total energy              =    -285.31798090 Ry
     Harris-Foulkes estimate   =    -285.31798095 Ry
     estimated scf accuracy    <       0.00000023 Ry

     iteration # 13     ecut=    40.00 Ry     beta=0.70
     Davidson diagonalization with overlap
     ethr =  4.93E-10,  avg # of iterations =  1.0

     total cpu time spent up to now is     5100.9 secs

     total energy              =    -285.31798087 Ry
     Harris-Foulkes estimate   =    -285.31798091 Ry
     estimated scf accuracy    <       0.00000009 Ry

     iteration # 14     ecut=    40.00 Ry     beta=0.70
     Davidson diagonalization with overlap
     ethr =  3.45E-10,  avg # of iterations =  1.2

     total cpu time spent up to now is     5131.6 secs

     total energy              =    -285.31798087 Ry
     Harris-Foulkes estimate   =    -285.31798087 Ry
     estimated scf accuracy    <          2.4E-09 Ry

     iteration # 15     ecut=    40.00 Ry     beta=0.70
     Davidson diagonalization with overlap
     ethr =  8.80E-12,  avg # of iterations =  2.3

     total cpu time spent up to now is     5167.0 secs

     total energy              =    -285.31798087 Ry
     Harris-Foulkes estimate   =    -285.31798087 Ry
     estimated scf accuracy    <          2.1E-11 Ry

     iteration # 16     ecut=    40.00 Ry     beta=0.70
     Davidson diagonalization with overlap
     ethr =  1.00E-13,  avg # of iterations =  2.3

     total cpu time spent up to now is     5207.5 secs

     total energy              =    -285.31798087 Ry
     Harris-Foulkes estimate   =    -285.31798087 Ry
     estimated scf accuracy    <          1.3E-10 Ry

     iteration # 17     ecut=    40.00 Ry     beta=0.70
     Davidson diagonalization with overlap
     ethr =  1.00E-13,  avg # of iterations =  1.0

     total cpu time spent up to now is     5238.2 secs

     total energy              =    -285.31798087 Ry
     Harris-Foulkes estimate   =    -285.31798087 Ry
     estimated scf accuracy    <          1.2E-10 Ry

     iteration # 18     ecut=    40.00 Ry     beta=0.70
     Davidson diagonalization with overlap
     ethr =  1.00E-13,  avg # of iterations =  2.0

     total cpu time spent up to now is     5278.2 secs

     total energy              =    -285.31798087 Ry
     Harris-Foulkes estimate   =    -285.31798087 Ry
     estimated scf accuracy    <          5.6E-12 Ry

     iteration # 19     ecut=    40.00 Ry     beta=0.70
     Davidson diagonalization with overlap
     ethr =  1.00E-13,  avg # of iterations =  1.0

     total cpu time spent up to now is     5309.1 secs

     End of self-consistent calculation

     Number of k-points >= 100: set verbosity='high' to print the bands.

     the Fermi energy is     1.8112 ev

!    total energy              =    -285.31798087 Ry
     Harris-Foulkes estimate   =    -285.31798087 Ry
     estimated scf accuracy    <          4.8E-13 Ry

     The total energy is the sum of the following terms:

     one-electron contribution =    -261.26274986 Ry
     hartree contribution      =     131.96505942 Ry
     xc contribution           =     -42.82419924 Ry
     ewald contribution        =    -113.19595487 Ry
     smearing contrib. (-TS)   =      -0.00013632 Ry

     convergence has been achieved in  19 iterations

     Forces acting on atoms (cartesian axes, Ry/au):

     atom    1 type  1   force =    -0.00000244   -0.00000244   -0.00000244
     atom    2 type  1   force =     0.00000244    0.00000244    0.00000244
     atom    3 type  1   force =     0.00000000    0.00000000   -0.00000000

     Total force =     0.000006     Total SCF correction =     0.000000


     Computing stress (Cartesian axis) and pressure

          total   stress  (Ry/bohr**3)                   (kbar)     P=    0.02
   0.00000016   0.00000098   0.00000098          0.02      0.14      0.14
   0.00000098   0.00000016   0.00000098          0.14      0.02      0.14
   0.00000098   0.00000098   0.00000016          0.14      0.14      0.02


     number of scf cycles    =   8
     number of bfgs steps    =   7

     enthalpy old            =    -285.3179706799 Ry
     enthalpy new            =    -285.3179808740 Ry

     CASE: enthalpy_new < enthalpy_old

     new trust radius        =       0.0007803428 bohr
     new conv_thr            =            1.0E-12 Ry

     new unit-cell volume =    715.33323 a.u.^3 (   106.00145 Ang^3 )
     density =      1.08043 g/cm^3

CELL_PARAMETERS (alat= 17.00000000)
   0.384666647   0.674471217   0.674471217
   0.674471217   0.384666647   0.674471217
   0.674471217   0.674471217   0.384666647

ATOMIC_POSITIONS (crystal)
Na       0.722226815   0.722226815   0.722226815
Na       0.277773185   0.277773185   0.277773185
Na       0.500000000   0.500000000   0.500000000



     Writing output data file na.9r.save
     NEW-OLD atomic charge density approx. for the potential
     extrapolated charge   27.01115, renormalised to   27.00000

     total cpu time spent up to now is     5315.7 secs

     per-process dynamical memory:    35.2 Mb

     Self-consistent Calculation

     iteration #  1     ecut=    40.00 Ry     beta=0.70
     Davidson diagonalization with overlap
     ethr =  1.00E-06,  avg # of iterations =  2.0

     Threshold (ethr) on eigenvalues was too large:
     Diagonalizing with lowered threshold

     Davidson diagonalization with overlap
     ethr =  5.63E-08,  avg # of iterations =  1.0

     total cpu time spent up to now is     5384.5 secs

     total energy              =    -285.31795378 Ry
     Harris-Foulkes estimate   =    -285.23192903 Ry
     estimated scf accuracy    <       0.00001523 Ry

     iteration #  2     ecut=    40.00 Ry     beta=0.70
     Davidson diagonalization with overlap
     ethr =  5.64E-08,  avg # of iterations =  3.0

     total cpu time spent up to now is     5430.5 secs

     total energy              =    -285.31798152 Ry
     Harris-Foulkes estimate   =    -285.31799272 Ry
     estimated scf accuracy    <       0.00002552 Ry

     iteration #  3     ecut=    40.00 Ry     beta=0.70
     Davidson diagonalization with overlap
     ethr =  5.64E-08,  avg # of iterations =  2.0

     total cpu time spent up to now is     5466.4 secs

     total energy              =    -285.31798149 Ry
[...]

     atom    1 type  1   force =    -0.00000005   -0.00000005   -0.00000005
     atom    2 type  1   force =     0.00000005    0.00000005    0.00000005
     atom    3 type  1   force =     0.00000000   -0.00000000    0.00000000

     Total force =     0.000000     Total SCF correction =     0.000000
     SCF correction compared to forces is large: reduce conv_thr to get better values


     Computing stress (Cartesian axis) and pressure

          total   stress  (Ry/bohr**3)                   (kbar)     P=   -0.07
  -0.00000049   0.00000004   0.00000004         -0.07      0.01      0.01
   0.00000004  -0.00000049   0.00000004          0.01     -0.07      0.01
   0.00000004   0.00000004  -0.00000049          0.01      0.01     -0.07


     number of scf cycles    =  13
     number of bfgs steps    =  12

     enthalpy old            =    -285.3179822895 Ry
     enthalpy new            =    -285.3179827673 Ry

     CASE: enthalpy_new < enthalpy_old

     new trust radius        =       0.0009108060 bohr
     new conv_thr            =            1.0E-12 Ry

     new unit-cell volume =    715.42275 a.u.^3 (   106.01471 Ang^3 )
     density =      1.08030 g/cm^3

CELL_PARAMETERS (alat= 17.00000000)
   0.385981303   0.675519316   0.675519316
   0.675519316   0.385981303   0.675519316
   0.675519316   0.675519316   0.385981303

ATOMIC_POSITIONS (crystal)
Na       0.722223402   0.722223402   0.722223402
Na       0.277776598   0.277776598   0.277776598
Na       0.500000000   0.500000000   0.500000000



     Writing output data file na.9r.save
     NEW-OLD atomic charge density approx. for the potential
     extrapolated charge   26.98883, renormalised to   27.00000

     total cpu time spent up to now is     7535.8 secs

     per-process dynamical memory:    35.2 Mb

     Self-consistent Calculation

     iteration #  1     ecut=    40.00 Ry     beta=0.70
     Davidson diagonalization with overlap
     ethr =  1.00E-06,  avg # of iterations =  2.0

     Threshold (ethr) on eigenvalues was too large:
     Diagonalizing with lowered threshold

     Davidson diagonalization with overlap
     ethr =  5.60E-08,  avg # of iterations =  1.0

     total cpu time spent up to now is     7604.1 secs

     total energy              =    -285.31795577 Ry
     Harris-Foulkes estimate   =    -285.40417025 Ry
     estimated scf accuracy    <       0.00001517 Ry

     iteration #  2     ecut=    40.00 Ry     beta=0.70
     Davidson diagonalization with overlap
     ethr =  5.62E-08,  avg # of iterations =  3.0

     total cpu time spent up to now is     7649.2 secs

     total energy              =    -285.31798338 Ry
     Harris-Foulkes estimate   =    -285.31799454 Ry
     estimated scf accuracy    <       0.00002542 Ry

     iteration #  3     ecut=    40.00 Ry     beta=0.70
     Davidson diagonalization with overlap
     ethr =  5.62E-08,  avg # of iterations =  2.0

     total cpu time spent up to now is     7684.4 secs

     total energy              =    -285.31798337 Ry
     Harris-Foulkes estimate   =    -285.31798508 Ry
     estimated scf accuracy    <       0.00000486 Ry

     iteration #  4     ecut=    40.00 Ry     beta=0.70
     Davidson diagonalization with overlap
     ethr =  1.80E-08,  avg # of iterations =  1.0

     total cpu time spent up to now is     7714.2 secs

     total energy              =    -285.31798349 Ry
     Harris-Foulkes estimate   =    -285.31798357 Ry
     estimated scf accuracy    <       0.00000158 Ry

     iteration #  5     ecut=    40.00 Ry     beta=0.70
     Davidson diagonalization with overlap
     ethr =  5.87E-09,  avg # of iterations =  1.0

     total cpu time spent up to now is     7744.0 secs

     total energy              =    -285.31798308 Ry
     Harris-Foulkes estimate   =    -285.31798350 Ry
     estimated scf accuracy    <       0.00000140 Ry

     iteration #  6     ecut=    40.00 Ry     beta=0.70
     Davidson diagonalization with overlap
     ethr =  5.19E-09,  avg # of iterations =  1.0

     total cpu time spent up to now is     7774.1 secs

     total energy              =    -285.31798280 Ry
     Harris-Foulkes estimate   =    -285.31798312 Ry
     estimated scf accuracy    <       0.00000056 Ry

     iteration #  7     ecut=    40.00 Ry     beta=0.70
     Davidson diagonalization with overlap
     ethr =  2.06E-09,  avg # of iterations =  2.0

     total cpu time spent up to now is     7810.0 secs

     total energy              =    -285.31798287 Ry
     Harris-Foulkes estimate   =    -285.31798289 Ry
     estimated scf accuracy    <       0.00000002 Ry

     iteration #  8     ecut=    40.00 Ry     beta=0.70
     Davidson diagonalization with overlap
     ethr =  5.84E-11,  avg # of iterations =  2.0

     total cpu time spent up to now is     7848.5 secs

     total energy              =    -285.31798288 Ry
     Harris-Foulkes estimate   =    -285.31798288 Ry
     estimated scf accuracy    <          1.9E-10 Ry

     iteration #  9     ecut=    40.00 Ry     beta=0.70
     Davidson diagonalization with overlap
     ethr =  6.96E-13,  avg # of iterations =  2.0

     total cpu time spent up to now is     7887.9 secs

     total energy              =    -285.31798288 Ry
     Harris-Foulkes estimate   =    -285.31798288 Ry
     estimated scf accuracy    <          2.2E-10 Ry

     iteration # 10     ecut=    40.00 Ry     beta=0.70
     Davidson diagonalization with overlap
     ethr =  6.96E-13,  avg # of iterations =  1.0

     total cpu time spent up to now is     7917.6 secs

     total energy              =    -285.31798288 Ry
     Harris-Foulkes estimate   =    -285.31798288 Ry
     estimated scf accuracy    <          5.5E-11 Ry

     iteration # 11     ecut=    40.00 Ry     beta=0.70
     Davidson diagonalization with overlap
     ethr =  2.04E-13,  avg # of iterations =  2.0

     total cpu time spent up to now is     7955.6 secs

     total energy              =    -285.31798288 Ry
     Harris-Foulkes estimate   =    -285.31798288 Ry
     estimated scf accuracy    <          4.5E-12 Ry

     iteration # 12     ecut=    40.00 Ry     beta=0.70
     Davidson diagonalization with overlap
     ethr =  1.00E-13,  avg # of iterations =  1.0

     total cpu time spent up to now is     7985.6 secs

     total energy              =    -285.31798288 Ry
     Harris-Foulkes estimate   =    -285.31798288 Ry
     estimated scf accuracy    <          3.4E-12 Ry

     iteration # 13     ecut=    40.00 Ry     beta=0.70
     Davidson diagonalization with overlap
     ethr =  1.00E-13,  avg # of iterations =  1.0

     total cpu time spent up to now is     8015.7 secs

     End of self-consistent calculation

     Number of k-points >= 100: set verbosity='high' to print the bands.

     the Fermi energy is     1.8088 ev

!    total energy              =    -285.31798288 Ry
     Harris-Foulkes estimate   =    -285.31798288 Ry
     estimated scf accuracy    <          4.6E-13 Ry

     The total energy is the sum of the following terms:

     one-electron contribution =    -261.29787221 Ry
     hartree contribution      =     131.97989170 Ry
     xc contribution           =     -42.82398178 Ry
     ewald contribution        =    -113.17588944 Ry
     smearing contrib. (-TS)   =      -0.00013115 Ry

     convergence has been achieved in  13 iterations

     Forces acting on atoms (cartesian axes, Ry/au):

     atom    1 type  1   force =     0.00000015    0.00000015    0.00000015
     atom    2 type  1   force =    -0.00000015   -0.00000015   -0.00000015
     atom    3 type  1   force =     0.00000000    0.00000000   -0.00000000

     Total force =     0.000000     Total SCF correction =     0.000000


     Computing stress (Cartesian axis) and pressure

          total   stress  (Ry/bohr**3)                   (kbar)     P=   -0.03
  -0.00000022  -0.00000003  -0.00000003         -0.03     -0.00     -0.00
  -0.00000003  -0.00000022  -0.00000003         -0.00     -0.03     -0.00
  -0.00000003  -0.00000003  -0.00000022         -0.00     -0.00     -0.03


     bfgs converged in  14 scf cycles and  13 bfgs steps
     (criteria: energy <  1.0E-04 Ry, force <  1.0E-03Ry/Bohr, cell <  5.0E-02kbar)

     End of BFGS Geometry Optimization

     Final enthalpy =    -285.3179828791 Ry
Begin final coordinates
     new unit-cell volume =    715.42275 a.u.^3 (   106.01471 Ang^3 )
     density =      1.08030 g/cm^3

CELL_PARAMETERS (alat= 17.00000000)
   0.385981303   0.675519316   0.675519316
   0.675519316   0.385981303   0.675519316
   0.675519316   0.675519316   0.385981303

ATOMIC_POSITIONS (crystal)
Na       0.722223402   0.722223402   0.722223402
Na       0.277776598   0.277776598   0.277776598
Na       0.500000000   0.500000000   0.500000000
End final coordinates



     A final scf calculation at the relaxed structure.
     The G-vectors are recalculated for the final unit cell
     Results may differ from those at the preceding step.

     Parallelization info
     --------------------
     sticks:   dense  smooth     PW     G-vecs:    dense   smooth      PW
     Min         189      94     32                 4328     1524     295
     Max         190      95     33                 4330     1525     296
     Sum        3035    1515    515                69265    24393    4731



     bravais-lattice index     =           -5
     lattice parameter (alat)  =      17.0000  a.u.
     unit-cell volume          =     715.4227 (a.u.)^3
     number of atoms/cell      =            3
     number of atomic types    =            1
     number of electrons       =        27.00
     number of Kohn-Sham states=           18
     kinetic-energy cutoff     =      40.0000  Ry
     charge density cutoff     =     320.0000  Ry
     convergence threshold     =      1.0E-12
     mixing beta               =       0.7000
     number of iterations used =            8  plain     mixing
     Exchange-correlation      = SLA  PW   PBE  PBE ( 1  4  3  4 0 0)

     celldm(1)=  17.000000  celldm(2)=   0.000000  celldm(3)=   0.000000
     celldm(4)=   0.920000  celldm(5)=   0.000000  celldm(6)=   0.000000

     crystal axes: (cart. coord. in units of alat)
               a(1) = (   0.385981   0.675519   0.675519 )  
               a(2) = (   0.675519   0.385981   0.675519 )  
               a(3) = (   0.675519   0.675519   0.385981 )  

     reciprocal axes: (cart. coord. in units 2 pi/alat)
               b(1) = ( -2.110619  1.343159  1.343159 )  
               b(2) = (  1.343159 -2.110619  1.343159 )  
               b(3) = (  1.343159  1.343159 -2.110619 )  


     PseudoPot. # 1 for Na read from file:
     /home/s1333534/quantum_espresso/qe-6.1/pseudo/Na_pbe_v1.uspp.F.UPF
     MD5 check sum: 76a99c7e9422403d3e93cbc85ab7bccb
     Pseudo is Ultrasoft, Zval =  9.0
     Generated by new atomic code, or converted to UPF format
     Using radial grid of  819 points,  5 beta functions with: 
                l(1) =   0
                l(2) =   0
                l(3) =   1
                l(4) =   1
                l(5) =   2
     Q(r) pseudized with  8 coefficients,  rinner =    1.250   1.250   1.250
                                                       1.250   1.250

     atomic species   valence    mass     pseudopotential
        Na             9.00    22.99000     Na( 1.00)

     12 Sym. Ops., with inversion, found



   Cartesian axes

     site n.     atom                  positions (alat units)
         1           Na  tau(   1) = (   1.2545164   1.2545164   1.2545164  )
         2           Na  tau(   2) = (   0.4825035   0.4825035   0.4825035  )
         3           Na  tau(   3) = (   0.8685100   0.8685100   0.8685100  )

     number of k points=   770  Marzari-Vanderbilt smearing, width (Ry)=  0.0200

     Number of k-points >= 100: set verbosity='high' to print them.

     Dense  grid:    69265 G-vectors     FFT dimensions: ( 100, 100, 100)

     Smooth grid:    24393 G-vectors     FFT dimensions: (  72,  72,  72)

     Estimated max dynamical RAM per process >      17.40MB

     Estimated total allocated dynamical RAM >    1113.51MB

     Initial potential from superposition of free atoms

     starting charge   26.98113, renormalised to   27.00000
     Starting wfc are   15 randomized atomic wfcs +    3 random wfc

     Writing output data file na.9r.save

     total cpu time spent up to now is     8033.8 secs

     per-process dynamical memory:    35.0 Mb

     Self-consistent Calculation

     iteration #  1     ecut=    40.00 Ry     beta=0.70
     Davidson diagonalization with overlap
     c_bands:  1 eigenvalues not converged
     c_bands:  1 eigenvalues not converged
     c_bands:  1 eigenvalues not converged
     c_bands:  1 eigenvalues not converged
     c_bands:  1 eigenvalues not converged
     c_bands:  1 eigenvalues not converged
     ethr =  1.00E-06,  avg # of iterations = 13.9

     total cpu time spent up to now is     8118.7 secs

     total energy              =    -285.31895537 Ry
     Harris-Foulkes estimate   =    -285.31965043 Ry
     estimated scf accuracy    <       0.00268959 Ry

     iteration #  2     ecut=    40.00 Ry     beta=0.70
     Davidson diagonalization with overlap
     ethr =  9.96E-06,  avg # of iterations =  2.0

     total cpu time spent up to now is     8155.4 secs

     total energy              =    -285.31927491 Ry
     Harris-Foulkes estimate   =    -285.31934625 Ry
     estimated scf accuracy    <       0.00030291 Ry

     iteration #  3     ecut=    40.00 Ry     beta=0.70
     Davidson diagonalization with overlap
     ethr =  1.12E-06,  avg # of iterations =  2.0

     total cpu time spent up to now is     8194.4 secs

     total energy              =    -285.31930625 Ry
     Harris-Foulkes estimate   =    -285.31931058 Ry
     estimated scf accuracy    <       0.00001948 Ry

     iteration #  4     ecut=    40.00 Ry     beta=0.70
     Davidson diagonalization with overlap
     ethr =  7.21E-08,  avg # of iterations =  1.7

     total cpu time spent up to now is     8225.7 secs

     total energy              =    -285.31930787 Ry
     Harris-Foulkes estimate   =    -285.31930830 Ry
     estimated scf accuracy    <       0.00000152 Ry

     iteration #  5     ecut=    40.00 Ry     beta=0.70
     Davidson diagonalization with overlap
     ethr =  5.62E-09,  avg # of iterations =  2.0

     total cpu time spent up to now is     8261.1 secs

     total energy              =    -285.31930832 Ry
     Harris-Foulkes estimate   =    -285.31930834 Ry
     estimated scf accuracy    <       0.00000015 Ry

     iteration #  6     ecut=    40.00 Ry     beta=0.70
     Davidson diagonalization with overlap
     ethr =  5.46E-10,  avg # of iterations =  1.9

     total cpu time spent up to now is     8293.7 secs

     total energy              =    -285.31930834 Ry
     Harris-Foulkes estimate   =    -285.31930834 Ry
     estimated scf accuracy    <          1.2E-09 Ry

     iteration #  7     ecut=    40.00 Ry     beta=0.70
     Davidson diagonalization with overlap
     ethr =  4.46E-12,  avg # of iterations =  2.9

     total cpu time spent up to now is     8333.9 secs

     total energy              =    -285.31930834 Ry
     Harris-Foulkes estimate   =    -285.31930834 Ry
     estimated scf accuracy    <          2.5E-11 Ry

     iteration #  8     ecut=    40.00 Ry     beta=0.70
     Davidson diagonalization with overlap
     ethr =  1.00E-13,  avg # of iterations =  2.0

     total cpu time spent up to now is     8366.3 secs

     total energy              =    -285.31930834 Ry
     Harris-Foulkes estimate   =    -285.31930834 Ry
     estimated scf accuracy    <          4.6E-12 Ry

     iteration #  9     ecut=    40.00 Ry     beta=0.70
     Davidson diagonalization with overlap
     ethr =  1.00E-13,  avg # of iterations =  1.0

     total cpu time spent up to now is     8396.5 secs

     End of self-consistent calculation

     Number of k-points >= 100: set verbosity='high' to print the bands.

     the Fermi energy is     1.8094 ev

!    total energy              =    -285.31930834 Ry
     Harris-Foulkes estimate   =    -285.31930834 Ry
     estimated scf accuracy    <          1.1E-13 Ry

     The total energy is the sum of the following terms:

     one-electron contribution =    -261.29929324 Ry
     hartree contribution      =     131.98029714 Ry
     xc contribution           =     -42.82429163 Ry
     ewald contribution        =    -113.17588944 Ry
     smearing contrib. (-TS)   =      -0.00013117 Ry

     convergence has been achieved in   9 iterations

     Forces acting on atoms (cartesian axes, Ry/au):

     atom    1 type  1   force =    -0.00000009   -0.00000009   -0.00000009
     atom    2 type  1   force =     0.00000009    0.00000009    0.00000009
     atom    3 type  1   force =     0.00000000    0.00000000    0.00000000

     Total force =     0.000000     Total SCF correction =     0.000002
     SCF correction compared to forces is large: reduce conv_thr to get better values


     Computing stress (Cartesian axis) and pressure

          total   stress  (Ry/bohr**3)                   (kbar)     P=    1.13
   0.00000769   0.00000024   0.00000024          1.13      0.04      0.04
   0.00000024   0.00000769   0.00000024          0.04      1.13      0.04
   0.00000024   0.00000024   0.00000769          0.04      0.04      1.13


     Writing output data file na.9r.save

     init_run     :     24.01s CPU     24.35s WALL (       2 calls)
     electrons    :   8200.47s CPU   8282.76s WALL (      15 calls)
     update_pot   :      8.81s CPU      9.29s WALL (      13 calls)
     forces       :      9.57s CPU      9.65s WALL (      15 calls)
     stress       :     28.92s CPU     29.09s WALL (      15 calls)

     Called by init_run:
     wfcinit      :     22.10s CPU     22.35s WALL (       2 calls)
     potinit      :      0.66s CPU      0.69s WALL (       2 calls)

     Called by electrons:
     c_bands      :   6754.81s CPU   6821.24s WALL (     237 calls)
     sum_band     :   1398.24s CPU   1412.10s WALL (     237 calls)
     v_of_rho     :     32.44s CPU     33.37s WALL (     245 calls)
     newd         :      9.45s CPU      9.60s WALL (     245 calls)
     mix_rho      :      2.84s CPU      3.08s WALL (     237 calls)

     Called by c_bands:
     init_us_2    :     28.14s CPU     28.53s WALL (   97658 calls)
     cegterg      :   6432.60s CPU   6495.98s WALL (   45741 calls)

     Called by sum_band:
     sum_band:bec :      2.01s CPU      2.05s WALL (   45741 calls)
     addusdens    :      9.72s CPU      9.91s WALL (     237 calls)

     Called by *egterg:
     h_psi        :   6069.06s CPU   6126.45s WALL (  126520 calls)
     s_psi        :     23.59s CPU     24.44s WALL (  126520 calls)
     g_psi        :      3.50s CPU      3.56s WALL (   80393 calls)
     cdiaghg      :    199.02s CPU    200.84s WALL (  122274 calls)

     Called by h_psi:
     h_psi:pot    :   6064.46s CPU   6121.67s WALL (  126520 calls)
     h_psi:calbec :     53.30s CPU     54.68s WALL (  126520 calls)
     vloc_psi     :   5984.35s CPU   6039.46s WALL (  126520 calls)
     add_vuspsi   :     25.37s CPU     26.16s WALL (  126520 calls)

     General routines
     calbec       :     79.54s CPU     81.18s WALL (  186736 calls)
     fft          :     19.66s CPU     21.40s WALL (    4021 calls)
     ffts         :      0.81s CPU      0.91s WALL (     482 calls)
     fftw         :   6299.84s CPU   6358.14s WALL ( 4724768 calls)
     interpolate  :      3.19s CPU      3.49s WALL (     482 calls)
     davcio       :      0.02s CPU      0.30s WALL (     386 calls)

     Parallel routines
     fft_scatter  :   1488.51s CPU   1507.90s WALL ( 4729271 calls)

     PWSCF        :     2h18m CPU        2h20m WALL


   This run was terminated on:  18:24: 2  12Feb2018            

=------------------------------------------------------------------------------=
   JOB DONE.
=------------------------------------------------------------------------------=
