
     Program PWSCF v.6.1 (svn rev. 13369) starts on 12Feb2018 at 20:32:36 

     This program is part of the open-source Quantum ESPRESSO suite
     for quantum simulation of materials; please cite
         "P. Giannozzi et al., J. Phys.:Condens. Matter 21 395502 (2009);
          URL http://www.quantum-espresso.org", 
     in publications or presentations arising from this work. More details at
     http://www.quantum-espresso.org/quote

     Parallel version (MPI), running on    64 processors
     K-points division:     npool     =       4
     R & G space division:  proc/nbgrp/npool/nimage =      16
     Waiting for input...
     Reading input from standard input

     Current dimensions of program PWSCF are:
     Max number of different atomic species (ntypx) = 10
     Max number of k-points (npk) =  80000
     Max angular momentum in pseudopotentials (lmaxx) =  3

     Subspace diagonalization in iterative solution of the eigenvalue problem:
     a serial algorithm will be used


     Parallelization info
     --------------------
     sticks:   dense  smooth     PW     G-vecs:    dense   smooth      PW
     Min         180      90     29                 4007     1420     274
     Max         181      91     30                 4009     1421     277
     Sum        2893    1447    473                64127    22723    4407



     bravais-lattice index     =           -5
     lattice parameter (alat)  =      17.0000  a.u.
     unit-cell volume          =     662.3628 (a.u.)^3
     number of atoms/cell      =            3
     number of atomic types    =            1
     number of electrons       =        27.00
     number of Kohn-Sham states=           18
     kinetic-energy cutoff     =      40.0000  Ry
     charge density cutoff     =     320.0000  Ry
     convergence threshold     =      1.0E-10
     mixing beta               =       0.7000
     number of iterations used =            8  plain     mixing
     Exchange-correlation      = SLA  PW   PBE  PBE ( 1  4  3  4 0 0)
     nstep                     =           50


     celldm(1)=  17.000000  celldm(2)=   0.000000  celldm(3)=   0.000000
     celldm(4)=   0.920000  celldm(5)=   0.000000  celldm(6)=   0.000000

     crystal axes: (cart. coord. in units of alat)
               a(1) = (   0.373182   0.656024   0.656024 )  
               a(2) = (   0.656024   0.373182   0.656024 )  
               a(3) = (   0.656024   0.656024   0.373182 )  

     reciprocal axes: (cart. coord. in units 2 pi/alat)
               b(1) = ( -2.159226  1.376308  1.376308 )  
               b(2) = (  1.376308 -2.159226  1.376308 )  
               b(3) = (  1.376308  1.376308 -2.159226 )  


     PseudoPot. # 1 for Na read from file:
     /home/s1333534/quantum_espresso/qe-6.1/pseudo/Na_pbe_v1.uspp.F.UPF
     MD5 check sum: 76a99c7e9422403d3e93cbc85ab7bccb
     Pseudo is Ultrasoft, Zval =  9.0
     Generated by new atomic code, or converted to UPF format
     Using radial grid of  819 points,  5 beta functions with: 
                l(1) =   0
                l(2) =   0
                l(3) =   1
                l(4) =   1
                l(5) =   2
     Q(r) pseudized with  8 coefficients,  rinner =    1.250   1.250   1.250
                                                       1.250   1.250

     atomic species   valence    mass     pseudopotential
        Na             9.00    22.99000     Na( 1.00)

     12 Sym. Ops., with inversion, found



   Cartesian axes

     site n.     atom                  positions (alat units)
         1           Na  tau(   1) = (   1.2171236   1.2171236   1.2171236  )
         2           Na  tau(   2) = (   0.4681063   0.4681063   0.4681063  )
         3           Na  tau(   3) = (   0.8426150   0.8426150   0.8426150  )

     number of k points=   770  Marzari-Vanderbilt smearing, width (Ry)=  0.0200

     Number of k-points >= 100: set verbosity='high' to print them.

     Dense  grid:    64127 G-vectors     FFT dimensions: ( 100, 100, 100)

     Smooth grid:    22723 G-vectors     FFT dimensions: (  72,  72,  72)

     Estimated max dynamical RAM per process >      16.43MB

     Estimated total allocated dynamical RAM >    1051.57MB

     Initial potential from superposition of free atoms

     starting charge   26.98113, renormalised to   27.00000
     Starting wfc are   15 randomized atomic wfcs +    3 random wfc

     total cpu time spent up to now is       12.1 secs

     per-process dynamical memory:    27.0 Mb

     Self-consistent Calculation

     iteration #  1     ecut=    40.00 Ry     beta=0.70
     Davidson diagonalization with overlap
     ethr =  1.00E-02,  avg # of iterations =  5.5

     Threshold (ethr) on eigenvalues was too large:
     Diagonalizing with lowered threshold

     Davidson diagonalization with overlap
     ethr =  9.94E-06,  avg # of iterations =  7.4

     total cpu time spent up to now is      102.7 secs

     total energy              =    -285.31611804 Ry
     Harris-Foulkes estimate   =    -285.31691275 Ry
     estimated scf accuracy    <       0.00278138 Ry

     iteration #  2     ecut=    40.00 Ry     beta=0.70
     Davidson diagonalization with overlap
     ethr =  1.03E-05,  avg # of iterations =  2.0

     total cpu time spent up to now is      138.9 secs

     total energy              =    -285.31642367 Ry
     Harris-Foulkes estimate   =    -285.31648847 Ry
     estimated scf accuracy    <       0.00029290 Ry

     iteration #  3     ecut=    40.00 Ry     beta=0.70
     Davidson diagonalization with overlap
     ethr =  1.08E-06,  avg # of iterations =  2.0

     total cpu time spent up to now is      176.9 secs

     total energy              =    -285.31645236 Ry
     Harris-Foulkes estimate   =    -285.31645641 Ry
     estimated scf accuracy    <       0.00001799 Ry

     iteration #  4     ecut=    40.00 Ry     beta=0.70
     Davidson diagonalization with overlap
     ethr =  6.66E-08,  avg # of iterations =  2.0

     total cpu time spent up to now is      210.6 secs

     total energy              =    -285.31645427 Ry
     Harris-Foulkes estimate   =    -285.31645415 Ry
     estimated scf accuracy    <       0.00000006 Ry

     iteration #  5     ecut=    40.00 Ry     beta=0.70
     Davidson diagonalization with overlap
     ethr =  2.37E-10,  avg # of iterations =  3.3

     total cpu time spent up to now is      251.4 secs

     total energy              =    -285.31645434 Ry
     Harris-Foulkes estimate   =    -285.31645441 Ry
     estimated scf accuracy    <       0.00000026 Ry

     iteration #  6     ecut=    40.00 Ry     beta=0.70
     Davidson diagonalization with overlap
     ethr =  2.37E-10,  avg # of iterations =  1.3

     total cpu time spent up to now is      282.5 secs

     total energy              =    -285.31645438 Ry
     Harris-Foulkes estimate   =    -285.31645438 Ry
     estimated scf accuracy    <          1.7E-09 Ry

     iteration #  7     ecut=    40.00 Ry     beta=0.70
     Davidson diagonalization with overlap
     ethr =  6.46E-12,  avg # of iterations =  2.0

     total cpu time spent up to now is      314.5 secs

     total energy              =    -285.31645438 Ry
     Harris-Foulkes estimate   =    -285.31645438 Ry
     estimated scf accuracy    <          2.5E-10 Ry

     iteration #  8     ecut=    40.00 Ry     beta=0.70
     Davidson diagonalization with overlap
     ethr =  9.24E-13,  avg # of iterations =  1.9

     total cpu time spent up to now is      346.3 secs

     End of self-consistent calculation

     Number of k-points >= 100: set verbosity='high' to print the bands.

     the Fermi energy is     2.1616 ev

!    total energy              =    -285.31645438 Ry
     Harris-Foulkes estimate   =    -285.31645438 Ry
     estimated scf accuracy    <          6.2E-13 Ry

     The total energy is the sum of the following terms:

     one-electron contribution =    -256.14327683 Ry
     hartree contribution      =     129.80226548 Ry
     xc contribution           =     -42.85565928 Ry
     ewald contribution        =    -116.11964061 Ry
     smearing contrib. (-TS)   =      -0.00014315 Ry

     convergence has been achieved in   8 iterations

     Forces acting on atoms (cartesian axes, Ry/au):

     atom    1 type  1   force =    -0.00000461   -0.00000461   -0.00000461
     atom    2 type  1   force =     0.00000461    0.00000461    0.00000461
     atom    3 type  1   force =    -0.00000000   -0.00000000    0.00000000

     Total force =     0.000011     Total SCF correction =     0.000000


     Computing stress (Cartesian axis) and pressure

          total   stress  (Ry/bohr**3)                   (kbar)     P=    9.02
   0.00006132   0.00000277   0.00000277          9.02      0.41      0.41
   0.00000277   0.00006132   0.00000277          0.41      9.02      0.41
   0.00000277   0.00000277   0.00006132          0.41      0.41      9.02


     BFGS Geometry Optimization

     number of scf cycles    =   1
     number of bfgs steps    =   0

     enthalpy new            =    -285.2894384734 Ry

     new trust radius        =       0.0026903266 bohr
     new conv_thr            =            1.0E-10 Ry

     new unit-cell volume =    663.38352 a.u.^3 (    98.30329 Ang^3 )
     density =      1.16504 g/cm^3

CELL_PARAMETERS (alat= 17.00000000)
   0.373463905   0.656432263   0.656432263
   0.656432263   0.373463905   0.656432263
   0.656432263   0.656432263   0.373463905

ATOMIC_POSITIONS (crystal)
Na       0.722229839   0.722229839   0.722229839
Na       0.277770161   0.277770161   0.277770161
Na       0.500000000   0.500000000   0.500000000



     Writing output data file na.9r.save
     NEW-OLD atomic charge density approx. for the potential
     extrapolated charge   27.04152, renormalised to   27.00000

     total cpu time spent up to now is      352.7 secs

     per-process dynamical memory:    35.1 Mb

     Self-consistent Calculation

     iteration #  1     ecut=    40.00 Ry     beta=0.70
     Davidson diagonalization with overlap
     ethr =  1.00E-06,  avg # of iterations =  2.0

     total cpu time spent up to now is      394.5 secs

     total energy              =    -285.31614014 Ry
     Harris-Foulkes estimate   =    -285.00274383 Ry
     estimated scf accuracy    <       0.00021070 Ry

     iteration #  2     ecut=    40.00 Ry     beta=0.70
     Davidson diagonalization with overlap
     ethr =  7.80E-07,  avg # of iterations =  3.0

     total cpu time spent up to now is      440.3 secs

     total energy              =    -285.31652421 Ry
     Harris-Foulkes estimate   =    -285.31667919 Ry
     estimated scf accuracy    <       0.00035311 Ry

     iteration #  3     ecut=    40.00 Ry     beta=0.70
     Davidson diagonalization with overlap
     ethr =  7.80E-07,  avg # of iterations =  2.0

     total cpu time spent up to now is      477.8 secs

     total energy              =    -285.31652437 Ry
     Harris-Foulkes estimate   =    -285.31654764 Ry
     estimated scf accuracy    <       0.00006790 Ry

     iteration #  4     ecut=    40.00 Ry     beta=0.70
     Davidson diagonalization with overlap
     ethr =  2.51E-07,  avg # of iterations =  1.0

     total cpu time spent up to now is      508.1 secs

     total energy              =    -285.31652596 Ry
     Harris-Foulkes estimate   =    -285.31652712 Ry
     estimated scf accuracy    <       0.00002297 Ry

     iteration #  5     ecut=    40.00 Ry     beta=0.70
     Davidson diagonalization with overlap
     ethr =  8.51E-08,  avg # of iterations =  1.0

     total cpu time spent up to now is      538.5 secs

     total energy              =    -285.31652035 Ry
     Harris-Foulkes estimate   =    -285.31652617 Ry
     estimated scf accuracy    <       0.00002050 Ry

     iteration #  6     ecut=    40.00 Ry     beta=0.70
     Davidson diagonalization with overlap
     ethr =  7.59E-08,  avg # of iterations =  1.0

     total cpu time spent up to now is      569.0 secs

     total energy              =    -285.31651664 Ry
     Harris-Foulkes estimate   =    -285.31652091 Ry
     estimated scf accuracy    <       0.00000883 Ry

     iteration #  7     ecut=    40.00 Ry     beta=0.70
     Davidson diagonalization with overlap
     ethr =  3.27E-08,  avg # of iterations =  2.0

     total cpu time spent up to now is      603.7 secs

     total energy              =    -285.31651680 Ry
     Harris-Foulkes estimate   =    -285.31651749 Ry
     estimated scf accuracy    <       0.00000110 Ry

     iteration #  8     ecut=    40.00 Ry     beta=0.70
     Davidson diagonalization with overlap
     ethr =  4.09E-09,  avg # of iterations =  2.0

     total cpu time spent up to now is      642.3 secs

     total energy              =    -285.31651704 Ry
     Harris-Foulkes estimate   =    -285.31651701 Ry
     estimated scf accuracy    <       0.00000001 Ry

     iteration #  9     ecut=    40.00 Ry     beta=0.70
     Davidson diagonalization with overlap
     ethr =  5.38E-11,  avg # of iterations =  2.1

     total cpu time spent up to now is      681.6 secs

     total energy              =    -285.31651702 Ry
     Harris-Foulkes estimate   =    -285.31651704 Ry
     estimated scf accuracy    <       0.00000008 Ry

     iteration # 10     ecut=    40.00 Ry     beta=0.70
     Davidson diagonalization with overlap
     ethr =  5.38E-11,  avg # of iterations =  2.0

     total cpu time spent up to now is      720.2 secs

     total energy              =    -285.31651700 Ry
     Harris-Foulkes estimate   =    -285.31651702 Ry
     estimated scf accuracy    <       0.00000003 Ry

     iteration # 11     ecut=    40.00 Ry     beta=0.70
     Davidson diagonalization with overlap
     ethr =  5.38E-11,  avg # of iterations =  2.0

     total cpu time spent up to now is      758.4 secs

     End of self-consistent calculation

     Number of k-points >= 100: set verbosity='high' to print the bands.

     the Fermi energy is     2.1542 ev

!    total energy              =    -285.31651701 Ry
     Harris-Foulkes estimate   =    -285.31651701 Ry
     estimated scf accuracy    <          6.3E-11 Ry

     The total energy is the sum of the following terms:

     one-electron contribution =    -256.24741157 Ry
     hartree contribution      =     129.84615778 Ry
     xc contribution           =     -42.85501452 Ry
     ewald contribution        =    -116.06010597 Ry
     smearing contrib. (-TS)   =      -0.00014273 Ry

     convergence has been achieved in  11 iterations

     Forces acting on atoms (cartesian axes, Ry/au):

     atom    1 type  1   force =    -0.00000387   -0.00000387   -0.00000387
     atom    2 type  1   force =     0.00000387    0.00000387    0.00000387
     atom    3 type  1   force =    -0.00000000    0.00000000   -0.00000000

     Total force =     0.000009     Total SCF correction =     0.000000


     Computing stress (Cartesian axis) and pressure

          total   stress  (Ry/bohr**3)                   (kbar)     P=    8.82
   0.00005995   0.00000268   0.00000268          8.82      0.39      0.39
   0.00000268   0.00005995   0.00000268          0.39      8.82      0.39
   0.00000268   0.00000268   0.00005995          0.39      0.39      8.82


     number of scf cycles    =   2
     number of bfgs steps    =   1

     enthalpy old            =    -285.2894384734 Ry
     enthalpy new            =    -285.2894594649 Ry

     CASE: enthalpy_new < enthalpy_old


     WARNING: bfgs curvature condition failed, Theta= 0.855
     new trust radius        =       0.0029600052 bohr
     new conv_thr            =            1.0E-12 Ry

     new unit-cell volume =    664.50656 a.u.^3 (    98.46971 Ang^3 )
     density =      1.16307 g/cm^3

CELL_PARAMETERS (alat= 17.00000000)
   0.373776673   0.656882608   0.656882608
   0.656882608   0.373776673   0.656882608
   0.656882608   0.656882608   0.373776673

ATOMIC_POSITIONS (crystal)
Na       0.722229674   0.722229674   0.722229674
Na       0.277770326   0.277770326   0.277770326
Na       0.500000000   0.500000000   0.500000000



     Writing output data file na.9r.save
     NEW-OLD atomic charge density approx. for the potential
     extrapolated charge   27.04560, renormalised to   27.00000

     total cpu time spent up to now is      765.1 secs

     per-process dynamical memory:    35.1 Mb

     Self-consistent Calculation

     iteration #  1     ecut=    40.00 Ry     beta=0.70
     Davidson diagonalization with overlap
     ethr =  1.00E-06,  avg # of iterations =  2.0

     total cpu time spent up to now is      806.9 secs

     total energy              =    -285.31612916 Ry
     Harris-Foulkes estimate   =    -284.97177382 Ry
     estimated scf accuracy    <       0.00025446 Ry

     iteration #  2     ecut=    40.00 Ry     beta=0.70
     Davidson diagonalization with overlap
     ethr =  9.42E-07,  avg # of iterations =  3.0

     total cpu time spent up to now is      852.1 secs

     total energy              =    -285.31659295 Ry
     Harris-Foulkes estimate   =    -285.31678008 Ry
     estimated scf accuracy    <       0.00042634 Ry

     iteration #  3     ecut=    40.00 Ry     beta=0.70
     Davidson diagonalization with overlap
     ethr =  9.42E-07,  avg # of iterations =  2.0

     total cpu time spent up to now is      887.6 secs

     total energy              =    -285.31659306 Ry
     Harris-Foulkes estimate   =    -285.31662123 Ry
     estimated scf accuracy    <       0.00008199 Ry

     iteration #  4     ecut=    40.00 Ry     beta=0.70
     Davidson diagonalization with overlap
     ethr =  3.04E-07,  avg # of iterations =  1.0

     total cpu time spent up to now is      917.8 secs

     total energy              =    -285.31659505 Ry
     Harris-Foulkes estimate   =    -285.31659640 Ry
     estimated scf accuracy    <       0.00002763 Ry

     iteration #  5     ecut=    40.00 Ry     beta=0.70
     Davidson diagonalization with overlap
     ethr =  1.02E-07,  avg # of iterations =  1.0

     total cpu time spent up to now is      948.1 secs

     total energy              =    -285.31658823 Ry
     Harris-Foulkes estimate   =    -285.31659531 Ry
     estimated scf accuracy    <       0.00002481 Ry

     iteration #  6     ecut=    40.00 Ry     beta=0.70
     Davidson diagonalization with overlap
     ethr =  9.19E-08,  avg # of iterations =  1.0

     total cpu time spent up to now is      978.5 secs

     total energy              =    -285.31658383 Ry
     Harris-Foulkes estimate   =    -285.31658892 Ry
     estimated scf accuracy    <       0.00001061 Ry

     iteration #  7     ecut=    40.00 Ry     beta=0.70
     Davidson diagonalization with overlap
     ethr =  3.93E-08,  avg # of iterations =  2.0

     total cpu time spent up to now is     1013.1 secs

     total energy              =    -285.31658398 Ry
     Harris-Foulkes estimate   =    -285.31658483 Ry
     estimated scf accuracy    <       0.00000138 Ry

     iteration #  8     ecut=    40.00 Ry     beta=0.70
     Davidson diagonalization with overlap
     ethr =  5.10E-09,  avg # of iterations =  2.0

     total cpu time spent up to now is     1051.7 secs

     total energy              =    -285.31658427 Ry
     Harris-Foulkes estimate   =    -285.31658424 Ry
     estimated scf accuracy    <       0.00000002 Ry

     iteration #  9     ecut=    40.00 Ry     beta=0.70
     Davidson diagonalization with overlap
     ethr =  6.97E-11,  avg # of iterations =  2.0

     total cpu time spent up to now is     1091.3 secs

     total energy              =    -285.31658425 Ry
     Harris-Foulkes estimate   =    -285.31658428 Ry
     estimated scf accuracy    <       0.00000009 Ry

     iteration # 10     ecut=    40.00 Ry     beta=0.70
     Davidson diagonalization with overlap
     ethr =  6.97E-11,  avg # of iterations =  2.0

     total cpu time spent up to now is     1128.4 secs

     total energy              =    -285.31658423 Ry
     Harris-Foulkes estimate   =    -285.31658425 Ry
     estimated scf accuracy    <       0.00000004 Ry

     iteration # 11     ecut=    40.00 Ry     beta=0.70
     Davidson diagonalization with overlap
     ethr =  6.97E-11,  avg # of iterations =  2.0

     total cpu time spent up to now is     1167.3 secs

     total energy              =    -285.31658423 Ry
     Harris-Foulkes estimate   =    -285.31658423 Ry
     estimated scf accuracy    <          7.8E-11 Ry

     iteration # 12     ecut=    40.00 Ry     beta=0.70
     Davidson diagonalization with overlap
     ethr =  2.87E-13,  avg # of iterations =  2.0

     total cpu time spent up to now is     1200.0 secs

     total energy              =    -285.31658423 Ry
     Harris-Foulkes estimate   =    -285.31658423 Ry
     estimated scf accuracy    <          7.5E-11 Ry

     iteration # 13     ecut=    40.00 Ry     beta=0.70
     Davidson diagonalization with overlap
     ethr =  2.77E-13,  avg # of iterations =  1.0

     total cpu time spent up to now is     1230.3 secs

     total energy              =    -285.31658423 Ry
     Harris-Foulkes estimate   =    -285.31658423 Ry
     estimated scf accuracy    <          6.0E-11 Ry

     iteration # 14     ecut=    40.00 Ry     beta=0.70
     Davidson diagonalization with overlap
     ethr =  2.24E-13,  avg # of iterations =  1.0

     total cpu time spent up to now is     1260.8 secs

     total energy              =    -285.31658423 Ry
     Harris-Foulkes estimate   =    -285.31658423 Ry
     estimated scf accuracy    <          1.1E-11 Ry

     iteration # 15     ecut=    40.00 Ry     beta=0.70
     Davidson diagonalization with overlap
     ethr =  1.00E-13,  avg # of iterations =  1.0

     total cpu time spent up to now is     1290.8 secs

     total energy              =    -285.31658423 Ry
     Harris-Foulkes estimate   =    -285.31658423 Ry
     estimated scf accuracy    <          5.9E-12 Ry

     iteration # 16     ecut=    40.00 Ry     beta=0.70
     Davidson diagonalization with overlap
     ethr =  1.00E-13,  avg # of iterations =  1.0

     total cpu time spent up to now is     1321.1 secs

     End of self-consistent calculation

     Number of k-points >= 100: set verbosity='high' to print the bands.

     the Fermi energy is     2.1462 ev

!    total energy              =    -285.31658423 Ry
     Harris-Foulkes estimate   =    -285.31658423 Ry
     estimated scf accuracy    <          6.2E-15 Ry

     The total energy is the sum of the following terms:

     one-electron contribution =    -256.36169849 Ry
     hartree contribution      =     129.89429793 Ry
     xc contribution           =     -42.85429635 Ry
     ewald contribution        =    -115.99474506 Ry
     smearing contrib. (-TS)   =      -0.00014226 Ry

     convergence has been achieved in  16 iterations

     Forces acting on atoms (cartesian axes, Ry/au):

     atom    1 type  1   force =    -0.00000379   -0.00000379   -0.00000379
     atom    2 type  1   force =     0.00000379    0.00000379    0.00000379
     atom    3 type  1   force =     0.00000000    0.00000000   -0.00000000

     Total force =     0.000009     Total SCF correction =     0.000000


     Computing stress (Cartesian axis) and pressure

          total   stress  (Ry/bohr**3)                   (kbar)     P=    8.59
   0.00005836   0.00000257   0.00000257          8.59      0.38      0.38
   0.00000257   0.00005836   0.00000257          0.38      8.59      0.38
   0.00000257   0.00000257   0.00005836          0.38      0.38      8.59


     number of scf cycles    =   3
     number of bfgs steps    =   2

     enthalpy old            =    -285.2894594649 Ry
     enthalpy new            =    -285.2894808855 Ry

     CASE: enthalpy_new < enthalpy_old

     new trust radius        =       0.0044410635 bohr
     new conv_thr            =            1.0E-12 Ry

     new unit-cell volume =    666.19088 a.u.^3 (    98.71930 Ang^3 )
     density =      1.16013 g/cm^3

CELL_PARAMETERS (alat= 17.00000000)
   0.374251344   0.657561986   0.657561986
   0.657561986   0.374251344   0.657561986
   0.657561986   0.657561986   0.374251344

ATOMIC_POSITIONS (crystal)
Na       0.722229414   0.722229414   0.722229414
Na       0.277770586   0.277770586   0.277770586
Na       0.500000000   0.500000000   0.500000000



     Writing output data file na.9r.save
     NEW-OLD atomic charge density approx. for the potential
     extrapolated charge   27.06822, renormalised to   27.00000

     total cpu time spent up to now is     1327.5 secs

     per-process dynamical memory:    35.1 Mb

     Self-consistent Calculation

     iteration #  1     ecut=    40.00 Ry     beta=0.70
     Davidson diagonalization with overlap
     ethr =  1.00E-06,  avg # of iterations =  3.0

     total cpu time spent up to now is     1371.6 secs

     total energy              =    -285.31565920 Ry
     Harris-Foulkes estimate   =    -284.80041230 Ry
     estimated scf accuracy    <       0.00057157 Ry

     iteration #  2     ecut=    40.00 Ry     beta=0.70
     Davidson diagonalization with overlap
     ethr =  2.12E-06,  avg # of iterations =  3.0

     total cpu time spent up to now is     1419.4 secs

     total energy              =    -285.31670171 Ry
     Harris-Foulkes estimate   =    -285.31712216 Ry
     estimated scf accuracy    <       0.00095799 Ry

     iteration #  3     ecut=    40.00 Ry     beta=0.70
     Davidson diagonalization with overlap
     ethr =  2.12E-06,  avg # of iterations =  2.0

     total cpu time spent up to now is     1455.1 secs

     total energy              =    -285.31669970 Ry
     Harris-Foulkes estimate   =    -285.31676529 Ry
     estimated scf accuracy    <       0.00018416 Ry

     iteration #  4     ecut=    40.00 Ry     beta=0.70
     Davidson diagonalization with overlap
     ethr =  6.82E-07,  avg # of iterations =  1.0

     total cpu time spent up to now is     1485.2 secs

     total energy              =    -285.31670813 Ry
     Harris-Foulkes estimate   =    -285.31670753 Ry
     estimated scf accuracy    <       0.00005881 Ry

     iteration #  5     ecut=    40.00 Ry     beta=0.70
     Davidson diagonalization with overlap
     ethr =  2.18E-07,  avg # of iterations =  1.0

     total cpu time spent up to now is     1515.3 secs

     total energy              =    -285.31669325 Ry
     Harris-Foulkes estimate   =    -285.31670862 Ry
     estimated scf accuracy    <       0.00006112 Ry

     iteration #  6     ecut=    40.00 Ry     beta=0.70
     Davidson diagonalization with overlap
     ethr =  2.18E-07,  avg # of iterations =  1.0

     total cpu time spent up to now is     1545.4 secs

     total energy              =    -285.31668777 Ry
     Harris-Foulkes estimate   =    -285.31669472 Ry
     estimated scf accuracy    <       0.00002899 Ry

     iteration #  7     ecut=    40.00 Ry     beta=0.70
     Davidson diagonalization with overlap
     ethr =  1.07E-07,  avg # of iterations =  1.0

     total cpu time spent up to now is     1575.3 secs

     total energy              =    -285.31668185 Ry
     Harris-Foulkes estimate   =    -285.31668841 Ry
     estimated scf accuracy    <       0.00001430 Ry

     iteration #  8     ecut=    40.00 Ry     beta=0.70
     Davidson diagonalization with overlap
     ethr =  5.30E-08,  avg # of iterations =  1.0

     total cpu time spent up to now is     1605.5 secs

     total energy              =    -285.31668145 Ry
     Harris-Foulkes estimate   =    -285.31668285 Ry
     estimated scf accuracy    <       0.00000251 Ry

     iteration #  9     ecut=    40.00 Ry     beta=0.70
     Davidson diagonalization with overlap
     ethr =  9.29E-09,  avg # of iterations =  2.0

     total cpu time spent up to now is     1642.0 secs

     total energy              =    -285.31668186 Ry
     Harris-Foulkes estimate   =    -285.31668186 Ry
     estimated scf accuracy    <       0.00000013 Ry

     iteration # 10     ecut=    40.00 Ry     beta=0.70
     Davidson diagonalization with overlap
     ethr =  4.85E-10,  avg # of iterations =  1.0

     total cpu time spent up to now is     1672.8 secs

     total energy              =    -285.31668178 Ry
     Harris-Foulkes estimate   =    -285.31668186 Ry
     estimated scf accuracy    <       0.00000012 Ry

     iteration # 11     ecut=    40.00 Ry     beta=0.70
     Davidson diagonalization with overlap
     ethr =  4.27E-10,  avg # of iterations =  2.0

     total cpu time spent up to now is     1711.3 secs

     total energy              =    -285.31668180 Ry
     Harris-Foulkes estimate   =    -285.31668180 Ry
     estimated scf accuracy    <          3.0E-10 Ry

     iteration # 12     ecut=    40.00 Ry     beta=0.70
     Davidson diagonalization with overlap
     ethr =  1.12E-12,  avg # of iterations =  2.7

     total cpu time spent up to now is     1744.8 secs

     total energy              =    -285.31668180 Ry
     Harris-Foulkes estimate   =    -285.31668180 Ry
     estimated scf accuracy    <          3.1E-10 Ry

     iteration # 13     ecut=    40.00 Ry     beta=0.70
     Davidson diagonalization with overlap
     ethr =  1.12E-12,  avg # of iterations =  1.0

     total cpu time spent up to now is     1774.7 secs

     total energy              =    -285.31668180 Ry
     Harris-Foulkes estimate   =    -285.31668180 Ry
     estimated scf accuracy    <          2.3E-10 Ry

     iteration # 14     ecut=    40.00 Ry     beta=0.70
     Davidson diagonalization with overlap
     ethr =  8.49E-13,  avg # of iterations =  1.0

     total cpu time spent up to now is     1804.9 secs

     total energy              =    -285.31668180 Ry
     Harris-Foulkes estimate   =    -285.31668180 Ry
     estimated scf accuracy    <          2.2E-10 Ry

     iteration # 15     ecut=    40.00 Ry     beta=0.70
     Davidson diagonalization with overlap
     ethr =  8.25E-13,  avg # of iterations =  2.0

     total cpu time spent up to now is     1841.1 secs

     total energy              =    -285.31668180 Ry
     Harris-Foulkes estimate   =    -285.31668180 Ry
     estimated scf accuracy    <          1.9E-10 Ry

     iteration # 16     ecut=    40.00 Ry     beta=0.70
     Davidson diagonalization with overlap
     ethr =  7.14E-13,  avg # of iterations =  1.0

     total cpu time spent up to now is     1871.8 secs

     total energy              =    -285.31668180 Ry
     Harris-Foulkes estimate   =    -285.31668180 Ry
     estimated scf accuracy    <          2.2E-10 Ry

     iteration # 17     ecut=    40.00 Ry     beta=0.70
     Davidson diagonalization with overlap
     ethr =  7.14E-13,  avg # of iterations =  1.0

     total cpu time spent up to now is     1902.4 secs

     total energy              =    -285.31668180 Ry
     Harris-Foulkes estimate   =    -285.31668180 Ry
     estimated scf accuracy    <          2.2E-10 Ry

     iteration # 18     ecut=    40.00 Ry     beta=0.70
     Davidson diagonalization with overlap
     ethr =  7.14E-13,  avg # of iterations =  1.9

     total cpu time spent up to now is     1934.5 secs

     total energy              =    -285.31668180 Ry
     Harris-Foulkes estimate   =    -285.31668180 Ry
     estimated scf accuracy    <          2.2E-11 Ry

     iteration # 19     ecut=    40.00 Ry     beta=0.70
     Davidson diagonalization with overlap
     ethr =  1.00E-13,  avg # of iterations =  1.0

     total cpu time spent up to now is     1964.7 secs

     total energy              =    -285.31668180 Ry
     Harris-Foulkes estimate   =    -285.31668180 Ry
     estimated scf accuracy    <          1.9E-11 Ry

     iteration # 20     ecut=    40.00 Ry     beta=0.70
     Davidson diagonalization with overlap
     ethr =  1.00E-13,  avg # of iterations =  1.0

     total cpu time spent up to now is     1994.7 secs

     total energy              =    -285.31668180 Ry
     Harris-Foulkes estimate   =    -285.31668180 Ry
     estimated scf accuracy    <          9.4E-12 Ry

     iteration # 21     ecut=    40.00 Ry     beta=0.70
     Davidson diagonalization with overlap
     ethr =  1.00E-13,  avg # of iterations =  1.0

     total cpu time spent up to now is     2024.7 secs

     End of self-consistent calculation

     Number of k-points >= 100: set verbosity='high' to print the bands.

     the Fermi energy is     2.1342 ev

!    total energy              =    -285.31668180 Ry
     Harris-Foulkes estimate   =    -285.31668180 Ry
     estimated scf accuracy    <          5.8E-13 Ry

     The total energy is the sum of the following terms:

     one-electron contribution =    -256.53267138 Ry
     hartree contribution      =     129.96635588 Ry
     xc contribution           =     -42.85323171 Ry
     ewald contribution        =    -115.89699307 Ry
     smearing contrib. (-TS)   =      -0.00014154 Ry

     convergence has been achieved in  21 iterations

     Forces acting on atoms (cartesian axes, Ry/au):

     atom    1 type  1   force =    -0.00000360   -0.00000360   -0.00000360
     atom    2 type  1   force =     0.00000360    0.00000360    0.00000360
     atom    3 type  1   force =    -0.00000000   -0.00000000    0.00000000

     Total force =     0.000009     Total SCF correction =     0.000000


     Computing stress (Cartesian axis) and pressure

          total   stress  (Ry/bohr**3)                   (kbar)     P=    8.25
   0.00005609   0.00000241   0.00000241          8.25      0.36      0.36
   0.00000241   0.00005609   0.00000241          0.36      8.25      0.36
   0.00000241   0.00000241   0.00005609          0.36      0.36      8.25


     number of scf cycles    =   4
     number of bfgs steps    =   3

     enthalpy old            =    -285.2894808855 Ry
     enthalpy new            =    -285.2895097578 Ry

     CASE: enthalpy_new < enthalpy_old

     new trust radius        =       0.0066639303 bohr
     new conv_thr            =            1.0E-12 Ry

     new unit-cell volume =    668.71846 a.u.^3 (    99.09385 Ang^3 )
     density =      1.15575 g/cm^3

CELL_PARAMETERS (alat= 17.00000000)
   0.374971848   0.658586971   0.658586971
   0.658586971   0.374971848   0.658586971
   0.658586971   0.658586971   0.374971848

ATOMIC_POSITIONS (crystal)
Na       0.722229006   0.722229006   0.722229006
Na       0.277770994   0.277770994   0.277770994
Na       0.500000000   0.500000000   0.500000000



     Writing output data file na.9r.save
     NEW-OLD atomic charge density approx. for the potential
     extrapolated charge   27.10198, renormalised to   27.00000

     total cpu time spent up to now is     2031.1 secs

     per-process dynamical memory:    35.1 Mb

     Self-consistent Calculation

     iteration #  1     ecut=    40.00 Ry     beta=0.70
     Davidson diagonalization with overlap
     ethr =  1.00E-06,  avg # of iterations =  3.0

     total cpu time spent up to now is     2077.5 secs

     total energy              =    -285.31452226 Ry
     Harris-Foulkes estimate   =    -284.54404326 Ry
     estimated scf accuracy    <       0.00128445 Ry

     iteration #  2     ecut=    40.00 Ry     beta=0.70
     Davidson diagonalization with overlap
     ethr =  4.76E-06,  avg # of iterations =  3.0

     total cpu time spent up to now is     2125.8 secs

     total energy              =    -285.31686666 Ry
     Harris-Foulkes estimate   =    -285.31781161 Ry
     estimated scf accuracy    <       0.00215307 Ry

     iteration #  3     ecut=    40.00 Ry     beta=0.70
     Davidson diagonalization with overlap
     ethr =  4.76E-06,  avg # of iterations =  2.0

     total cpu time spent up to now is     2161.6 secs

     total energy              =    -285.31686050 Ry
     Harris-Foulkes estimate   =    -285.31700918 Ry
     estimated scf accuracy    <       0.00041492 Ry

     iteration #  4     ecut=    40.00 Ry     beta=0.70
     Davidson diagonalization with overlap
     ethr =  1.54E-06,  avg # of iterations =  1.0

     total cpu time spent up to now is     2191.9 secs

     total energy              =    -285.31688132 Ry
     Harris-Foulkes estimate   =    -285.31687832 Ry
     estimated scf accuracy    <       0.00013117 Ry

     iteration #  5     ecut=    40.00 Ry     beta=0.70
     Davidson diagonalization with overlap
     ethr =  4.86E-07,  avg # of iterations =  1.0

     total cpu time spent up to now is     2222.5 secs

     total energy              =    -285.31684738 Ry
     Harris-Foulkes estimate   =    -285.31688240 Ry
     estimated scf accuracy    <       0.00014000 Ry

     iteration #  6     ecut=    40.00 Ry     beta=0.70
     Davidson diagonalization with overlap
     ethr =  4.86E-07,  avg # of iterations =  1.0

     total cpu time spent up to now is     2252.5 secs

     total energy              =    -285.31683678 Ry
     Harris-Foulkes estimate   =    -285.31685071 Ry
     estimated scf accuracy    <       0.00006674 Ry

     iteration #  7     ecut=    40.00 Ry     beta=0.70
     Davidson diagonalization with overlap
     ethr =  2.47E-07,  avg # of iterations =  1.0

     total cpu time spent up to now is     2283.0 secs

     total energy              =    -285.31682260 Ry
     Harris-Foulkes estimate   =    -285.31683796 Ry
     estimated scf accuracy    <       0.00003656 Ry

     iteration #  8     ecut=    40.00 Ry     beta=0.70
     Davidson diagonalization with overlap
     ethr =  1.35E-07,  avg # of iterations =  1.0

     total cpu time spent up to now is     2313.2 secs

     total energy              =    -285.31681983 Ry
     Harris-Foulkes estimate   =    -285.31682460 Ry
     estimated scf accuracy    <       0.00000848 Ry

     iteration #  9     ecut=    40.00 Ry     beta=0.70
     Davidson diagonalization with overlap
     ethr =  3.14E-08,  avg # of iterations =  2.0

     total cpu time spent up to now is     2349.6 secs

     total energy              =    -285.31682106 Ry
     Harris-Foulkes estimate   =    -285.31682113 Ry
     estimated scf accuracy    <       0.00000042 Ry

     iteration # 10     ecut=    40.00 Ry     beta=0.70
     Davidson diagonalization with overlap
     ethr =  1.55E-09,  avg # of iterations =  1.0

     total cpu time spent up to now is     2379.7 secs

     total energy              =    -285.31682087 Ry
     Harris-Foulkes estimate   =    -285.31682107 Ry
     estimated scf accuracy    <       0.00000028 Ry

     iteration # 11     ecut=    40.00 Ry     beta=0.70
     Davidson diagonalization with overlap
     ethr =  1.05E-09,  avg # of iterations =  2.0

     total cpu time spent up to now is     2417.7 secs

     total energy              =    -285.31682094 Ry
     Harris-Foulkes estimate   =    -285.31682094 Ry
     estimated scf accuracy    <          3.5E-09 Ry

     iteration # 12     ecut=    40.00 Ry     beta=0.70
     Davidson diagonalization with overlap
     ethr =  1.31E-11,  avg # of iterations =  2.1

     total cpu time spent up to now is     2449.4 secs

     total energy              =    -285.31682094 Ry
     Harris-Foulkes estimate   =    -285.31682094 Ry
     estimated scf accuracy    <          4.5E-09 Ry

     iteration # 13     ecut=    40.00 Ry     beta=0.70
     Davidson diagonalization with overlap
     ethr =  1.31E-11,  avg # of iterations =  1.0

     total cpu time spent up to now is     2479.1 secs

     total energy              =    -285.31682094 Ry
     Harris-Foulkes estimate   =    -285.31682094 Ry
     estimated scf accuracy    <          4.7E-09 Ry

     iteration # 14     ecut=    40.00 Ry     beta=0.70
     Davidson diagonalization with overlap
     ethr =  1.31E-11,  avg # of iterations =  1.0

     total cpu time spent up to now is     2508.9 secs

     total energy              =    -285.31682094 Ry
     Harris-Foulkes estimate   =    -285.31682094 Ry
     estimated scf accuracy    <          3.1E-09 Ry

     iteration # 15     ecut=    40.00 Ry     beta=0.70
     Davidson diagonalization with overlap
     ethr =  1.13E-11,  avg # of iterations =  2.0

     total cpu time spent up to now is     2544.6 secs

     total energy              =    -285.31682094 Ry
     Harris-Foulkes estimate   =    -285.31682094 Ry
     estimated scf accuracy    <          5.0E-10 Ry

     iteration # 16     ecut=    40.00 Ry     beta=0.70
     Davidson diagonalization with overlap
     ethr =  1.87E-12,  avg # of iterations =  1.0

     total cpu time spent up to now is     2574.8 secs

     total energy              =    -285.31682094 Ry
     Harris-Foulkes estimate   =    -285.31682094 Ry
     estimated scf accuracy    <          3.8E-10 Ry

     iteration # 17     ecut=    40.00 Ry     beta=0.70
     Davidson diagonalization with overlap
     ethr =  1.42E-12,  avg # of iterations =  1.0

     total cpu time spent up to now is     2604.3 secs

     total energy              =    -285.31682094 Ry
     Harris-Foulkes estimate   =    -285.31682094 Ry
     estimated scf accuracy    <          1.6E-10 Ry

     iteration # 18     ecut=    40.00 Ry     beta=0.70
     Davidson diagonalization with overlap
     ethr =  6.02E-13,  avg # of iterations =  1.0

     total cpu time spent up to now is     2634.3 secs

     total energy              =    -285.31682094 Ry
     Harris-Foulkes estimate   =    -285.31682094 Ry
     estimated scf accuracy    <          8.5E-12 Ry

     iteration # 19     ecut=    40.00 Ry     beta=0.70
     Davidson diagonalization with overlap
     ethr =  1.00E-13,  avg # of iterations =  1.1

     total cpu time spent up to now is     2664.4 secs

     total energy              =    -285.31682094 Ry
     Harris-Foulkes estimate   =    -285.31682094 Ry
     estimated scf accuracy    <          7.3E-12 Ry

     iteration # 20     ecut=    40.00 Ry     beta=0.70
     Davidson diagonalization with overlap
     ethr =  1.00E-13,  avg # of iterations =  1.0

     total cpu time spent up to now is     2694.4 secs

     total energy              =    -285.31682094 Ry
     Harris-Foulkes estimate   =    -285.31682094 Ry
     estimated scf accuracy    <          2.3E-12 Ry

     iteration # 21     ecut=    40.00 Ry     beta=0.70
     Davidson diagonalization with overlap
     ethr =  1.00E-13,  avg # of iterations =  1.0

     total cpu time spent up to now is     2724.1 secs

     End of self-consistent calculation

     Number of k-points >= 100: set verbosity='high' to print the bands.

     the Fermi energy is     2.1162 ev

!    total energy              =    -285.31682094 Ry
     Harris-Foulkes estimate   =    -285.31682094 Ry
     estimated scf accuracy    <          3.1E-13 Ry

     The total energy is the sum of the following terms:

     one-electron contribution =    -256.78818373 Ry
     hartree contribution      =     130.07405868 Ry
     xc contribution           =     -42.85164012 Ry
     ewald contribution        =    -115.75091535 Ry
     smearing contrib. (-TS)   =      -0.00014042 Ry

     convergence has been achieved in  21 iterations

     Forces acting on atoms (cartesian axes, Ry/au):

     atom    1 type  1   force =    -0.00000323   -0.00000323   -0.00000323
     atom    2 type  1   force =     0.00000323    0.00000323    0.00000323
     atom    3 type  1   force =    -0.00000000    0.00000000    0.00000000

     Total force =     0.000008     Total SCF correction =     0.000000


     Computing stress (Cartesian axis) and pressure

          total   stress  (Ry/bohr**3)                   (kbar)     P=    7.75
   0.00005268   0.00000217   0.00000217          7.75      0.32      0.32
   0.00000217   0.00005268   0.00000217          0.32      7.75      0.32
   0.00000217   0.00000217   0.00005268          0.32      0.32      7.75


     number of scf cycles    =   5
     number of bfgs steps    =   4

     enthalpy old            =    -285.2895097578 Ry
     enthalpy new            =    -285.2895457979 Ry

     CASE: enthalpy_new < enthalpy_old

     new trust radius        =       0.0100010520 bohr
     new conv_thr            =            1.0E-12 Ry

     new unit-cell volume =    672.51332 a.u.^3 (    99.65619 Ang^3 )
     density =      1.14922 g/cm^3

CELL_PARAMETERS (alat= 17.00000000)
   0.376068640   0.660135548   0.660135548
   0.660135548   0.376068640   0.660135548
   0.660135548   0.660135548   0.376068640

ATOMIC_POSITIONS (crystal)
Na       0.722228367   0.722228367   0.722228367
Na       0.277771633   0.277771633   0.277771633
Na       0.500000000   0.500000000   0.500000000



     Writing output data file na.9r.save
     NEW-OLD atomic charge density approx. for the potential
     extrapolated charge   27.15225, renormalised to   27.00000

     total cpu time spent up to now is     2730.6 secs

     per-process dynamical memory:    35.1 Mb

     Self-consistent Calculation

     iteration #  1     ecut=    40.00 Ry     beta=0.70
     Davidson diagonalization with overlap
     ethr =  1.00E-06,  avg # of iterations =  3.1

     total cpu time spent up to now is     2778.4 secs

     total energy              =    -285.31185313 Ry
     Harris-Foulkes estimate   =    -284.16117011 Ry
     estimated scf accuracy    <       0.00288236 Ry

     iteration #  2     ecut=    40.00 Ry     beta=0.70
     Davidson diagonalization with overlap
     ethr =  1.07E-05,  avg # of iterations =  3.0

     total cpu time spent up to now is     2826.0 secs

     total energy              =    -285.31711955 Ry
     Harris-Foulkes estimate   =    -285.31924039 Ry
     estimated scf accuracy    <       0.00483254 Ry

     iteration #  3     ecut=    40.00 Ry     beta=0.70
     Davidson diagonalization with overlap
     ethr =  1.07E-05,  avg # of iterations =  2.0

     total cpu time spent up to now is     2861.7 secs

     total energy              =    -285.31710272 Ry
     Harris-Foulkes estimate   =    -285.31743819 Ry
     estimated scf accuracy    <       0.00093498 Ry

     iteration #  4     ecut=    40.00 Ry     beta=0.70
     Davidson diagonalization with overlap
     ethr =  3.46E-06,  avg # of iterations =  1.0

     total cpu time spent up to now is     2891.7 secs

     total energy              =    -285.31714955 Ry
     Harris-Foulkes estimate   =    -285.31714291 Ry
     estimated scf accuracy    <       0.00029528 Ry

     iteration #  5     ecut=    40.00 Ry     beta=0.70
     Davidson diagonalization with overlap
     ethr =  1.09E-06,  avg # of iterations =  1.0

     total cpu time spent up to now is     2922.1 secs

     total energy              =    -285.31707250 Ry
     Harris-Foulkes estimate   =    -285.31715199 Ry
     estimated scf accuracy    <       0.00031493 Ry

     iteration #  6     ecut=    40.00 Ry     beta=0.70
     Davidson diagonalization with overlap
     ethr =  1.09E-06,  avg # of iterations =  1.0

     total cpu time spent up to now is     2952.0 secs

     total energy              =    -285.31704939 Ry
     Harris-Foulkes estimate   =    -285.31708011 Ry
     estimated scf accuracy    <       0.00014899 Ry

     iteration #  7     ecut=    40.00 Ry     beta=0.70
     Davidson diagonalization with overlap
     ethr =  5.52E-07,  avg # of iterations =  1.0

     total cpu time spent up to now is     2982.2 secs

     total energy              =    -285.31701733 Ry
     Harris-Foulkes estimate   =    -285.31705199 Ry
     estimated scf accuracy    <       0.00008227 Ry

     iteration #  8     ecut=    40.00 Ry     beta=0.70
     Davidson diagonalization with overlap
     ethr =  3.05E-07,  avg # of iterations =  1.0

     total cpu time spent up to now is     3012.4 secs

     total energy              =    -285.31701088 Ry
     Harris-Foulkes estimate   =    -285.31702184 Ry
     estimated scf accuracy    <       0.00001902 Ry

     iteration #  9     ecut=    40.00 Ry     beta=0.70
     Davidson diagonalization with overlap
     ethr =  7.04E-08,  avg # of iterations =  2.0

     total cpu time spent up to now is     3049.2 secs

     total energy              =    -285.31701385 Ry
     Harris-Foulkes estimate   =    -285.31701397 Ry
     estimated scf accuracy    <       0.00000072 Ry

     iteration # 10     ecut=    40.00 Ry     beta=0.70
     Davidson diagonalization with overlap
     ethr =  2.68E-09,  avg # of iterations =  1.0

     total cpu time spent up to now is     3079.6 secs

     total energy              =    -285.31701353 Ry
     Harris-Foulkes estimate   =    -285.31701386 Ry
     estimated scf accuracy    <       0.00000049 Ry

     iteration # 11     ecut=    40.00 Ry     beta=0.70
     Davidson diagonalization with overlap
     ethr =  1.81E-09,  avg # of iterations =  2.0

     total cpu time spent up to now is     3118.3 secs

     total energy              =    -285.31701364 Ry
     Harris-Foulkes estimate   =    -285.31701364 Ry
     estimated scf accuracy    <          8.8E-09 Ry

     iteration # 12     ecut=    40.00 Ry     beta=0.70
     Davidson diagonalization with overlap
     ethr =  3.27E-11,  avg # of iterations =  2.0

     total cpu time spent up to now is     3149.9 secs

     total energy              =    -285.31701364 Ry
     Harris-Foulkes estimate   =    -285.31701364 Ry
     estimated scf accuracy    <       0.00000001 Ry

     iteration # 13     ecut=    40.00 Ry     beta=0.70
     Davidson diagonalization with overlap
     ethr =  3.27E-11,  avg # of iterations =  1.0

     total cpu time spent up to now is     3179.8 secs

     total energy              =    -285.31701364 Ry
     Harris-Foulkes estimate   =    -285.31701364 Ry
     estimated scf accuracy    <       0.00000001 Ry

     iteration # 14     ecut=    40.00 Ry     beta=0.70
     Davidson diagonalization with overlap
     ethr =  3.27E-11,  avg # of iterations =  1.0

     total cpu time spent up to now is     3209.6 secs

     total energy              =    -285.31701364 Ry
     Harris-Foulkes estimate   =    -285.31701364 Ry
     estimated scf accuracy    <          7.5E-09 Ry

     iteration # 15     ecut=    40.00 Ry     beta=0.70
     Davidson diagonalization with overlap
     ethr =  2.76E-11,  avg # of iterations =  2.0

     total cpu time spent up to now is     3247.7 secs

     total energy              =    -285.31701364 Ry
     Harris-Foulkes estimate   =    -285.31701364 Ry
     estimated scf accuracy    <          1.3E-09 Ry

     iteration # 16     ecut=    40.00 Ry     beta=0.70
     Davidson diagonalization with overlap
     ethr =  4.63E-12,  avg # of iterations =  1.0

     total cpu time spent up to now is     3277.6 secs

     total energy              =    -285.31701364 Ry
     Harris-Foulkes estimate   =    -285.31701364 Ry
     estimated scf accuracy    <          7.2E-10 Ry

     iteration # 17     ecut=    40.00 Ry     beta=0.70
     Davidson diagonalization with overlap
     ethr =  2.67E-12,  avg # of iterations =  1.0

     total cpu time spent up to now is     3308.0 secs

     total energy              =    -285.31701364 Ry
     Harris-Foulkes estimate   =    -285.31701364 Ry
     estimated scf accuracy    <          2.8E-10 Ry

     iteration # 18     ecut=    40.00 Ry     beta=0.70
     Davidson diagonalization with overlap
     ethr =  1.02E-12,  avg # of iterations =  1.9

     total cpu time spent up to now is     3339.8 secs

     total energy              =    -285.31701364 Ry
     Harris-Foulkes estimate   =    -285.31701364 Ry
     estimated scf accuracy    <          1.3E-11 Ry

     iteration # 19     ecut=    40.00 Ry     beta=0.70
     Davidson diagonalization with overlap
     ethr =  1.00E-13,  avg # of iterations =  1.0

     total cpu time spent up to now is     3370.1 secs

     total energy              =    -285.31701364 Ry
     Harris-Foulkes estimate   =    -285.31701364 Ry
     estimated scf accuracy    <          4.3E-12 Ry

     iteration # 20     ecut=    40.00 Ry     beta=0.70
     Davidson diagonalization with overlap
     ethr =  1.00E-13,  avg # of iterations =  1.0

     total cpu time spent up to now is     3400.1 secs

     End of self-consistent calculation

     Number of k-points >= 100: set verbosity='high' to print the bands.

     the Fermi energy is     2.0896 ev

!    total energy              =    -285.31701364 Ry
     Harris-Foulkes estimate   =    -285.31701364 Ry
     estimated scf accuracy    <          9.9E-13 Ry

     The total energy is the sum of the following terms:

     one-electron contribution =    -257.16947584 Ry
     hartree contribution      =     130.23483210 Ry
     xc contribution           =     -42.84926914 Ry
     ewald contribution        =    -115.53296204 Ry
     smearing contrib. (-TS)   =      -0.00013871 Ry

     convergence has been achieved in  20 iterations

     Forces acting on atoms (cartesian axes, Ry/au):

     atom    1 type  1   force =    -0.00000267   -0.00000267   -0.00000267
     atom    2 type  1   force =     0.00000267    0.00000267    0.00000267
     atom    3 type  1   force =    -0.00000000    0.00000000    0.00000000

     Total force =     0.000007     Total SCF correction =     0.000000


     Computing stress (Cartesian axis) and pressure

          total   stress  (Ry/bohr**3)                   (kbar)     P=    7.01
   0.00004766   0.00000180   0.00000180          7.01      0.26      0.26
   0.00000180   0.00004766   0.00000180          0.26      7.01      0.26
   0.00000180   0.00000180   0.00004766          0.26      0.26      7.01


     number of scf cycles    =   6
     number of bfgs steps    =   5

     enthalpy old            =    -285.2895457979 Ry
     enthalpy new            =    -285.2895837183 Ry

     CASE: enthalpy_new < enthalpy_old

     new trust radius        =       0.0146551702 bohr
     new conv_thr            =            1.0E-12 Ry

     new unit-cell volume =    678.07445 a.u.^3 (   100.48027 Ang^3 )
     density =      1.13980 g/cm^3

CELL_PARAMETERS (alat= 17.00000000)
   0.377712350   0.662428949   0.662428949
   0.662428949   0.377712350   0.662428949
   0.662428949   0.662428949   0.377712350

ATOMIC_POSITIONS (crystal)
Na       0.722227366   0.722227366   0.722227366
Na       0.277772634   0.277772634   0.277772634
Na       0.500000000   0.500000000   0.500000000



     Writing output data file na.9r.save
     NEW-OLD atomic charge density approx. for the potential
     extrapolated charge   27.22128, renormalised to   27.00000

     total cpu time spent up to now is     3406.8 secs

     per-process dynamical memory:    35.1 Mb

     Self-consistent Calculation

     iteration #  1     ecut=    40.00 Ry     beta=0.70
     Davidson diagonalization with overlap
     ethr =  1.00E-06,  avg # of iterations =  3.2

     total cpu time spent up to now is     3458.2 secs

     total energy              =    -285.30625198 Ry
     Harris-Foulkes estimate   =    -283.63283037 Ry
     estimated scf accuracy    <       0.00614623 Ry

     iteration #  2     ecut=    40.00 Ry     beta=0.70
     Davidson diagonalization with overlap
     ethr =  2.28E-05,  avg # of iterations =  3.0

     total cpu time spent up to now is     3506.3 secs

     total energy              =    -285.31749730 Ry
     Harris-Foulkes estimate   =    -285.32202036 Ry
     estimated scf accuracy    <       0.01030675 Ry

     iteration #  3     ecut=    40.00 Ry     beta=0.70
     Davidson diagonalization with overlap
     ethr =  2.28E-05,  avg # of iterations =  2.0

     total cpu time spent up to now is     3542.1 secs

     total energy              =    -285.31745098 Ry
     Harris-Foulkes estimate   =    -285.31817323 Ry
     estimated scf accuracy    <       0.00200468 Ry

     iteration #  4     ecut=    40.00 Ry     beta=0.70
     Davidson diagonalization with overlap
     ethr =  7.42E-06,  avg # of iterations =  1.0

     total cpu time spent up to now is     3572.5 secs

     total energy              =    -285.31755884 Ry
     Harris-Foulkes estimate   =    -285.31753760 Ry
     estimated scf accuracy    <       0.00062964 Ry

     iteration #  5     ecut=    40.00 Ry     beta=0.70
     Davidson diagonalization with overlap
     ethr =  2.33E-06,  avg # of iterations =  1.0

     total cpu time spent up to now is     3602.9 secs

     total energy              =    -285.31739311 Ry
     Harris-Foulkes estimate   =    -285.31756405 Ry
     estimated scf accuracy    <       0.00068692 Ry

     iteration #  6     ecut=    40.00 Ry     beta=0.70
     Davidson diagonalization with overlap
     ethr =  2.33E-06,  avg # of iterations =  1.0

     total cpu time spent up to now is     3633.0 secs

     total energy              =    -285.31734778 Ry
     Harris-Foulkes estimate   =    -285.31740918 Ry
     estimated scf accuracy    <       0.00032968 Ry

     iteration #  7     ecut=    40.00 Ry     beta=0.70
     Davidson diagonalization with overlap
     ethr =  1.22E-06,  avg # of iterations =  1.0

     total cpu time spent up to now is     3663.3 secs

     total energy              =    -285.31727551 Ry
     Harris-Foulkes estimate   =    -285.31735270 Ry
     estimated scf accuracy    <       0.00019433 Ry

     iteration #  8     ecut=    40.00 Ry     beta=0.70
     Davidson diagonalization with overlap
     ethr =  7.20E-07,  avg # of iterations =  1.0

     total cpu time spent up to now is     3693.5 secs

     total energy              =    -285.31725023 Ry
     Harris-Foulkes estimate   =    -285.31728459 Ry
     estimated scf accuracy    <       0.00005225 Ry

     iteration #  9     ecut=    40.00 Ry     beta=0.70
     Davidson diagonalization with overlap
     ethr =  1.94E-07,  avg # of iterations =  2.0

     total cpu time spent up to now is     3731.9 secs

     total energy              =    -285.31726186 Ry
     Harris-Foulkes estimate   =    -285.31726179 Ry
     estimated scf accuracy    <       0.00000009 Ry

     iteration # 10     ecut=    40.00 Ry     beta=0.70
     Davidson diagonalization with overlap
     ethr =  3.49E-10,  avg # of iterations =  2.6

     total cpu time spent up to now is     3772.4 secs

     total energy              =    -285.31726174 Ry
     Harris-Foulkes estimate   =    -285.31726189 Ry
     estimated scf accuracy    <       0.00000028 Ry

     iteration # 11     ecut=    40.00 Ry     beta=0.70
     Davidson diagonalization with overlap
     ethr =  3.49E-10,  avg # of iterations =  2.0

     total cpu time spent up to now is     3810.8 secs

     total energy              =    -285.31726181 Ry
     Harris-Foulkes estimate   =    -285.31726178 Ry
     estimated scf accuracy    <       0.00000007 Ry

     iteration # 12     ecut=    40.00 Ry     beta=0.70
     Davidson diagonalization with overlap
     ethr =  2.63E-10,  avg # of iterations =  2.0

     total cpu time spent up to now is     3843.8 secs

     total energy              =    -285.31726181 Ry
     Harris-Foulkes estimate   =    -285.31726181 Ry
     estimated scf accuracy    <       0.00000017 Ry

     iteration # 13     ecut=    40.00 Ry     beta=0.70
     Davidson diagonalization with overlap
     ethr =  2.63E-10,  avg # of iterations =  1.0

     total cpu time spent up to now is     3873.8 secs

     total energy              =    -285.31726178 Ry
     Harris-Foulkes estimate   =    -285.31726181 Ry
     estimated scf accuracy    <       0.00000016 Ry

     iteration # 14     ecut=    40.00 Ry     beta=0.70
     Davidson diagonalization with overlap
     ethr =  2.63E-10,  avg # of iterations =  1.9

     total cpu time spent up to now is     3906.0 secs

     total energy              =    -285.31726175 Ry
     Harris-Foulkes estimate   =    -285.31726178 Ry
     estimated scf accuracy    <       0.00000005 Ry

     iteration # 15     ecut=    40.00 Ry     beta=0.70
     Davidson diagonalization with overlap
     ethr =  1.91E-10,  avg # of iterations =  2.0

     total cpu time spent up to now is     3943.8 secs

     total energy              =    -285.31726176 Ry
     Harris-Foulkes estimate   =    -285.31726176 Ry
     estimated scf accuracy    <          1.4E-10 Ry

     iteration # 16     ecut=    40.00 Ry     beta=0.70
     Davidson diagonalization with overlap
     ethr =  5.12E-13,  avg # of iterations =  1.6

     total cpu time spent up to now is     3974.7 secs

     total energy              =    -285.31726176 Ry
     Harris-Foulkes estimate   =    -285.31726176 Ry
     estimated scf accuracy    <          3.5E-11 Ry

     iteration # 17     ecut=    40.00 Ry     beta=0.70
     Davidson diagonalization with overlap
     ethr =  1.28E-13,  avg # of iterations =  1.0

     total cpu time spent up to now is     4004.6 secs

     total energy              =    -285.31726176 Ry
     Harris-Foulkes estimate   =    -285.31726176 Ry
     estimated scf accuracy    <          1.9E-11 Ry

     iteration # 18     ecut=    40.00 Ry     beta=0.70
     Davidson diagonalization with overlap
     ethr =  1.00E-13,  avg # of iterations =  1.4

     total cpu time spent up to now is     4035.5 secs

     End of self-consistent calculation

     Number of k-points >= 100: set verbosity='high' to print the bands.

     the Fermi energy is     2.0511 ev

!    total energy              =    -285.31726176 Ry
     Harris-Foulkes estimate   =    -285.31726176 Ry
     estimated scf accuracy    <          2.4E-13 Ry

     The total energy is the sum of the following terms:

     one-electron contribution =    -257.72327623 Ry
     hartree contribution      =     130.46846682 Ry
     xc contribution           =     -42.84583727 Ry
     ewald contribution        =    -115.21647898 Ry
     smearing contrib. (-TS)   =      -0.00013610 Ry

     convergence has been achieved in  18 iterations

     Forces acting on atoms (cartesian axes, Ry/au):

     atom    1 type  1   force =    -0.00000192   -0.00000192   -0.00000192
     atom    2 type  1   force =     0.00000192    0.00000192    0.00000192
     atom    3 type  1   force =     0.00000000    0.00000000    0.00000000

     Total force =     0.000005     Total SCF correction =     0.000000


     Computing stress (Cartesian axis) and pressure

          total   stress  (Ry/bohr**3)                   (kbar)     P=    5.97
   0.00004060   0.00000123   0.00000123          5.97      0.18      0.18
   0.00000123   0.00004060   0.00000123          0.18      5.97      0.18
   0.00000123   0.00000123   0.00004060          0.18      0.18      5.97


     number of scf cycles    =   7
     number of bfgs steps    =   6

     enthalpy old            =    -285.2895837183 Ry
     enthalpy new            =    -285.2896050154 Ry

     CASE: enthalpy_new < enthalpy_old

     new trust radius        =       0.0005329760 bohr
     new conv_thr            =            1.0E-12 Ry

     new unit-cell volume =    678.23623 a.u.^3 (   100.50424 Ang^3 )
     density =      1.13953 g/cm^3

CELL_PARAMETERS (alat= 17.00000000)
   0.377802731   0.662529004   0.662529004
   0.662529004   0.377802731   0.662529004
   0.662529004   0.662529004   0.377802731

ATOMIC_POSITIONS (crystal)
Na       0.722227266   0.722227266   0.722227266
Na       0.277772734   0.277772734   0.277772734
Na       0.500000000   0.500000000   0.500000000



     Writing output data file na.9r.save
     NEW-OLD atomic charge density approx. for the potential
     extrapolated charge   27.00644, renormalised to   27.00000

     total cpu time spent up to now is     4041.9 secs

     per-process dynamical memory:    35.1 Mb

     Self-consistent Calculation

     iteration #  1     ecut=    40.00 Ry     beta=0.70
     Davidson diagonalization with overlap
     ethr =  1.00E-06,  avg # of iterations =  2.0

     Threshold (ethr) on eigenvalues was too large:
     Diagonalizing with lowered threshold

     Davidson diagonalization with overlap
     ethr =  1.85E-08,  avg # of iterations =  1.0

     total cpu time spent up to now is     4112.1 secs

     total energy              =    -285.31725958 Ry
     Harris-Foulkes estimate   =    -285.26833452 Ry
     estimated scf accuracy    <       0.00000502 Ry

     iteration #  2     ecut=    40.00 Ry     beta=0.70
     Davidson diagonalization with overlap
     ethr =  1.86E-08,  avg # of iterations =  3.0

     total cpu time spent up to now is     4157.4 secs

     total energy              =    -285.31726870 Ry
     Harris-Foulkes estimate   =    -285.31727238 Ry
     estimated scf accuracy    <       0.00000840 Ry

     iteration #  3     ecut=    40.00 Ry     beta=0.70
     Davidson diagonalization with overlap
     ethr =  1.86E-08,  avg # of iterations =  2.0

     total cpu time spent up to now is     4192.9 secs

     total energy              =    -285.31726870 Ry
     Harris-Foulkes estimate   =    -285.31726926 Ry
     estimated scf accuracy    <       0.00000161 Ry

     iteration #  4     ecut=    40.00 Ry     beta=0.70
     Davidson diagonalization with overlap
     ethr =  5.96E-09,  avg # of iterations =  1.0

     total cpu time spent up to now is     4222.8 secs

     total energy              =    -285.31726874 Ry
     Harris-Foulkes estimate   =    -285.31726877 Ry
     estimated scf accuracy    <       0.00000054 Ry

     iteration #  5     ecut=    40.00 Ry     beta=0.70
     Davidson diagonalization with overlap
     ethr =  1.98E-09,  avg # of iterations =  1.0

     total cpu time spent up to now is     4253.1 secs

     total energy              =    -285.31726858 Ry
     Harris-Foulkes estimate   =    -285.31726875 Ry
     estimated scf accuracy    <       0.00000048 Ry

     iteration #  6     ecut=    40.00 Ry     beta=0.70
     Davidson diagonalization with overlap
     ethr =  1.78E-09,  avg # of iterations =  1.0

     total cpu time spent up to now is     4283.1 secs

     total energy              =    -285.31726851 Ry
     Harris-Foulkes estimate   =    -285.31726860 Ry
     estimated scf accuracy    <       0.00000016 Ry

     iteration #  7     ecut=    40.00 Ry     beta=0.70
     Davidson diagonalization with overlap
     ethr =  5.98E-10,  avg # of iterations =  2.0

     total cpu time spent up to now is     4319.5 secs

     total energy              =    -285.31726853 Ry
     Harris-Foulkes estimate   =    -285.31726853 Ry
     estimated scf accuracy    <          5.1E-09 Ry

     iteration #  8     ecut=    40.00 Ry     beta=0.70
     Davidson diagonalization with overlap
     ethr =  1.88E-11,  avg # of iterations =  2.0

     total cpu time spent up to now is     4358.0 secs

     total energy              =    -285.31726853 Ry
     Harris-Foulkes estimate   =    -285.31726853 Ry
     estimated scf accuracy    <          5.3E-11 Ry

     iteration #  9     ecut=    40.00 Ry     beta=0.70
     Davidson diagonalization with overlap
     ethr =  1.97E-13,  avg # of iterations =  2.1

     total cpu time spent up to now is     4398.2 secs

     total energy              =    -285.31726853 Ry
     Harris-Foulkes estimate   =    -285.31726853 Ry
     estimated scf accuracy    <          2.9E-11 Ry

     iteration # 10     ecut=    40.00 Ry     beta=0.70
     Davidson diagonalization with overlap
     ethr =  1.09E-13,  avg # of iterations =  1.0

     total cpu time spent up to now is     4428.4 secs

     total energy              =    -285.31726853 Ry
     Harris-Foulkes estimate   =    -285.31726853 Ry
     estimated scf accuracy    <          1.7E-11 Ry

     iteration # 11     ecut=    40.00 Ry     beta=0.70
     Davidson diagonalization with overlap
     ethr =  1.00E-13,  avg # of iterations =  2.0

     total cpu time spent up to now is     4462.5 secs

     total energy              =    -285.31726853 Ry
     Harris-Foulkes estimate   =    -285.31726853 Ry
     estimated scf accuracy    <          3.0E-12 Ry

     iteration # 12     ecut=    40.00 Ry     beta=0.70
     Davidson diagonalization with overlap
     ethr =  1.00E-13,  avg # of iterations =  1.0

     total cpu time spent up to now is     4492.9 secs

     total energy              =    -285.31726853 Ry
     Harris-Foulkes estimate   =    -285.31726853 Ry
     estimated scf accuracy    <          2.2E-12 Ry

     iteration # 13     ecut=    40.00 Ry     beta=0.70
     Davidson diagonalization with overlap
     ethr =  1.00E-13,  avg # of iterations =  1.0

     total cpu time spent up to now is     4522.8 secs

     total energy              =    -285.31726853 Ry
     Harris-Foulkes estimate   =    -285.31726853 Ry
     estimated scf accuracy    <          1.3E-12 Ry

     iteration # 14     ecut=    40.00 Ry     beta=0.70
     Davidson diagonalization with overlap
     ethr =  1.00E-13,  avg # of iterations =  1.0

     total cpu time spent up to now is     4553.1 secs

     End of self-consistent calculation

     Number of k-points >= 100: set verbosity='high' to print the bands.

     the Fermi energy is     2.0500 ev

!    total energy              =    -285.31726853 Ry
     Harris-Foulkes estimate   =    -285.31726853 Ry
     estimated scf accuracy    <          1.6E-13 Ry

     The total energy is the sum of the following terms:

     one-electron contribution =    -257.73927044 Ry
     hartree contribution      =     130.47521174 Ry
     xc contribution           =     -42.84573731 Ry
     ewald contribution        =    -115.20733669 Ry
     smearing contrib. (-TS)   =      -0.00013584 Ry

     convergence has been achieved in  14 iterations

     Forces acting on atoms (cartesian axes, Ry/au):

     atom    1 type  1   force =    -0.00000190   -0.00000190   -0.00000190
     atom    2 type  1   force =     0.00000190    0.00000190    0.00000190
     atom    3 type  1   force =     0.00000000    0.00000000    0.00000000

     Total force =     0.000005     Total SCF correction =     0.000000


     Computing stress (Cartesian axis) and pressure

          total   stress  (Ry/bohr**3)                   (kbar)     P=    5.94
   0.00004038   0.00000118   0.00000118          5.94      0.17      0.17
   0.00000118   0.00004038   0.00000118          0.17      5.94      0.17
   0.00000118   0.00000118   0.00004038          0.17      0.17      5.94


     number of scf cycles    =   8
     number of bfgs steps    =   7

     enthalpy old            =    -285.2896050154 Ry
     enthalpy new            =    -285.2896051906 Ry

     CASE: enthalpy_new < enthalpy_old

     new trust radius        =       0.0007994310 bohr
     new conv_thr            =            1.0E-12 Ry

     new unit-cell volume =    678.38422 a.u.^3 (   100.52617 Ang^3 )
     density =      1.13928 g/cm^3

CELL_PARAMETERS (alat= 17.00000000)
   0.377956844   0.662676617   0.662676617
   0.662676617   0.377956844   0.662676617
   0.662676617   0.662676617   0.377956844

ATOMIC_POSITIONS (crystal)
Na       0.722227054   0.722227054   0.722227054
Na       0.277772946   0.277772946   0.277772946
Na       0.500000000   0.500000000   0.500000000



     Writing output data file na.9r.save
     NEW-OLD atomic charge density approx. for the potential
     extrapolated charge   27.00589, renormalised to   27.00000

     total cpu time spent up to now is     4559.7 secs

     per-process dynamical memory:    35.1 Mb

     Self-consistent Calculation

     iteration #  1     ecut=    40.00 Ry     beta=0.70
     Davidson diagonalization with overlap
     ethr =  1.00E-06,  avg # of iterations =  2.0

     Threshold (ethr) on eigenvalues was too large:
     Diagonalizing with lowered threshold

     Davidson diagonalization with overlap
     ethr =  1.55E-08,  avg # of iterations =  1.2

     total cpu time spent up to now is     4628.4 secs

     total energy              =    -285.31726745 Ry
     Harris-Foulkes estimate   =    -285.27251631 Ry
     estimated scf accuracy    <       0.00000419 Ry

     iteration #  2     ecut=    40.00 Ry     beta=0.70
     Davidson diagonalization with overlap
     ethr =  1.55E-08,  avg # of iterations =  3.0

     total cpu time spent up to now is     4673.8 secs

     total energy              =    -285.31727507 Ry
     Harris-Foulkes estimate   =    -285.31727815 Ry
     estimated scf accuracy    <       0.00000702 Ry

     iteration #  3     ecut=    40.00 Ry     beta=0.70
     Davidson diagonalization with overlap
     ethr =  1.55E-08,  avg # of iterations =  2.0

     total cpu time spent up to now is     4709.2 secs

     total energy              =    -285.31727506 Ry
     Harris-Foulkes estimate   =    -285.31727554 Ry
     estimated scf accuracy    <       0.00000135 Ry

     iteration #  4     ecut=    40.00 Ry     beta=0.70
     Davidson diagonalization with overlap
     ethr =  4.98E-09,  avg # of iterations =  1.0

     total cpu time spent up to now is     4739.5 secs

     total energy              =    -285.31727509 Ry
     Harris-Foulkes estimate   =    -285.31727512 Ry
     estimated scf accuracy    <       0.00000043 Ry

     iteration #  5     ecut=    40.00 Ry     beta=0.70
     Davidson diagonalization with overlap
     ethr =  1.60E-09,  avg # of iterations =  1.0

     total cpu time spent up to now is     4769.5 secs

     total energy              =    -285.31727494 Ry
     Harris-Foulkes estimate   =    -285.31727509 Ry
     estimated scf accuracy    <       0.00000035 Ry

     iteration #  6     ecut=    40.00 Ry     beta=0.70
     Davidson diagonalization with overlap
     ethr =  1.31E-09,  avg # of iterations =  1.0

     total cpu time spent up to now is     4799.7 secs

     total energy              =    -285.31727491 Ry
     Harris-Foulkes estimate   =    -285.31727496 Ry
     estimated scf accuracy    <       0.00000007 Ry

     iteration #  7     ecut=    40.00 Ry     beta=0.70
     Davidson diagonalization with overlap
     ethr =  2.61E-10,  avg # of iterations =  2.0

     total cpu time spent up to now is     4837.7 secs

     total energy              =    -285.31727493 Ry
     Harris-Foulkes estimate   =    -285.31727493 Ry
     estimated scf accuracy    <          6.9E-10 Ry

     iteration #  8     ecut=    40.00 Ry     beta=0.70
     Davidson diagonalization with overlap
     ethr =  2.54E-12,  avg # of iterations =  1.8

     total cpu time spent up to now is     4869.2 secs

     total energy              =    -285.31727493 Ry
     Harris-Foulkes estimate   =    -285.31727493 Ry
     estimated scf accuracy    <          2.5E-10 Ry

     iteration #  9     ecut=    40.00 Ry     beta=0.70
     Davidson diagonalization with overlap
     ethr =  9.11E-13,  avg # of iterations =  1.0

     total cpu time spent up to now is     4899.4 secs

     total energy              =    -285.31727493 Ry
     Harris-Foulkes estimate   =    -285.31727493 Ry
     estimated scf accuracy    <          1.4E-10 Ry

     iteration # 10     ecut=    40.00 Ry     beta=0.70
     Davidson diagonalization with overlap
     ethr =  5.18E-13,  avg # of iterations =  2.0

     total cpu time spent up to now is     4937.6 secs

     total energy              =    -285.31727493 Ry
     Harris-Foulkes estimate   =    -285.31727493 Ry
     estimated scf accuracy    <          1.7E-12 Ry

     iteration # 11     ecut=    40.00 Ry     beta=0.70
     Davidson diagonalization with overlap
     ethr =  1.00E-13,  avg # of iterations =  1.0

     total cpu time spent up to now is     4967.9 secs

     total energy              =    -285.31727493 Ry
     Harris-Foulkes estimate   =    -285.31727493 Ry
     estimated scf accuracy    <          2.2E-12 Ry

     iteration # 12     ecut=    40.00 Ry     beta=0.70
     Davidson diagonalization with overlap
     ethr =  1.00E-13,  avg # of iterations =  1.0

     total cpu time spent up to now is     4998.0 secs

     End of self-consistent calculation

     Number of k-points >= 100: set verbosity='high' to print the bands.

     the Fermi energy is     2.0490 ev

!    total energy              =    -285.31727493 Ry
     Harris-Foulkes estimate   =    -285.31727493 Ry
     estimated scf accuracy    <          8.1E-13 Ry

     The total energy is the sum of the following terms:

     one-electron contribution =    -257.75385842 Ry
     hartree contribution      =     130.48136097 Ry
     xc contribution           =     -42.84564578 Ry
     ewald contribution        =    -115.19899640 Ry
     smearing contrib. (-TS)   =      -0.00013530 Ry

     convergence has been achieved in  12 iterations

     Forces acting on atoms (cartesian axes, Ry/au):

     atom    1 type  1   force =    -0.00000172   -0.00000172   -0.00000172
     atom    2 type  1   force =     0.00000172    0.00000172    0.00000172
     atom    3 type  1   force =     0.00000000    0.00000000    0.00000000

     Total force =     0.000004     Total SCF correction =     0.000000


     Computing stress (Cartesian axis) and pressure

          total   stress  (Ry/bohr**3)                   (kbar)     P=    5.91
   0.00004017   0.00000107   0.00000107          5.91      0.16      0.16
   0.00000107   0.00004017   0.00000107          0.16      5.91      0.16
   0.00000107   0.00000107   0.00004017          0.16      0.16      5.91


     number of scf cycles    =   9
     number of bfgs steps    =   8

     enthalpy old            =    -285.2896051906 Ry
     enthalpy new            =    -285.2896055550 Ry

     CASE: enthalpy_new < enthalpy_old

     new trust radius        =       0.0011989660 bohr
     new conv_thr            =            1.0E-12 Ry

     new unit-cell volume =    678.48697 a.u.^3 (   100.54139 Ang^3 )
     density =      1.13911 g/cm^3

CELL_PARAMETERS (alat= 17.00000000)
   0.378186379   0.662875324   0.662875324
   0.662875324   0.378186379   0.662875324
   0.662875324   0.662875324   0.378186379

ATOMIC_POSITIONS (crystal)
Na       0.722226702   0.722226702   0.722226702
Na       0.277773298   0.277773298   0.277773298
Na       0.500000000   0.500000000   0.500000000



     Writing output data file na.9r.save
     NEW-OLD atomic charge density approx. for the potential
     extrapolated charge   27.00409, renormalised to   27.00000

     total cpu time spent up to now is     5004.3 secs

     per-process dynamical memory:    35.1 Mb

     Self-consistent Calculation

     iteration #  1     ecut=    40.00 Ry     beta=0.70
     Davidson diagonalization with overlap
     ethr =  1.00E-06,  avg # of iterations =  2.0

     Threshold (ethr) on eigenvalues was too large:
     Diagonalizing with lowered threshold

     Davidson diagonalization with overlap
     ethr =  7.42E-09,  avg # of iterations =  1.3

     total cpu time spent up to now is     5072.7 secs

     total energy              =    -285.31727608 Ry
     Harris-Foulkes estimate   =    -285.28621014 Ry
     estimated scf accuracy    <       0.00000202 Ry

     iteration #  2     ecut=    40.00 Ry     beta=0.70
     Davidson diagonalization with overlap
     ethr =  7.47E-09,  avg # of iterations =  3.0

     total cpu time spent up to now is     5118.4 secs

     total energy              =    -285.31727976 Ry
     Harris-Foulkes estimate   =    -285.31728124 Ry
     estimated scf accuracy    <       0.00000338 Ry

     iteration #  3     ecut=    40.00 Ry     beta=0.70
     Davidson diagonalization with overlap
     ethr =  7.47E-09,  avg # of iterations =  2.0

     total cpu time spent up to now is     5153.8 secs

     total energy              =    -285.31727973 Ry
     Harris-Foulkes estimate   =    -285.31727998 Ry
     estimated scf accuracy    <       0.00000065 Ry

     iteration #  4     ecut=    40.00 Ry     beta=0.70
     Davidson diagonalization with overlap
     ethr =  2.40E-09,  avg # of iterations =  1.0

     total cpu time spent up to now is     5183.9 secs

     total energy              =    -285.31727974 Ry
     Harris-Foulkes estimate   =    -285.31727976 Ry
     estimated scf accuracy    <       0.00000017 Ry

     iteration #  5     ecut=    40.00 Ry     beta=0.70
     Davidson diagonalization with overlap
     ethr =  6.41E-10,  avg # of iterations =  1.0

     total cpu time spent up to now is     5214.2 secs

     total energy              =    -285.31727967 Ry
     Harris-Foulkes estimate   =    -285.31727974 Ry
     estimated scf accuracy    <       0.00000011 Ry

     iteration #  6     ecut=    40.00 Ry     beta=0.70
     Davidson diagonalization with overlap
     ethr =  4.18E-10,  avg # of iterations =  2.0

     total cpu time spent up to now is     5251.2 secs

[...]

     Total force =     0.000001     Total SCF correction =     0.000000


     Computing stress (Cartesian axis) and pressure

          total   stress  (Ry/bohr**3)                   (kbar)     P=    5.92
   0.00004022   0.00000019   0.00000019          5.92      0.03      0.03
   0.00000019   0.00004022   0.00000019          0.03      5.92      0.03
   0.00000019   0.00000019   0.00004022          0.03      0.03      5.92


     number of scf cycles    =  12
     number of bfgs steps    =  11

     enthalpy old            =    -285.2896068380 Ry
     enthalpy new            =    -285.2896075207 Ry

     CASE: enthalpy_new < enthalpy_old

     new trust radius        =       0.0014849394 bohr
     new conv_thr            =            1.0E-12 Ry

     new unit-cell volume =    678.15571 a.u.^3 (   100.49231 Ang^3 )
     density =      1.13966 g/cm^3

CELL_PARAMETERS (alat= 17.00000000)
   0.379175203   0.663592482   0.663592482
   0.663592482   0.379175203   0.663592482
   0.663592482   0.663592482   0.379175203

ATOMIC_POSITIONS (crystal)
Na       0.722224953   0.722224953   0.722224953
Na       0.277775047   0.277775047   0.277775047
Na       0.500000000   0.500000000   0.500000000



     Writing output data file na.9r.save
     NEW-OLD atomic charge density approx. for the potential
     extrapolated charge   26.99092, renormalised to   27.00000

     total cpu time spent up to now is     6144.0 secs

     per-process dynamical memory:    35.1 Mb

     Self-consistent Calculation

     iteration #  1     ecut=    40.00 Ry     beta=0.70
     Davidson diagonalization with overlap
     ethr =  1.00E-06,  avg # of iterations =  2.0

     Threshold (ethr) on eigenvalues was too large:
     Diagonalizing with lowered threshold

     Davidson diagonalization with overlap
     ethr =  3.65E-08,  avg # of iterations =  1.1

     total cpu time spent up to now is     6212.4 secs

     total energy              =    -285.31724996 Ry
     Harris-Foulkes estimate   =    -285.38633619 Ry
     estimated scf accuracy    <       0.00000996 Ry

     iteration #  2     ecut=    40.00 Ry     beta=0.70
     Davidson diagonalization with overlap
     ethr =  3.69E-08,  avg # of iterations =  3.0

     total cpu time spent up to now is     6257.7 secs

     total energy              =    -285.31726807 Ry
     Harris-Foulkes estimate   =    -285.31727539 Ry
     estimated scf accuracy    <       0.00001668 Ry

     iteration #  3     ecut=    40.00 Ry     beta=0.70
     Davidson diagonalization with overlap
     ethr =  3.69E-08,  avg # of iterations =  2.0

     total cpu time spent up to now is     6293.4 secs

     total energy              =    -285.31726806 Ry
     Harris-Foulkes estimate   =    -285.31726919 Ry
     estimated scf accuracy    <       0.00000320 Ry

     iteration #  4     ecut=    40.00 Ry     beta=0.70
     Davidson diagonalization with overlap
     ethr =  1.18E-08,  avg # of iterations =  1.0

     total cpu time spent up to now is     6323.3 secs

     total energy              =    -285.31726810 Ry
     Harris-Foulkes estimate   =    -285.31726820 Ry
     estimated scf accuracy    <       0.00000103 Ry

     iteration #  5     ecut=    40.00 Ry     beta=0.70
     Davidson diagonalization with overlap
     ethr =  3.81E-09,  avg # of iterations =  1.0

     total cpu time spent up to now is     6353.5 secs

     total energy              =    -285.31726773 Ry
     Harris-Foulkes estimate   =    -285.31726811 Ry
     estimated scf accuracy    <       0.00000080 Ry

     iteration #  6     ecut=    40.00 Ry     beta=0.70
     Davidson diagonalization with overlap
     ethr =  2.97E-09,  avg # of iterations =  1.0

     total cpu time spent up to now is     6383.5 secs

     total energy              =    -285.31726771 Ry
     Harris-Foulkes estimate   =    -285.31726779 Ry
     estimated scf accuracy    <       0.00000012 Ry

     iteration #  7     ecut=    40.00 Ry     beta=0.70
     Davidson diagonalization with overlap
     ethr =  4.46E-10,  avg # of iterations =  2.0

     total cpu time spent up to now is     6422.0 secs

     total energy              =    -285.31726775 Ry
     Harris-Foulkes estimate   =    -285.31726775 Ry
     estimated scf accuracy    <          2.2E-09 Ry

     iteration #  8     ecut=    40.00 Ry     beta=0.70
     Davidson diagonalization with overlap
     ethr =  8.23E-12,  avg # of iterations =  1.7

     total cpu time spent up to now is     6452.8 secs

     total energy              =    -285.31726775 Ry
     Harris-Foulkes estimate   =    -285.31726775 Ry
     estimated scf accuracy    <          1.8E-09 Ry

     iteration #  9     ecut=    40.00 Ry     beta=0.70
     Davidson diagonalization with overlap
     ethr =  6.52E-12,  avg # of iterations =  1.0

     total cpu time spent up to now is     6483.0 secs

     total energy              =    -285.31726775 Ry
     Harris-Foulkes estimate   =    -285.31726775 Ry
     estimated scf accuracy    <          8.4E-10 Ry

     iteration # 10     ecut=    40.00 Ry     beta=0.70
     Davidson diagonalization with overlap
     ethr =  3.10E-12,  avg # of iterations =  2.0

     total cpu time spent up to now is     6521.0 secs

     total energy              =    -285.31726775 Ry
     Harris-Foulkes estimate   =    -285.31726775 Ry
     estimated scf accuracy    <          5.4E-12 Ry

     iteration # 11     ecut=    40.00 Ry     beta=0.70
     Davidson diagonalization with overlap
     ethr =  1.00E-13,  avg # of iterations =  1.0

     total cpu time spent up to now is     6551.3 secs

     total energy              =    -285.31726775 Ry
     Harris-Foulkes estimate   =    -285.31726775 Ry
     estimated scf accuracy    <          1.2E-11 Ry

     iteration # 12     ecut=    40.00 Ry     beta=0.70
     Davidson diagonalization with overlap
     ethr =  1.00E-13,  avg # of iterations =  1.0

     total cpu time spent up to now is     6581.8 secs

     total energy              =    -285.31726775 Ry
     Harris-Foulkes estimate   =    -285.31726775 Ry
     estimated scf accuracy    <          3.4E-12 Ry

     iteration # 13     ecut=    40.00 Ry     beta=0.70
     Davidson diagonalization with overlap
     ethr =  1.00E-13,  avg # of iterations =  1.0

     total cpu time spent up to now is     6612.0 secs

     total energy              =    -285.31726775 Ry
     Harris-Foulkes estimate   =    -285.31726775 Ry
     estimated scf accuracy    <          1.1E-12 Ry

     iteration # 14     ecut=    40.00 Ry     beta=0.70
     Davidson diagonalization with overlap
     ethr =  1.00E-13,  avg # of iterations =  1.0

     total cpu time spent up to now is     6642.4 secs

     End of self-consistent calculation

     Number of k-points >= 100: set verbosity='high' to print the bands.

     the Fermi energy is     2.0505 ev

!    total energy              =    -285.31726775 Ry
     Harris-Foulkes estimate   =    -285.31726775 Ry
     estimated scf accuracy    <          2.1E-14 Ry

     The total energy is the sum of the following terms:

     one-electron contribution =    -257.73075604 Ry
     hartree contribution      =     130.47157531 Ry
     xc contribution           =     -42.84578568 Ry
     ewald contribution        =    -115.21217144 Ry
     smearing contrib. (-TS)   =      -0.00012990 Ry

     convergence has been achieved in  14 iterations

     Forces acting on atoms (cartesian axes, Ry/au):

     atom    1 type  1   force =     0.00000006    0.00000006    0.00000006
     atom    2 type  1   force =    -0.00000006   -0.00000006   -0.00000006
     atom    3 type  1   force =     0.00000000    0.00000000   -0.00000000

     Total force =     0.000000     Total SCF correction =     0.000000


     Computing stress (Cartesian axis) and pressure

          total   stress  (Ry/bohr**3)                   (kbar)     P=    5.95
   0.00004048  -0.00000002  -0.00000002          5.95     -0.00     -0.00
  -0.00000002   0.00004048  -0.00000002         -0.00      5.95     -0.00
  -0.00000002  -0.00000002   0.00004048         -0.00     -0.00      5.95


     bfgs converged in  13 scf cycles and  12 bfgs steps
     (criteria: energy <  1.0E-04 Ry, force <  1.0E-03Ry/Bohr, cell <  5.0E-02kbar)

     End of BFGS Geometry Optimization

     Final enthalpy =    -285.2896076880 Ry
Begin final coordinates
     new unit-cell volume =    678.15571 a.u.^3 (   100.49231 Ang^3 )
     density =      1.13966 g/cm^3

CELL_PARAMETERS (alat= 17.00000000)
   0.379175203   0.663592482   0.663592482
   0.663592482   0.379175203   0.663592482
   0.663592482   0.663592482   0.379175203

ATOMIC_POSITIONS (crystal)
Na       0.722224953   0.722224953   0.722224953
Na       0.277775047   0.277775047   0.277775047
Na       0.500000000   0.500000000   0.500000000
End final coordinates



     A final scf calculation at the relaxed structure.
     The G-vectors are recalculated for the final unit cell
     Results may differ from those at the preceding step.

     Parallelization info
     --------------------
     sticks:   dense  smooth     PW     G-vecs:    dense   smooth      PW
     Min         183      91     30                 4103     1449     276
     Max         184      92     31                 4105     1451     278
     Sum        2939    1463    485                65669    23203    4437



     bravais-lattice index     =           -5
     lattice parameter (alat)  =      17.0000  a.u.
     unit-cell volume          =     678.1557 (a.u.)^3
     number of atoms/cell      =            3
     number of atomic types    =            1
     number of electrons       =        27.00
     number of Kohn-Sham states=           18
     kinetic-energy cutoff     =      40.0000  Ry
     charge density cutoff     =     320.0000  Ry
     convergence threshold     =      1.0E-12
     mixing beta               =       0.7000
     number of iterations used =            8  plain     mixing
     Exchange-correlation      = SLA  PW   PBE  PBE ( 1  4  3  4 0 0)

     celldm(1)=  17.000000  celldm(2)=   0.000000  celldm(3)=   0.000000
     celldm(4)=   0.920000  celldm(5)=   0.000000  celldm(6)=   0.000000

     crystal axes: (cart. coord. in units of alat)
               a(1) = (   0.379175   0.663592   0.663592 )  
               a(2) = (   0.663592   0.379175   0.663592 )  
               a(3) = (   0.663592   0.663592   0.379175 )  

     reciprocal axes: (cart. coord. in units 2 pi/alat)
               b(1) = ( -2.148626  1.367335  1.367335 )  
               b(2) = (  1.367335 -2.148626  1.367335 )  
               b(3) = (  1.367335  1.367335 -2.148626 )  


     PseudoPot. # 1 for Na read from file:
     /home/s1333534/quantum_espresso/qe-6.1/pseudo/Na_pbe_v1.uspp.F.UPF
     MD5 check sum: 76a99c7e9422403d3e93cbc85ab7bccb
     Pseudo is Ultrasoft, Zval =  9.0
     Generated by new atomic code, or converted to UPF format
     Using radial grid of  819 points,  5 beta functions with: 
                l(1) =   0
                l(2) =   0
                l(3) =   1
                l(4) =   1
                l(5) =   2
     Q(r) pseudized with  8 coefficients,  rinner =    1.250   1.250   1.250
                                                       1.250   1.250

     atomic species   valence    mass     pseudopotential
        Na             9.00    22.99000     Na( 1.00)

     12 Sym. Ops., with inversion, found



   Cartesian axes

     site n.     atom                  positions (alat units)
         1           Na  tau(   1) = (   1.2323759   1.2323759   1.2323759  )
         2           Na  tau(   2) = (   0.4739843   0.4739843   0.4739843  )
         3           Na  tau(   3) = (   0.8531801   0.8531801   0.8531801  )

     number of k points=   770  Marzari-Vanderbilt smearing, width (Ry)=  0.0200

     Number of k-points >= 100: set verbosity='high' to print them.

     Dense  grid:    65669 G-vectors     FFT dimensions: ( 100, 100, 100)

     Smooth grid:    23203 G-vectors     FFT dimensions: (  72,  72,  72)

     Estimated max dynamical RAM per process >      16.75MB

     Estimated total allocated dynamical RAM >    1071.92MB

     Initial potential from superposition of free atoms

     starting charge   26.98113, renormalised to   27.00000
     Starting wfc are   15 randomized atomic wfcs +    3 random wfc

     Writing output data file na.9r.save

     total cpu time spent up to now is     6660.2 secs

     per-process dynamical memory:    34.1 Mb

     Self-consistent Calculation

     iteration #  1     ecut=    40.00 Ry     beta=0.70
     Davidson diagonalization with overlap
     c_bands:  1 eigenvalues not converged
     c_bands:  1 eigenvalues not converged
     c_bands:  1 eigenvalues not converged
     c_bands:  1 eigenvalues not converged
     c_bands:  1 eigenvalues not converged
     ethr =  1.00E-06,  avg # of iterations = 13.8

     total cpu time spent up to now is     6742.0 secs

     total energy              =    -285.31725446 Ry
     Harris-Foulkes estimate   =    -285.31803110 Ry
     estimated scf accuracy    <       0.00278219 Ry

     iteration #  2     ecut=    40.00 Ry     beta=0.70
     Davidson diagonalization with overlap
     ethr =  1.03E-05,  avg # of iterations =  2.0

     total cpu time spent up to now is     6778.5 secs

     total energy              =    -285.31759325 Ry
     Harris-Foulkes estimate   =    -285.31767010 Ry
     estimated scf accuracy    <       0.00031458 Ry

     iteration #  3     ecut=    40.00 Ry     beta=0.70
     Davidson diagonalization with overlap
     ethr =  1.17E-06,  avg # of iterations =  2.0

     total cpu time spent up to now is     6816.9 secs

     total energy              =    -285.31762636 Ry
     Harris-Foulkes estimate   =    -285.31763065 Ry
     estimated scf accuracy    <       0.00001981 Ry

     iteration #  4     ecut=    40.00 Ry     beta=0.70
     Davidson diagonalization with overlap
     ethr =  7.34E-08,  avg # of iterations =  1.4

     total cpu time spent up to now is     6847.9 secs

     total energy              =    -285.31762809 Ry
     Harris-Foulkes estimate   =    -285.31762810 Ry
     estimated scf accuracy    <       0.00000029 Ry

     iteration #  5     ecut=    40.00 Ry     beta=0.70
     Davidson diagonalization with overlap
     ethr =  1.08E-09,  avg # of iterations =  2.7

     total cpu time spent up to now is     6887.0 secs

     total energy              =    -285.31762831 Ry
     Harris-Foulkes estimate   =    -285.31762840 Ry
     estimated scf accuracy    <       0.00000036 Ry

     iteration #  6     ecut=    40.00 Ry     beta=0.70
     Davidson diagonalization with overlap
     ethr =  1.08E-09,  avg # of iterations =  1.2

     total cpu time spent up to now is     6917.2 secs

     total energy              =    -285.31762836 Ry
     Harris-Foulkes estimate   =    -285.31762836 Ry
     estimated scf accuracy    <          2.3E-09 Ry

     iteration #  7     ecut=    40.00 Ry     beta=0.70
     Davidson diagonalization with overlap
     ethr =  8.63E-12,  avg # of iterations =  2.3

     total cpu time spent up to now is     6949.8 secs

     total energy              =    -285.31762836 Ry
     Harris-Foulkes estimate   =    -285.31762836 Ry
     estimated scf accuracy    <          1.2E-11 Ry

     iteration #  8     ecut=    40.00 Ry     beta=0.70
     Davidson diagonalization with overlap
     ethr =  1.00E-13,  avg # of iterations =  2.3

     total cpu time spent up to now is     6988.6 secs

     total energy              =    -285.31762836 Ry
     Harris-Foulkes estimate   =    -285.31762836 Ry
     estimated scf accuracy    <          2.9E-12 Ry

     iteration #  9     ecut=    40.00 Ry     beta=0.70
     Davidson diagonalization with overlap
     ethr =  1.00E-13,  avg # of iterations =  1.0

     total cpu time spent up to now is     7018.8 secs

     End of self-consistent calculation

     Number of k-points >= 100: set verbosity='high' to print the bands.

     the Fermi energy is     2.0507 ev

!    total energy              =    -285.31762836 Ry
     Harris-Foulkes estimate   =    -285.31762836 Ry
     estimated scf accuracy    <          9.5E-14 Ry

     The total energy is the sum of the following terms:

     one-electron contribution =    -257.73122621 Ry
     hartree contribution      =     130.47179515 Ry
     xc contribution           =     -42.84589596 Ry
     ewald contribution        =    -115.21217144 Ry
     smearing contrib. (-TS)   =      -0.00012991 Ry

     convergence has been achieved in   9 iterations

     Forces acting on atoms (cartesian axes, Ry/au):

     atom    1 type  1   force =     0.00000203    0.00000203    0.00000203
     atom    2 type  1   force =    -0.00000203   -0.00000203   -0.00000203
     atom    3 type  1   force =     0.00000000    0.00000000    0.00000000

     Total force =     0.000005     Total SCF correction =     0.000001
     SCF correction compared to forces is large: reduce conv_thr to get better values


     Computing stress (Cartesian axis) and pressure

          total   stress  (Ry/bohr**3)                   (kbar)     P=    6.38
   0.00004338   0.00000035   0.00000035          6.38      0.05      0.05
   0.00000035   0.00004338   0.00000035          0.05      6.38      0.05
   0.00000035   0.00000035   0.00004338          0.05      0.05      6.38


     Writing output data file na.9r.save

     init_run     :     23.06s CPU     23.55s WALL (       2 calls)
     electrons    :   6843.57s CPU   6911.90s WALL (      14 calls)
     update_pot   :      8.06s CPU      8.50s WALL (      12 calls)
     forces       :      9.06s CPU      9.16s WALL (      14 calls)
     stress       :     27.22s CPU     27.41s WALL (      14 calls)

     Called by init_run:
     wfcinit      :     21.21s CPU     21.60s WALL (       2 calls)
     potinit      :      0.59s CPU      0.61s WALL (       2 calls)

     Called by electrons:
     c_bands      :   5631.40s CPU   5685.91s WALL (     199 calls)
     sum_band     :   1171.96s CPU   1184.05s WALL (     199 calls)
     v_of_rho     :     27.32s CPU     28.13s WALL (     206 calls)
     newd         :      8.05s CPU      8.16s WALL (     206 calls)
     mix_rho      :      2.38s CPU      2.57s WALL (     199 calls)

     Called by c_bands:
     init_us_2    :     23.77s CPU     24.14s WALL (   82604 calls)
     cegterg      :   5300.86s CPU   5352.91s WALL (   38407 calls)

     Called by sum_band:
     sum_band:bec :      1.68s CPU      1.71s WALL (   38407 calls)
     addusdens    :      8.21s CPU      8.43s WALL (     199 calls)

     Called by *egterg:
     h_psi        :   5003.60s CPU   5050.67s WALL (  106054 calls)
     s_psi        :     19.74s CPU     20.52s WALL (  106054 calls)
     g_psi        :      2.94s CPU      2.98s WALL (   67261 calls)
     cdiaghg      :    165.57s CPU    167.16s WALL (  102001 calls)

     Called by h_psi:
     h_psi:pot    :   4999.73s CPU   5046.63s WALL (  106054 calls)
     h_psi:calbec :     43.57s CPU     44.75s WALL (  106054 calls)
     vloc_psi     :   4933.67s CPU   4978.81s WALL (  106054 calls)
     add_vuspsi   :     21.25s CPU     21.88s WALL (  106054 calls)

     General routines
     calbec       :     65.54s CPU     66.96s WALL (  157971 calls)
     fft          :     17.02s CPU     18.50s WALL (    3392 calls)
     ffts         :      0.69s CPU      0.78s WALL (     405 calls)
     fftw         :   5183.54s CPU   5231.11s WALL ( 3958414 calls)
     interpolate  :      2.72s CPU      2.99s WALL (     405 calls)
     davcio       :      0.01s CPU      0.29s WALL (     386 calls)

     Parallel routines
     fft_scatter  :   1145.20s CPU   1160.49s WALL ( 3962211 calls)

     PWSCF        :     1h55m CPU        1h57m WALL


   This run was terminated on:  22:29:41  12Feb2018            

=------------------------------------------------------------------------------=
   JOB DONE.
=------------------------------------------------------------------------------=
