
     Program PHONON v.6.1 (svn rev. 13369) starts on 13Feb2018 at 13:36:41 

     This program is part of the open-source Quantum ESPRESSO suite
     for quantum simulation of materials; please cite
         "P. Giannozzi et al., J. Phys.:Condens. Matter 21 395502 (2009);
          URL http://www.quantum-espresso.org", 
     in publications or presentations arising from this work. More details at
     http://www.quantum-espresso.org/quote

     Parallel version (MPI), running on    64 processors
     K-points division:     npool     =       4
     R & G space division:  proc/nbgrp/npool/nimage =      16

     Reading data from directory:
     ./na.bcc.save

   Info: using nr1, nr2, nr3 values from input

   Info: using nr1, nr2, nr3 values from input

     IMPORTANT: XC functional enforced from input :
     Exchange-correlation      = SLA  PW   PBE  PBE ( 1  4  3  4 0 0)
     Any further DFT definition will be discarded
     Please, verify this is what you really want


     Parallelization info
     --------------------
     sticks:   dense  smooth     PW     G-vecs:    dense   smooth      PW
     Min          64      32     10                 1317      463      87
     Max          65      33     11                 1322      464      89
     Sum        1035     523    169                21097     7419    1409



     Dynamical matrices for ( 6, 6, 6)  uniform grid of q-points
     (  16q-points):
       N         xq(1)         xq(2)         xq(3) 
       1   0.000000000   0.000000000   0.000000000
       2   0.000000000  -0.166666667   0.166666667
       3   0.000000000  -0.333333333   0.333333333
       4   0.000000000   0.500000000  -0.500000000
       5  -0.166666667  -0.166666667   0.333333333
       6  -0.166666667   0.666666667  -0.500000000
       7  -0.333333333   0.666666667  -0.333333333
       8   0.000000000   0.000000000   0.333333333
       9   0.000000000  -0.166666667   0.500000000
      10   0.000000000   0.666666667  -0.333333333
      11  -0.166666667   0.833333333  -0.333333333
      12   0.666666667  -0.666666667   0.333333333
      13   0.500000000  -0.500000000   0.333333333
      14   0.000000000   0.000000000   0.666666667
      15   0.000000000   0.833333333  -0.166666667
      16   0.000000000   0.000000000  -1.000000000

     Calculation of q =    0.0000000   0.0000000   0.0000000

                                                                                

     bravais-lattice index     =            3
     lattice parameter (alat)  =       7.5900  a.u.
     unit-cell volume          =     218.6227 (a.u.)^3
     number of atoms/cell      =            1
     number of atomic types    =            1
     kinetic-energy cut-off    =      40.0000  Ry
     charge density cut-off    =     320.0000  Ry
     convergence threshold     =      1.0E-16
     beta                      =       0.7000
     number of iterations used =            4
     Exchange-correlation      = SLA  PW   PBE  PBE ( 1  4  3  4 0 0)


     celldm(1)=    7.59000  celldm(2)=    0.00000  celldm(3)=    0.00000
     celldm(4)=    0.00000  celldm(5)=    0.00000  celldm(6)=    0.00000

     crystal axes: (cart. coord. in units of alat)
               a(1) = (  0.5000  0.5000  0.5000 )  
               a(2) = ( -0.5000  0.5000  0.5000 )  
               a(3) = ( -0.5000 -0.5000  0.5000 )  

     reciprocal axes: (cart. coord. in units 2 pi/alat)
               b(1) = (  1.0000  0.0000  1.0000 )  
               b(2) = ( -1.0000  1.0000  0.0000 )  
               b(3) = (  0.0000 -1.0000  1.0000 )  


     Atoms inside the unit cell: 

     Cartesian axes

     site n.  atom      mass           positions (alat units)
        1     Na  22.9900   tau(    1) = (    0.00000    0.00000    0.00000  )

     Computing dynamical matrix for 
                    q = (   0.0000000   0.0000000   0.0000000 )

     49 Sym.Ops. (with q -> -q+G )


     G cutoff =  466.9537  (   1322 G-vectors)     FFT grid: ( 40, 40, 40)
     G cutoff =  233.4768  (    463 G-vectors)  smooth grid: ( 27, 27, 27)

     number of k points=   250  Marzari-Vanderbilt smearing, width (Ry)=  0.0200

     PseudoPot. # 1 for Na read from file:
     /home/s1333534/quantum_espresso/qe-6.1/pseudo/Na_pbe_v1.uspp.F.UPF
     MD5 check sum: 76a99c7e9422403d3e93cbc85ab7bccb
     Pseudo is Ultrasoft, Zval =  9.0
     Generated by new atomic code, or converted to UPF format
     Using radial grid of  819 points,  5 beta functions with: 
                l(1) =   0
                l(2) =   0
                l(3) =   1
                l(4) =   1
                l(5) =   2
     Q(r) pseudized with  8 coefficients,  rinner =    1.250   1.250   1.250
                                                       1.250   1.250

     Mode symmetry, O_h (m-3m)  point group:


     Atomic displacements:
     There are   1 irreducible representations

     Representation     1      3 modes -T_1u G_15  G_4-  To be done



     Alpha used in Ewald sum =   2.8000
     PHONON       :     3.05s CPU         3.28s WALL



     Representation #  1 modes #   1  2  3

     Self-consistent Calculation

     Pert. #  1: Fermi energy shift (Ry) =     0.0000E+00     4.8587E-37
     Pert. #  2: Fermi energy shift (Ry) =    -3.3927E-25    -9.4040E-38
     Pert. #  3: Fermi energy shift (Ry) =     2.1326E-25    -1.1363E-37

      iter #   1 total cpu time :     7.1 secs   av.it.:   5.4
      thresh= 1.000E-02 alpha_mix =  0.700 |ddv_scf|^2 =  1.083E-06

     Pert. #  1: Fermi energy shift (Ry) =    -6.2469E-26    -9.3060E-39
     Pert. #  2: Fermi energy shift (Ry) =    -4.7391E-26     7.3468E-40
     Pert. #  3: Fermi energy shift (Ry) =    -7.3240E-26    -1.2735E-38

      iter #   2 total cpu time :    11.6 secs   av.it.:   8.4
      thresh= 1.041E-04 alpha_mix =  0.700 |ddv_scf|^2 =  2.055E-08

     Pert. #  1: Fermi energy shift (Ry) =     6.8932E-26     2.4489E-40
     Pert. #  2: Fermi energy shift (Ry) =     1.5079E-26    -6.1224E-40
     Pert. #  3: Fermi energy shift (Ry) =    -1.7233E-26    -1.2245E-40

      iter #   3 total cpu time :    16.1 secs   av.it.:   8.6
      thresh= 1.433E-05 alpha_mix =  0.700 |ddv_scf|^2 =  3.460E-10

     Pert. #  1: Fermi energy shift (Ry) =     2.9081E-26     1.5306E-41
     Pert. #  2: Fermi energy shift (Ry) =    -4.1736E-26     4.2091E-41
     Pert. #  3: Fermi energy shift (Ry) =     1.3194E-25    -7.2703E-41

      iter #   4 total cpu time :    20.5 secs   av.it.:   8.1
      thresh= 1.860E-06 alpha_mix =  0.700 |ddv_scf|^2 =  1.285E-12

     Pert. #  1: Fermi energy shift (Ry) =     4.3082E-27    -1.6143E-42
     Pert. #  2: Fermi energy shift (Ry) =     9.9089E-26     4.1553E-42
     Pert. #  3: Fermi energy shift (Ry) =    -5.3853E-26    -2.0328E-42

      iter #   5 total cpu time :    24.9 secs   av.it.:   8.5
      thresh= 1.133E-07 alpha_mix =  0.700 |ddv_scf|^2 =  3.105E-15

     Pert. #  1: Fermi energy shift (Ry) =     7.5394E-26     5.7397E-42
     Pert. #  2: Fermi energy shift (Ry) =    -9.1550E-26     2.3915E-41
     Pert. #  3: Fermi energy shift (Ry) =    -4.8468E-26     9.5662E-43

      iter #   6 total cpu time :    29.3 secs   av.it.:   8.2
      thresh= 5.572E-09 alpha_mix =  0.700 |ddv_scf|^2 =  6.749E-17

     End of self-consistent calculation

     Convergence has been achieved 

     Number of q in the star =    1
     List of q in the star:
          1   0.000000000   0.000000000   0.000000000

     Diagonalizing the dynamical matrix

     q = (    0.000000000   0.000000000   0.000000000 ) 

 **************************************************************************
     freq (    1) =      -0.273868 [THz] =      -9.135252 [cm-1]
     freq (    2) =      -0.273868 [THz] =      -9.135252 [cm-1]
     freq (    3) =      -0.273868 [THz] =      -9.135252 [cm-1]
 **************************************************************************

     Mode symmetry, O_h (m-3m)  point group:

     freq (  1 -  3) =         -9.1  [cm-1]   --> T_1u G_15  G_4- I  

     Calculation of q =    0.0000000  -0.1666667   0.1666667

   Info: using nr1, nr2, nr3 values from input

   Info: using nr1, nr2, nr3 values from input

     Parallelization info
     --------------------
     sticks:   dense  smooth     PW     G-vecs:    dense   smooth      PW
     Min          64      32     10                 1317      463      90
     Max          65      33     11                 1322      464      94
     Sum        1035     523    173                21097     7419    1481



     bravais-lattice index     =            3
     lattice parameter (alat)  =       7.5900  a.u.
     unit-cell volume          =     218.6227 (a.u.)^3
     number of atoms/cell      =            1
     number of atomic types    =            1
     number of electrons       =         9.00
     number of Kohn-Sham states=            9
     kinetic-energy cutoff     =      40.0000  Ry
     charge density cutoff     =     320.0000  Ry
     Exchange-correlation      = SLA  PW   PBE  PBE ( 1  4  3  4 0 0)

     celldm(1)=   7.590000  celldm(2)=   0.000000  celldm(3)=   0.000000
     celldm(4)=   0.000000  celldm(5)=   0.000000  celldm(6)=   0.000000

     crystal axes: (cart. coord. in units of alat)
               a(1) = (   0.500000   0.500000   0.500000 )  
               a(2) = (  -0.500000   0.500000   0.500000 )  
               a(3) = (  -0.500000  -0.500000   0.500000 )  

     reciprocal axes: (cart. coord. in units 2 pi/alat)
               b(1) = (  1.000000  0.000000  1.000000 )  
               b(2) = ( -1.000000  1.000000  0.000000 )  
               b(3) = (  0.000000 -1.000000  1.000000 )  


     PseudoPot. # 1 for Na read from file:
     /home/s1333534/quantum_espresso/qe-6.1/pseudo/Na_pbe_v1.uspp.F.UPF
     MD5 check sum: 76a99c7e9422403d3e93cbc85ab7bccb
     Pseudo is Ultrasoft, Zval =  9.0
     Generated by new atomic code, or converted to UPF format
     Using radial grid of  819 points,  5 beta functions with: 
                l(1) =   0
                l(2) =   0
                l(3) =   1
                l(4) =   1
                l(5) =   2
     Q(r) pseudized with  8 coefficients,  rinner =    1.250   1.250   1.250
                                                       1.250   1.250

     atomic species   valence    mass     pseudopotential
        Na             9.00    22.99000     Na( 1.00)

     48 Sym. Ops., with inversion, found



   Cartesian axes

     site n.     atom                  positions (alat units)
         1           Na  tau(   1) = (   0.0000000   0.0000000   0.0000000  )

     number of k points=  4400  Marzari-Vanderbilt smearing, width (Ry)=  0.0200

     Number of k-points >= 100: set verbosity='high' to print them.

     Dense  grid:    21097 G-vectors     FFT dimensions: (  40,  40,  40)

     Smooth grid:     7419 G-vectors     FFT dimensions: (  27,  27,  27)

     Estimated max dynamical RAM per process >       0.72MB

     Estimated total allocated dynamical RAM >      46.36MB

     The potential is recalculated from file :
     ./_ph0/na.bcc.save/charge-density.dat

     Starting wfc are    5 atomic +    4 random wfc

     Band Structure Calculation
     Davidson diagonalization with overlap

     ethr =  1.11E-10,  avg # of iterations = 20.0

     total cpu time spent up to now is       69.2 secs

     End of band structure calculation

     Number of k-points >= 100: set verbosity='high' to print the bands.

     the Fermi energy is     2.2092 ev

     Writing output data file na.bcc.save

                                                                                

     bravais-lattice index     =            3
     lattice parameter (alat)  =       7.5900  a.u.
     unit-cell volume          =     218.6227 (a.u.)^3
     number of atoms/cell      =            1
     number of atomic types    =            1
     kinetic-energy cut-off    =      40.0000  Ry
     charge density cut-off    =     320.0000  Ry
     convergence threshold     =      1.0E-16
     beta                      =       0.7000
     number of iterations used =            4
     Exchange-correlation      = SLA  PW   PBE  PBE ( 1  4  3  4 0 0)


     celldm(1)=    7.59000  celldm(2)=    0.00000  celldm(3)=    0.00000
     celldm(4)=    0.00000  celldm(5)=    0.00000  celldm(6)=    0.00000

     crystal axes: (cart. coord. in units of alat)
               a(1) = (  0.5000  0.5000  0.5000 )  
               a(2) = ( -0.5000  0.5000  0.5000 )  
               a(3) = ( -0.5000 -0.5000  0.5000 )  

     reciprocal axes: (cart. coord. in units 2 pi/alat)
               b(1) = (  1.0000  0.0000  1.0000 )  
               b(2) = ( -1.0000  1.0000  0.0000 )  
               b(3) = (  0.0000 -1.0000  1.0000 )  


     Atoms inside the unit cell: 

     Cartesian axes

     site n.  atom      mass           positions (alat units)
        1     Na  22.9900   tau(    1) = (    0.00000    0.00000    0.00000  )

     Computing dynamical matrix for 
                    q = (   0.0000000  -0.1666667   0.1666667 )

      4 Sym.Ops. (no q -> -q+G )


     G cutoff =  466.9537  (   1322 G-vectors)     FFT grid: ( 40, 40, 40)
     G cutoff =  233.4768  (    463 G-vectors)  smooth grid: ( 27, 27, 27)

     number of k points=  4400  Marzari-Vanderbilt smearing, width (Ry)=  0.0200

     PseudoPot. # 1 for Na read from file:
     /home/s1333534/quantum_espresso/qe-6.1/pseudo/Na_pbe_v1.uspp.F.UPF
     MD5 check sum: 76a99c7e9422403d3e93cbc85ab7bccb
     Pseudo is Ultrasoft, Zval =  9.0
     Generated by new atomic code, or converted to UPF format
     Using radial grid of  819 points,  5 beta functions with: 
                l(1) =   0
                l(2) =   0
                l(3) =   1
                l(4) =   1
                l(5) =   2
     Q(r) pseudized with  8 coefficients,  rinner =    1.250   1.250   1.250
                                                       1.250   1.250

     Mode symmetry, C_2v (mm2)  point group:


     Atomic displacements:
     There are   3 irreducible representations

     Representation     1      1 modes -A_1  D_1  S_1  To be done

     Representation     2      1 modes -B_1  D_3  S_3  To be done

     Representation     3      1 modes -B_2  D_4  S_4  To be done



     Alpha used in Ewald sum =   2.8000
     PHONON       :  1m48.66s CPU     1m54.69s WALL



     Representation #  1 mode #   1

     Self-consistent Calculation

      iter #   1 total cpu time :   123.7 secs   av.it.:   5.7
      thresh= 1.000E-02 alpha_mix =  0.700 |ddv_scf|^2 =  2.565E-02

      iter #   2 total cpu time :   132.0 secs   av.it.:   6.5
      thresh= 1.000E-02 alpha_mix =  0.700 |ddv_scf|^2 =  3.594E+00

      iter #   3 total cpu time :   140.2 secs   av.it.:   6.4
      thresh= 1.000E-02 alpha_mix =  0.700 |ddv_scf|^2 =  4.808E-07

      iter #   4 total cpu time :   149.7 secs   av.it.:   7.8
      thresh= 6.934E-05 alpha_mix =  0.700 |ddv_scf|^2 =  6.186E-08

      iter #   5 total cpu time :   159.6 secs   av.it.:   7.5
      thresh= 2.487E-05 alpha_mix =  0.700 |ddv_scf|^2 =  3.196E-09

      iter #   6 total cpu time :   168.7 secs   av.it.:   7.5
      thresh= 5.654E-06 alpha_mix =  0.700 |ddv_scf|^2 =  1.853E-08

      iter #   7 total cpu time :   174.6 secs   av.it.:   4.2
      thresh= 1.361E-05 alpha_mix =  0.700 |ddv_scf|^2 =  5.962E-10

      iter #   8 total cpu time :   183.4 secs   av.it.:   7.4
      thresh= 2.442E-06 alpha_mix =  0.700 |ddv_scf|^2 =  3.950E-11

      iter #   9 total cpu time :   192.2 secs   av.it.:   7.3
      thresh= 6.285E-07 alpha_mix =  0.700 |ddv_scf|^2 =  1.474E-12

      iter #  10 total cpu time :   201.3 secs   av.it.:   7.1
      thresh= 1.214E-07 alpha_mix =  0.700 |ddv_scf|^2 =  8.816E-14

      iter #  11 total cpu time :   210.4 secs   av.it.:   7.3
      thresh= 2.969E-08 alpha_mix =  0.700 |ddv_scf|^2 =  5.114E-16

      iter #  12 total cpu time :   220.1 secs   av.it.:   7.8
      thresh= 2.261E-09 alpha_mix =  0.700 |ddv_scf|^2 =  4.859E-16

      iter #  13 total cpu time :   228.6 secs   av.it.:   6.7
      thresh= 2.204E-09 alpha_mix =  0.700 |ddv_scf|^2 =  5.042E-15

      iter #  14 total cpu time :   236.4 secs   av.it.:   6.2
      thresh= 7.101E-09 alpha_mix =  0.700 |ddv_scf|^2 =  3.893E-18

     End of self-consistent calculation

     Convergence has been achieved 


     Representation #  2 mode #   2

     Self-consistent Calculation

      iter #   1 total cpu time :   244.6 secs   av.it.:   5.4
      thresh= 1.000E-02 alpha_mix =  0.700 |ddv_scf|^2 =  9.853E-06

      iter #   2 total cpu time :   254.2 secs   av.it.:   7.7
      thresh= 3.139E-04 alpha_mix =  0.700 |ddv_scf|^2 =  1.829E-07

      iter #   3 total cpu time :   263.5 secs   av.it.:   7.9
      thresh= 4.277E-05 alpha_mix =  0.700 |ddv_scf|^2 =  3.424E-09

      iter #   4 total cpu time :   272.5 secs   av.it.:   7.4
      thresh= 5.851E-06 alpha_mix =  0.700 |ddv_scf|^2 =  1.237E-11

      iter #   5 total cpu time :   282.5 secs   av.it.:   7.7
      thresh= 3.517E-07 alpha_mix =  0.700 |ddv_scf|^2 =  2.674E-14

      iter #   6 total cpu time :   291.5 secs   av.it.:   7.4
      thresh= 1.635E-08 alpha_mix =  0.700 |ddv_scf|^2 =  6.543E-16

      iter #   7 total cpu time :   300.9 secs   av.it.:   7.7
      thresh= 2.558E-09 alpha_mix =  0.700 |ddv_scf|^2 =  6.039E-19

     End of self-consistent calculation

     Convergence has been achieved 


     Representation #  3 mode #   3

     Self-consistent Calculation

      iter #   1 total cpu time :   309.1 secs   av.it.:   5.4
      thresh= 1.000E-02 alpha_mix =  0.700 |ddv_scf|^2 =  1.019E-05

      iter #   2 total cpu time :   318.4 secs   av.it.:   7.7
      thresh= 3.193E-04 alpha_mix =  0.700 |ddv_scf|^2 =  1.817E-07

      iter #   3 total cpu time :   328.0 secs   av.it.:   7.9
      thresh= 4.263E-05 alpha_mix =  0.700 |ddv_scf|^2 =  4.440E-09

      iter #   4 total cpu time :   337.5 secs   av.it.:   7.5
      thresh= 6.663E-06 alpha_mix =  0.700 |ddv_scf|^2 =  1.556E-11

      iter #   5 total cpu time :   347.2 secs   av.it.:   7.8
      thresh= 3.945E-07 alpha_mix =  0.700 |ddv_scf|^2 =  2.790E-14

      iter #   6 total cpu time :   356.0 secs   av.it.:   7.3
      thresh= 1.670E-08 alpha_mix =  0.700 |ddv_scf|^2 =  1.080E-15

      iter #   7 total cpu time :   365.3 secs   av.it.:   7.8
      thresh= 3.287E-09 alpha_mix =  0.700 |ddv_scf|^2 =  1.311E-18

     End of self-consistent calculation

     Convergence has been achieved 

     Number of q in the star =   12
     List of q in the star:
          1   0.000000000  -0.166666667   0.166666667
          2  -0.166666667   0.000000000   0.166666667
          3   0.166666667   0.000000000   0.166666667
          4   0.000000000   0.166666667   0.166666667
          5   0.166666667   0.166666667   0.000000000
          6  -0.166666667   0.166666667   0.000000000
          7   0.166666667  -0.166666667   0.000000000
          8  -0.166666667  -0.166666667   0.000000000
          9  -0.166666667   0.000000000  -0.166666667
         10   0.000000000  -0.166666667  -0.166666667
         11   0.000000000   0.166666667  -0.166666667
         12   0.166666667   0.000000000  -0.166666667

     Diagonalizing the dynamical matrix

     q = (    0.000000000  -0.166666667   0.166666667 ) 

 **************************************************************************
     freq (    1) =       0.606993 [THz] =      20.247099 [cm-1]
     freq (    2) =       1.473500 [THz] =      49.150674 [cm-1]
     freq (    3) =       2.376979 [THz] =      79.287495 [cm-1]
 **************************************************************************

     Mode symmetry, C_2v (mm2)  point group:

     freq (  1 -  1) =         20.2  [cm-1]   --> B_1  D_3  S_3      
     freq (  2 -  2) =         49.2  [cm-1]   --> B_2  D_4  S_4      
     freq (  3 -  3) =         79.3  [cm-1]   --> A_1  D_1  S_1      

     Calculation of q =    0.0000000  -0.3333333   0.3333333

   Info: using nr1, nr2, nr3 values from input

   Info: using nr1, nr2, nr3 values from input

     Parallelization info
     --------------------
     sticks:   dense  smooth     PW     G-vecs:    dense   smooth      PW
     Min          64      32     11                 1317      463      96
     Max          65      33     12                 1322      464      98
     Sum        1035     523    181                21097     7419    1553



     bravais-lattice index     =            3
     lattice parameter (alat)  =       7.5900  a.u.
     unit-cell volume          =     218.6227 (a.u.)^3
     number of atoms/cell      =            1
     number of atomic types    =            1
     number of electrons       =         9.00
     number of Kohn-Sham states=            9
     kinetic-energy cutoff     =      40.0000  Ry
     charge density cutoff     =     320.0000  Ry
     Exchange-correlation      = SLA  PW   PBE  PBE ( 1  4  3  4 0 0)

     celldm(1)=   7.590000  celldm(2)=   0.000000  celldm(3)=   0.000000
     celldm(4)=   0.000000  celldm(5)=   0.000000  celldm(6)=   0.000000

     crystal axes: (cart. coord. in units of alat)
               a(1) = (   0.500000   0.500000   0.500000 )  
               a(2) = (  -0.500000   0.500000   0.500000 )  
               a(3) = (  -0.500000  -0.500000   0.500000 )  

     reciprocal axes: (cart. coord. in units 2 pi/alat)
               b(1) = (  1.000000  0.000000  1.000000 )  
               b(2) = ( -1.000000  1.000000  0.000000 )  
               b(3) = (  0.000000 -1.000000  1.000000 )  


     PseudoPot. # 1 for Na read from file:
     /home/s1333534/quantum_espresso/qe-6.1/pseudo/Na_pbe_v1.uspp.F.UPF
     MD5 check sum: 76a99c7e9422403d3e93cbc85ab7bccb
     Pseudo is Ultrasoft, Zval =  9.0
     Generated by new atomic code, or converted to UPF format
     Using radial grid of  819 points,  5 beta functions with: 
                l(1) =   0
                l(2) =   0
                l(3) =   1
                l(4) =   1
                l(5) =   2
     Q(r) pseudized with  8 coefficients,  rinner =    1.250   1.250   1.250
                                                       1.250   1.250

     atomic species   valence    mass     pseudopotential
        Na             9.00    22.99000     Na( 1.00)

     48 Sym. Ops., with inversion, found



   Cartesian axes

     site n.     atom                  positions (alat units)
         1           Na  tau(   1) = (   0.0000000   0.0000000   0.0000000  )

     number of k points=  4400  Marzari-Vanderbilt smearing, width (Ry)=  0.0200

     Number of k-points >= 100: set verbosity='high' to print them.

     Dense  grid:    21097 G-vectors     FFT dimensions: (  40,  40,  40)

     Smooth grid:     7419 G-vectors     FFT dimensions: (  27,  27,  27)

     Estimated max dynamical RAM per process >       0.72MB

     Estimated total allocated dynamical RAM >      46.36MB

     The potential is recalculated from file :
     ./_ph0/na.bcc.save/charge-density.dat

     Starting wfc are    5 atomic +    4 random wfc

     Band Structure Calculation
     Davidson diagonalization with overlap

     ethr =  1.11E-10,  avg # of iterations = 20.0

     total cpu time spent up to now is      149.6 secs

     End of band structure calculation

     Number of k-points >= 100: set verbosity='high' to print the bands.

     the Fermi energy is     2.2092 ev

     Writing output data file na.bcc.save

                                                                                

     bravais-lattice index     =            3
     lattice parameter (alat)  =       7.5900  a.u.
     unit-cell volume          =     218.6227 (a.u.)^3
     number of atoms/cell      =            1
     number of atomic types    =            1
     kinetic-energy cut-off    =      40.0000  Ry
     charge density cut-off    =     320.0000  Ry
     convergence threshold     =      1.0E-16
     beta                      =       0.7000
     number of iterations used =            4
     Exchange-correlation      = SLA  PW   PBE  PBE ( 1  4  3  4 0 0)


     celldm(1)=    7.59000  celldm(2)=    0.00000  celldm(3)=    0.00000
     celldm(4)=    0.00000  celldm(5)=    0.00000  celldm(6)=    0.00000

     crystal axes: (cart. coord. in units of alat)
               a(1) = (  0.5000  0.5000  0.5000 )  
               a(2) = ( -0.5000  0.5000  0.5000 )  
               a(3) = ( -0.5000 -0.5000  0.5000 )  

     reciprocal axes: (cart. coord. in units 2 pi/alat)
               b(1) = (  1.0000  0.0000  1.0000 )  
               b(2) = ( -1.0000  1.0000  0.0000 )  
               b(3) = (  0.0000 -1.0000  1.0000 )  


     Atoms inside the unit cell: 

     Cartesian axes

     site n.  atom      mass           positions (alat units)
        1     Na  22.9900   tau(    1) = (    0.00000    0.00000    0.00000  )

     Computing dynamical matrix for 
                    q = (   0.0000000  -0.3333333   0.3333333 )

      4 Sym.Ops. (no q -> -q+G )


     G cutoff =  466.9537  (   1322 G-vectors)     FFT grid: ( 40, 40, 40)
     G cutoff =  233.4768  (    463 G-vectors)  smooth grid: ( 27, 27, 27)

     number of k points=  4400  Marzari-Vanderbilt smearing, width (Ry)=  0.0200

     PseudoPot. # 1 for Na read from file:
     /home/s1333534/quantum_espresso/qe-6.1/pseudo/Na_pbe_v1.uspp.F.UPF
     MD5 check sum: 76a99c7e9422403d3e93cbc85ab7bccb
     Pseudo is Ultrasoft, Zval =  9.0
     Generated by new atomic code, or converted to UPF format
     Using radial grid of  819 points,  5 beta functions with: 
                l(1) =   0
                l(2) =   0
                l(3) =   1
                l(4) =   1
                l(5) =   2
     Q(r) pseudized with  8 coefficients,  rinner =    1.250   1.250   1.250
                                                       1.250   1.250

     Mode symmetry, C_2v (mm2)  point group:


     Atomic displacements:
     There are   3 irreducible representations

     Representation     1      1 modes -A_1  D_1  S_1  To be done

     Representation     2      1 modes -B_1  D_3  S_3  To be done

     Representation     3      1 modes -B_2  D_4  S_4  To be done



     Alpha used in Ewald sum =   2.8000
     PHONON       :  6m58.66s CPU     7m30.01s WALL



     Representation #  1 mode #   1

     Self-consistent Calculation

      iter #   1 total cpu time :   459.0 secs   av.it.:   5.7
      thresh= 1.000E-02 alpha_mix =  0.700 |ddv_scf|^2 =  4.381E-04

      iter #   2 total cpu time :   467.5 secs   av.it.:   6.7
      thresh= 2.093E-03 alpha_mix =  0.700 |ddv_scf|^2 =  2.394E-03

      iter #   3 total cpu time :   475.4 secs   av.it.:   5.9
      thresh= 4.893E-03 alpha_mix =  0.700 |ddv_scf|^2 =  4.779E-07

      iter #   4 total cpu time :   485.4 secs   av.it.:   7.8
      thresh= 6.913E-05 alpha_mix =  0.700 |ddv_scf|^2 =  7.780E-09

      iter #   5 total cpu time :   495.2 secs   av.it.:   8.3
      thresh= 8.820E-06 alpha_mix =  0.700 |ddv_scf|^2 =  4.278E-10

      iter #   6 total cpu time :   504.7 secs   av.it.:   8.1
      thresh= 2.068E-06 alpha_mix =  0.700 |ddv_scf|^2 =  1.455E-11

      iter #   7 total cpu time :   513.9 secs   av.it.:   7.7
      thresh= 3.814E-07 alpha_mix =  0.700 |ddv_scf|^2 =  1.700E-14

      iter #   8 total cpu time :   523.9 secs   av.it.:   7.9
      thresh= 1.304E-08 alpha_mix =  0.700 |ddv_scf|^2 =  3.021E-14

      iter #   9 total cpu time :   531.9 secs   av.it.:   6.3
      thresh= 1.738E-08 alpha_mix =  0.700 |ddv_scf|^2 =  3.331E-15

      iter #  10 total cpu time :   541.2 secs   av.it.:   7.3
      thresh= 5.772E-09 alpha_mix =  0.700 |ddv_scf|^2 =  5.781E-16

      iter #  11 total cpu time :   549.6 secs   av.it.:   6.9
      thresh= 2.404E-09 alpha_mix =  0.700 |ddv_scf|^2 =  9.569E-18

     End of self-consistent calculation

     Convergence has been achieved 


     Representation #  2 mode #   2

     Self-consistent Calculation

      iter #   1 total cpu time :   558.3 secs   av.it.:   5.5
      thresh= 1.000E-02 alpha_mix =  0.700 |ddv_scf|^2 =  1.013E-05

      iter #   2 total cpu time :   568.0 secs   av.it.:   7.8
      thresh= 3.182E-04 alpha_mix =  0.700 |ddv_scf|^2 =  1.772E-07

      iter #   3 total cpu time :   578.3 secs   av.it.:   7.9
      thresh= 4.210E-05 alpha_mix =  0.700 |ddv_scf|^2 =  4.408E-09

      iter #   4 total cpu time :   587.2 secs   av.it.:   7.5
      thresh= 6.640E-06 alpha_mix =  0.700 |ddv_scf|^2 =  1.469E-11

      iter #   5 total cpu time :   597.5 secs   av.it.:   7.8
      thresh= 3.833E-07 alpha_mix =  0.700 |ddv_scf|^2 =  2.267E-14

      iter #   6 total cpu time :   606.6 secs   av.it.:   7.4
      thresh= 1.506E-08 alpha_mix =  0.700 |ddv_scf|^2 =  7.086E-16

      iter #   7 total cpu time :   616.0 secs   av.it.:   7.8
      thresh= 2.662E-09 alpha_mix =  0.700 |ddv_scf|^2 =  7.197E-19

     End of self-consistent calculation

     Convergence has been achieved 


     Representation #  3 mode #   3

     Self-consistent Calculation

      iter #   1 total cpu time :   624.6 secs   av.it.:   5.5
      thresh= 1.000E-02 alpha_mix =  0.700 |ddv_scf|^2 =  1.119E-05

      iter #   2 total cpu time :   633.8 secs   av.it.:   7.7
      thresh= 3.346E-04 alpha_mix =  0.700 |ddv_scf|^2 =  1.751E-07

      iter #   3 total cpu time :   643.7 secs   av.it.:   7.9
      thresh= 4.184E-05 alpha_mix =  0.700 |ddv_scf|^2 =  7.936E-09

      iter #   4 total cpu time :   652.8 secs   av.it.:   7.5
      thresh= 8.909E-06 alpha_mix =  0.700 |ddv_scf|^2 =  2.631E-11

      iter #   5 total cpu time :   662.2 secs   av.it.:   7.8
      thresh= 5.129E-07 alpha_mix =  0.700 |ddv_scf|^2 =  3.001E-14

      iter #   6 total cpu time :   670.5 secs   av.it.:   6.5
      thresh= 1.732E-08 alpha_mix =  0.700 |ddv_scf|^2 =  1.810E-15

      iter #   7 total cpu time :   679.7 secs   av.it.:   7.7
      thresh= 4.255E-09 alpha_mix =  0.700 |ddv_scf|^2 =  2.053E-18

     End of self-consistent calculation

     Convergence has been achieved 

     Number of q in the star =   12
     List of q in the star:
          1   0.000000000  -0.333333333   0.333333333
          2  -0.333333333   0.000000000   0.333333333
          3   0.333333333   0.000000000   0.333333333
          4   0.000000000   0.333333333   0.333333333
          5   0.333333333   0.333333333   0.000000000
          6  -0.333333333   0.333333333   0.000000000
          7   0.333333333  -0.333333333   0.000000000
          8  -0.333333333  -0.333333333   0.000000000
          9  -0.333333333   0.000000000  -0.333333333
         10   0.000000000  -0.333333333  -0.333333333
         11   0.000000000   0.333333333  -0.333333333
         12   0.333333333   0.000000000  -0.333333333

     Diagonalizing the dynamical matrix

     q = (    0.000000000  -0.333333333   0.333333333 ) 

 **************************************************************************
     freq (    1) =       0.962948 [THz] =      32.120476 [cm-1]
     freq (    2) =       2.528729 [THz] =      84.349321 [cm-1]
     freq (    3) =       4.111343 [THz] =     137.139628 [cm-1]
 **************************************************************************

     Mode symmetry, C_2v (mm2)  point group:

     freq (  1 -  1) =         32.1  [cm-1]   --> B_1  D_3  S_3      
     freq (  2 -  2) =         84.3  [cm-1]   --> B_2  D_4  S_4      
     freq (  3 -  3) =        137.1  [cm-1]   --> A_1  D_1  S_1      

     Calculation of q =    0.0000000   0.5000000  -0.5000000

   Info: using nr1, nr2, nr3 values from input

   Info: using nr1, nr2, nr3 values from input

     Parallelization info
     --------------------
     sticks:   dense  smooth     PW     G-vecs:    dense   smooth      PW
     Min          64      32     12                 1317      463     107
     Max          65      33     13                 1322      464     109
     Sum        1035     523    197                21097     7419    1721



     bravais-lattice index     =            3
     lattice parameter (alat)  =       7.5900  a.u.
     unit-cell volume          =     218.6227 (a.u.)^3
     number of atoms/cell      =            1
     number of atomic types    =            1
     number of electrons       =         9.00
     number of Kohn-Sham states=            9
     kinetic-energy cutoff     =      40.0000  Ry
     charge density cutoff     =     320.0000  Ry
     Exchange-correlation      = SLA  PW   PBE  PBE ( 1  4  3  4 0 0)

     celldm(1)=   7.590000  celldm(2)=   0.000000  celldm(3)=   0.000000
     celldm(4)=   0.000000  celldm(5)=   0.000000  celldm(6)=   0.000000

     crystal axes: (cart. coord. in units of alat)
               a(1) = (   0.500000   0.500000   0.500000 )  
               a(2) = (  -0.500000   0.500000   0.500000 )  
               a(3) = (  -0.500000  -0.500000   0.500000 )  

     reciprocal axes: (cart. coord. in units 2 pi/alat)
               b(1) = (  1.000000  0.000000  1.000000 )  
               b(2) = ( -1.000000  1.000000  0.000000 )  
               b(3) = (  0.000000 -1.000000  1.000000 )  


     PseudoPot. # 1 for Na read from file:
     /home/s1333534/quantum_espresso/qe-6.1/pseudo/Na_pbe_v1.uspp.F.UPF
     MD5 check sum: 76a99c7e9422403d3e93cbc85ab7bccb
     Pseudo is Ultrasoft, Zval =  9.0
     Generated by new atomic code, or converted to UPF format
     Using radial grid of  819 points,  5 beta functions with: 
                l(1) =   0
                l(2) =   0
                l(3) =   1
                l(4) =   1
                l(5) =   2
     Q(r) pseudized with  8 coefficients,  rinner =    1.250   1.250   1.250
                                                       1.250   1.250

     atomic species   valence    mass     pseudopotential
        Na             9.00    22.99000     Na( 1.00)

     48 Sym. Ops., with inversion, found



   Cartesian axes

     site n.     atom                  positions (alat units)
         1           Na  tau(   1) = (   0.0000000   0.0000000   0.0000000  )

     number of k points=  2310  Marzari-Vanderbilt smearing, width (Ry)=  0.0200

     Number of k-points >= 100: set verbosity='high' to print them.

     Dense  grid:    21097 G-vectors     FFT dimensions: (  40,  40,  40)

     Smooth grid:     7419 G-vectors     FFT dimensions: (  27,  27,  27)

     Estimated max dynamical RAM per process >       0.72MB

     Estimated total allocated dynamical RAM >      46.36MB

     The potential is recalculated from file :
     ./_ph0/na.bcc.save/charge-density.dat

     Starting wfc are    5 atomic +    4 random wfc

     Band Structure Calculation
     Davidson diagonalization with overlap

     ethr =  1.11E-10,  avg # of iterations = 20.1

     total cpu time spent up to now is      199.2 secs

     End of band structure calculation

     Number of k-points >= 100: set verbosity='high' to print the bands.

     the Fermi energy is     2.2092 ev

     Writing output data file na.bcc.save

                                                                                

     bravais-lattice index     =            3
     lattice parameter (alat)  =       7.5900  a.u.
     unit-cell volume          =     218.6227 (a.u.)^3
     number of atoms/cell      =            1
     number of atomic types    =            1
     kinetic-energy cut-off    =      40.0000  Ry
     charge density cut-off    =     320.0000  Ry
     convergence threshold     =      1.0E-16
     beta                      =       0.7000
     number of iterations used =            4
     Exchange-correlation      = SLA  PW   PBE  PBE ( 1  4  3  4 0 0)


     celldm(1)=    7.59000  celldm(2)=    0.00000  celldm(3)=    0.00000
     celldm(4)=    0.00000  celldm(5)=    0.00000  celldm(6)=    0.00000

     crystal axes: (cart. coord. in units of alat)
               a(1) = (  0.5000  0.5000  0.5000 )  
               a(2) = ( -0.5000  0.5000  0.5000 )  
               a(3) = ( -0.5000 -0.5000  0.5000 )  

     reciprocal axes: (cart. coord. in units 2 pi/alat)
               b(1) = (  1.0000  0.0000  1.0000 )  
               b(2) = ( -1.0000  1.0000  0.0000 )  
               b(3) = (  0.0000 -1.0000  1.0000 )  


     Atoms inside the unit cell: 

     Cartesian axes

     site n.  atom      mass           positions (alat units)
        1     Na  22.9900   tau(    1) = (    0.00000    0.00000    0.00000  )

     Computing dynamical matrix for 
                    q = (   0.0000000   0.5000000  -0.5000000 )

      9 Sym.Ops. (with q -> -q+G )


     G cutoff =  466.9537  (   1322 G-vectors)     FFT grid: ( 40, 40, 40)
     G cutoff =  233.4768  (    463 G-vectors)  smooth grid: ( 27, 27, 27)

     number of k points=  2310  Marzari-Vanderbilt smearing, width (Ry)=  0.0200

     PseudoPot. # 1 for Na read from file:
     /home/s1333534/quantum_espresso/qe-6.1/pseudo/Na_pbe_v1.uspp.F.UPF
     MD5 check sum: 76a99c7e9422403d3e93cbc85ab7bccb
     Pseudo is Ultrasoft, Zval =  9.0
     Generated by new atomic code, or converted to UPF format
     Using radial grid of  819 points,  5 beta functions with: 
                l(1) =   0
                l(2) =   0
                l(3) =   1
                l(4) =   1
                l(5) =   2
     Q(r) pseudized with  8 coefficients,  rinner =    1.250   1.250   1.250
                                                       1.250   1.250

     Mode symmetry, D_2h (mmm)  point group:


     Atomic displacements:
     There are   3 irreducible representations

     Representation     1      1 modes -B_1u  To be done

     Representation     2      1 modes -B_2u  To be done

     Representation     3      1 modes -B_3u  To be done



     Alpha used in Ewald sum =   2.8000
     PHONON       : 11m 9.52s CPU    12m 5.33s WALL



     Representation #  1 mode #   1

     Self-consistent Calculation

      iter #   1 total cpu time :   729.8 secs   av.it.:   5.5
      thresh= 1.000E-02 alpha_mix =  0.700 |ddv_scf|^2 =  1.175E-05

      iter #   2 total cpu time :   735.5 secs   av.it.:   7.7
      thresh= 3.427E-04 alpha_mix =  0.700 |ddv_scf|^2 =  1.722E-07

      iter #   3 total cpu time :   740.6 secs   av.it.:   7.8
      thresh= 4.149E-05 alpha_mix =  0.700 |ddv_scf|^2 =  1.006E-08

      iter #   4 total cpu time :   745.4 secs   av.it.:   7.3
      thresh= 1.003E-05 alpha_mix =  0.700 |ddv_scf|^2 =  3.344E-11

      iter #   5 total cpu time :   750.5 secs   av.it.:   7.7
      thresh= 5.783E-07 alpha_mix =  0.700 |ddv_scf|^2 =  3.253E-14

      iter #   6 total cpu time :   755.2 secs   av.it.:   6.8
      thresh= 1.804E-08 alpha_mix =  0.700 |ddv_scf|^2 =  2.125E-15

      iter #   7 total cpu time :   760.3 secs   av.it.:   7.5
      thresh= 4.609E-09 alpha_mix =  0.700 |ddv_scf|^2 =  1.955E-18

     End of self-consistent calculation

     Convergence has been achieved 


     Representation #  2 mode #   2

     Self-consistent Calculation

      iter #   1 total cpu time :   765.1 secs   av.it.:   5.5
      thresh= 1.000E-02 alpha_mix =  0.700 |ddv_scf|^2 =  1.030E-05

      iter #   2 total cpu time :   770.3 secs   av.it.:   7.7
      thresh= 3.209E-04 alpha_mix =  0.700 |ddv_scf|^2 =  1.737E-07

      iter #   3 total cpu time :   775.5 secs   av.it.:   7.9
      thresh= 4.168E-05 alpha_mix =  0.700 |ddv_scf|^2 =  5.063E-09

      iter #   4 total cpu time :   780.4 secs   av.it.:   7.2
      thresh= 7.116E-06 alpha_mix =  0.700 |ddv_scf|^2 =  1.612E-11

      iter #   5 total cpu time :   785.5 secs   av.it.:   7.6
      thresh= 4.014E-07 alpha_mix =  0.700 |ddv_scf|^2 =  1.997E-14

      iter #   6 total cpu time :   790.5 secs   av.it.:   7.3
      thresh= 1.413E-08 alpha_mix =  0.700 |ddv_scf|^2 =  6.621E-16

      iter #   7 total cpu time :   795.9 secs   av.it.:   7.6
      thresh= 2.573E-09 alpha_mix =  0.700 |ddv_scf|^2 =  3.565E-19

     End of self-consistent calculation

     Convergence has been achieved 


     Representation #  3 mode #   3

     Self-consistent Calculation

      iter #   1 total cpu time :   800.7 secs   av.it.:   5.7
      thresh= 1.000E-02 alpha_mix =  0.700 |ddv_scf|^2 =  8.911E-05

      iter #   2 total cpu time :   805.5 secs   av.it.:   6.8
      thresh= 9.440E-04 alpha_mix =  0.700 |ddv_scf|^2 =  4.409E-05

      iter #   3 total cpu time :   810.3 secs   av.it.:   6.7
      thresh= 6.640E-04 alpha_mix =  0.700 |ddv_scf|^2 =  6.791E-08

      iter #   4 total cpu time :   815.6 secs   av.it.:   7.8
      thresh= 2.606E-05 alpha_mix =  0.700 |ddv_scf|^2 =  2.309E-10

      iter #   5 total cpu time :   820.4 secs   av.it.:   6.7
      thresh= 1.519E-06 alpha_mix =  0.700 |ddv_scf|^2 =  4.579E-12

      iter #   6 total cpu time :   825.5 secs   av.it.:   6.8
      thresh= 2.140E-07 alpha_mix =  0.700 |ddv_scf|^2 =  1.531E-14

      iter #   7 total cpu time :   830.4 secs   av.it.:   7.3
      thresh= 1.237E-08 alpha_mix =  0.700 |ddv_scf|^2 =  4.243E-17

     End of self-consistent calculation

     Convergence has been achieved 

     Number of q in the star =    6
     List of q in the star:
          1   0.000000000   0.500000000  -0.500000000
          2  -0.500000000  -0.500000000   0.000000000
          3   0.500000000  -0.500000000   0.000000000
          4   0.500000000   0.000000000   0.500000000
          5   0.000000000  -0.500000000  -0.500000000
          6   0.500000000   0.000000000  -0.500000000

     Diagonalizing the dynamical matrix

     q = (    0.000000000   0.500000000  -0.500000000 ) 

 **************************************************************************
     freq (    1) =       1.083266 [THz] =      36.133850 [cm-1]
     freq (    2) =       2.917382 [THz] =      97.313400 [cm-1]
     freq (    3) =       4.744489 [THz] =     158.259133 [cm-1]
 **************************************************************************

     Mode symmetry, D_2h (mmm)  point group:

     freq (  1 -  1) =         36.1  [cm-1]   --> B_2u               
     freq (  2 -  2) =         97.3  [cm-1]   --> B_1u               
     freq (  3 -  3) =        158.3  [cm-1]   --> B_3u               

     Calculation of q =   -0.1666667  -0.1666667   0.3333333

   Info: using nr1, nr2, nr3 values from input

   Info: using nr1, nr2, nr3 values from input

     Parallelization info
     --------------------
     sticks:   dense  smooth     PW     G-vecs:    dense   smooth      PW
     Min          64      32     10                 1317      463      91
     Max          65      33     11                 1322      464      95
     Sum        1035     523    173                21097     7419    1505



     bravais-lattice index     =            3
     lattice parameter (alat)  =       7.5900  a.u.
     unit-cell volume          =     218.6227 (a.u.)^3
     number of atoms/cell      =            1
     number of atomic types    =            1
     number of electrons       =         9.00
     number of Kohn-Sham states=            9
     kinetic-energy cutoff     =      40.0000  Ry
     charge density cutoff     =     320.0000  Ry
     Exchange-correlation      = SLA  PW   PBE  PBE ( 1  4  3  4 0 0)

     celldm(1)=   7.590000  celldm(2)=   0.000000  celldm(3)=   0.000000
     celldm(4)=   0.000000  celldm(5)=   0.000000  celldm(6)=   0.000000

     crystal axes: (cart. coord. in units of alat)
               a(1) = (   0.500000   0.500000   0.500000 )  
               a(2) = (  -0.500000   0.500000   0.500000 )  
               a(3) = (  -0.500000  -0.500000   0.500000 )  

     reciprocal axes: (cart. coord. in units 2 pi/alat)
               b(1) = (  1.000000  0.000000  1.000000 )  
               b(2) = ( -1.000000  1.000000  0.000000 )  
               b(3) = (  0.000000 -1.000000  1.000000 )  


     PseudoPot. # 1 for Na read from file:
     /home/s1333534/quantum_espresso/qe-6.1/pseudo/Na_pbe_v1.uspp.F.UPF
     MD5 check sum: 76a99c7e9422403d3e93cbc85ab7bccb
     Pseudo is Ultrasoft, Zval =  9.0
     Generated by new atomic code, or converted to UPF format
     Using radial grid of  819 points,  5 beta functions with: 
                l(1) =   0
                l(2) =   0
                l(3) =   1
                l(4) =   1
                l(5) =   2
     Q(r) pseudized with  8 coefficients,  rinner =    1.250   1.250   1.250
                                                       1.250   1.250

     atomic species   valence    mass     pseudopotential
        Na             9.00    22.99000     Na( 1.00)

     48 Sym. Ops., with inversion, found



   Cartesian axes

     site n.     atom                  positions (alat units)
         1           Na  tau(   1) = (   0.0000000   0.0000000   0.0000000  )

     number of k points=  8400  Marzari-Vanderbilt smearing, width (Ry)=  0.0200

     Number of k-points >= 100: set verbosity='high' to print them.

     Dense  grid:    21097 G-vectors     FFT dimensions: (  40,  40,  40)

     Smooth grid:     7419 G-vectors     FFT dimensions: (  27,  27,  27)

     Estimated max dynamical RAM per process >       0.72MB

     Estimated total allocated dynamical RAM >      46.36MB

     The potential is recalculated from file :
     ./_ph0/na.bcc.save/charge-density.dat

     Starting wfc are    5 atomic +    4 random wfc

     Band Structure Calculation
     Davidson diagonalization with overlap

     ethr =  1.11E-10,  avg # of iterations = 20.1

     total cpu time spent up to now is      335.6 secs

     End of band structure calculation

     Number of k-points >= 100: set verbosity='high' to print the bands.

     the Fermi energy is     2.2092 ev

     Writing output data file na.bcc.save

                                                                                

     bravais-lattice index     =            3
     lattice parameter (alat)  =       7.5900  a.u.
     unit-cell volume          =     218.6227 (a.u.)^3
     number of atoms/cell      =            1
     number of atomic types    =            1
     kinetic-energy cut-off    =      40.0000  Ry
     charge density cut-off    =     320.0000  Ry
     convergence threshold     =      1.0E-16
     beta                      =       0.7000
     number of iterations used =            4
     Exchange-correlation      = SLA  PW   PBE  PBE ( 1  4  3  4 0 0)


     celldm(1)=    7.59000  celldm(2)=    0.00000  celldm(3)=    0.00000
     celldm(4)=    0.00000  celldm(5)=    0.00000  celldm(6)=    0.00000

     crystal axes: (cart. coord. in units of alat)
               a(1) = (  0.5000  0.5000  0.5000 )  
               a(2) = ( -0.5000  0.5000  0.5000 )  
               a(3) = ( -0.5000 -0.5000  0.5000 )  

     reciprocal axes: (cart. coord. in units 2 pi/alat)
               b(1) = (  1.0000  0.0000  1.0000 )  
               b(2) = ( -1.0000  1.0000  0.0000 )  
               b(3) = (  0.0000 -1.0000  1.0000 )  


     Atoms inside the unit cell: 

     Cartesian axes

     site n.  atom      mass           positions (alat units)
        1     Na  22.9900   tau(    1) = (    0.00000    0.00000    0.00000  )

     Computing dynamical matrix for 
                    q = (  -0.1666667  -0.1666667   0.3333333 )

      2 Sym.Ops. (no q -> -q+G )


     G cutoff =  466.9537  (   1322 G-vectors)     FFT grid: ( 40, 40, 40)
     G cutoff =  233.4768  (    463 G-vectors)  smooth grid: ( 27, 27, 27)

     number of k points=  8400  Marzari-Vanderbilt smearing, width (Ry)=  0.0200

     PseudoPot. # 1 for Na read from file:
     /home/s1333534/quantum_espresso/qe-6.1/pseudo/Na_pbe_v1.uspp.F.UPF
     MD5 check sum: 76a99c7e9422403d3e93cbc85ab7bccb
     Pseudo is Ultrasoft, Zval =  9.0
     Generated by new atomic code, or converted to UPF format
     Using radial grid of  819 points,  5 beta functions with: 
                l(1) =   0
                l(2) =   0
                l(3) =   1
                l(4) =   1
                l(5) =   2
     Q(r) pseudized with  8 coefficients,  rinner =    1.250   1.250   1.250
                                                       1.250   1.250

     Mode symmetry, C_s (m)     point group:


     Atomic displacements:
     There are   3 irreducible representations

     Representation     1      1 modes -A'  To be done

     Representation     2      1 modes -A'  To be done

     Representation     3      1 modes -A''  To be done



     Alpha used in Ewald sum =   2.8000
     PHONON       : 15m20.11s CPU    16m32.87s WALL



     Representation #  1 mode #   1

     Self-consistent Calculation

      iter #   1 total cpu time :  1009.2 secs   av.it.:   5.6
      thresh= 1.000E-02 alpha_mix =  0.700 |ddv_scf|^2 =  1.091E-04

      iter #   2 total cpu time :  1026.5 secs   av.it.:   7.3
      thresh= 1.044E-03 alpha_mix =  0.700 |ddv_scf|^2 =  1.139E-03

      iter #   3 total cpu time :  1040.7 secs   av.it.:   5.5
      thresh= 3.375E-03 alpha_mix =  0.700 |ddv_scf|^2 =  1.388E-07

      iter #   4 total cpu time :  1059.6 secs   av.it.:   8.3
      thresh= 3.725E-05 alpha_mix =  0.700 |ddv_scf|^2 =  5.399E-09

      iter #   5 total cpu time :  1077.5 secs   av.it.:   7.9
      thresh= 7.348E-06 alpha_mix =  0.700 |ddv_scf|^2 =  1.708E-10

      iter #   6 total cpu time :  1096.7 secs   av.it.:   8.2
      thresh= 1.307E-06 alpha_mix =  0.700 |ddv_scf|^2 =  1.833E-11

      iter #   7 total cpu time :  1115.5 secs   av.it.:   7.9
      thresh= 4.282E-07 alpha_mix =  0.700 |ddv_scf|^2 =  3.569E-11

      iter #   8 total cpu time :  1132.6 secs   av.it.:   7.2
      thresh= 5.974E-07 alpha_mix =  0.700 |ddv_scf|^2 =  3.179E-11

      iter #   9 total cpu time :  1148.4 secs   av.it.:   6.8
      thresh= 5.639E-07 alpha_mix =  0.700 |ddv_scf|^2 =  1.013E-12

      iter #  10 total cpu time :  1164.9 secs   av.it.:   7.2
      thresh= 1.006E-07 alpha_mix =  0.700 |ddv_scf|^2 =  4.092E-15

      iter #  11 total cpu time :  1184.5 secs   av.it.:   8.3
      thresh= 6.397E-09 alpha_mix =  0.700 |ddv_scf|^2 =  1.938E-16

      iter #  12 total cpu time :  1201.9 secs   av.it.:   7.7
      thresh= 1.392E-09 alpha_mix =  0.700 |ddv_scf|^2 =  1.202E-17

     End of self-consistent calculation

     Convergence has been achieved 


     Representation #  2 mode #   2

     Self-consistent Calculation

      iter #   1 total cpu time :  1218.9 secs   av.it.:   5.8
      thresh= 1.000E-02 alpha_mix =  0.700 |ddv_scf|^2 =  8.900E-04

      iter #   2 total cpu time :  1234.7 secs   av.it.:   6.6
      thresh= 2.983E-03 alpha_mix =  0.700 |ddv_scf|^2 =  1.013E-02

      iter #   3 total cpu time :  1250.8 secs   av.it.:   5.5
      thresh= 1.000E-02 alpha_mix =  0.700 |ddv_scf|^2 =  9.596E-07

      iter #   4 total cpu time :  1268.6 secs   av.it.:   7.7
      thresh= 9.796E-05 alpha_mix =  0.700 |ddv_scf|^2 =  5.989E-09

      iter #   5 total cpu time :  1287.6 secs   av.it.:   8.3
      thresh= 7.739E-06 alpha_mix =  0.700 |ddv_scf|^2 =  6.754E-10

      iter #   6 total cpu time :  1306.3 secs   av.it.:   8.2
      thresh= 2.599E-06 alpha_mix =  0.700 |ddv_scf|^2 =  1.623E-11

      iter #   7 total cpu time :  1325.4 secs   av.it.:   8.2
      thresh= 4.028E-07 alpha_mix =  0.700 |ddv_scf|^2 =  1.521E-11

      iter #   8 total cpu time :  1341.3 secs   av.it.:   6.5
      thresh= 3.899E-07 alpha_mix =  0.700 |ddv_scf|^2 =  4.876E-12

      iter #   9 total cpu time :  1358.3 secs   av.it.:   7.2
      thresh= 2.208E-07 alpha_mix =  0.700 |ddv_scf|^2 =  1.557E-13

      iter #  10 total cpu time :  1376.1 secs   av.it.:   7.2
      thresh= 3.946E-08 alpha_mix =  0.700 |ddv_scf|^2 =  1.198E-13

      iter #  11 total cpu time :  1392.9 secs   av.it.:   7.1
      thresh= 3.461E-08 alpha_mix =  0.700 |ddv_scf|^2 =  9.218E-17

     End of self-consistent calculation

     Convergence has been achieved 


     Representation #  3 mode #   3

     Self-consistent Calculation

      iter #   1 total cpu time :  1409.1 secs   av.it.:   5.5
      thresh= 1.000E-02 alpha_mix =  0.700 |ddv_scf|^2 =  1.180E-05

      iter #   2 total cpu time :  1428.0 secs   av.it.:   7.8
      thresh= 3.435E-04 alpha_mix =  0.700 |ddv_scf|^2 =  1.683E-07

      iter #   3 total cpu time :  1446.3 secs   av.it.:   8.0
      thresh= 4.103E-05 alpha_mix =  0.700 |ddv_scf|^2 =  8.665E-09

      iter #   4 total cpu time :  1465.5 secs   av.it.:   7.7
      thresh= 9.309E-06 alpha_mix =  0.700 |ddv_scf|^2 =  6.968E-11

      iter #   5 total cpu time :  1483.0 secs   av.it.:   7.5
      thresh= 8.347E-07 alpha_mix =  0.700 |ddv_scf|^2 =  6.068E-14

      iter #   6 total cpu time :  1500.2 secs   av.it.:   7.5
      thresh= 2.463E-08 alpha_mix =  0.700 |ddv_scf|^2 =  2.976E-15

      iter #   7 total cpu time :  1517.6 secs   av.it.:   7.5
      thresh= 5.455E-09 alpha_mix =  0.700 |ddv_scf|^2 =  1.116E-17

     End of self-consistent calculation

     Convergence has been achieved 

     Number of q in the star =   24
     List of q in the star:
          1  -0.166666667  -0.166666667   0.333333333
          2  -0.166666667  -0.333333333   0.166666667
          3   0.166666667  -0.333333333   0.166666667
          4  -0.166666667   0.333333333  -0.166666667
          5   0.166666667   0.333333333  -0.166666667
          6   0.166666667   0.166666667  -0.333333333
          7  -0.166666667   0.166666667  -0.333333333
          8   0.333333333   0.166666667  -0.166666667
          9  -0.333333333   0.166666667   0.166666667
         10   0.333333333  -0.166666667   0.166666667
         11  -0.333333333  -0.166666667  -0.166666667
         12  -0.166666667  -0.166666667  -0.333333333
         13  -0.166666667   0.333333333   0.166666667
         14  -0.166666667  -0.333333333  -0.166666667
         15  -0.166666667   0.166666667   0.333333333
         16   0.166666667  -0.166666667   0.333333333
         17   0.166666667  -0.333333333  -0.166666667
         18  -0.333333333   0.166666667  -0.166666667
         19   0.333333333   0.166666667   0.166666667
         20  -0.333333333  -0.166666667   0.166666667
         21   0.333333333  -0.166666667  -0.166666667
         22   0.166666667  -0.166666667  -0.333333333
         23   0.166666667   0.166666667   0.333333333
         24   0.166666667   0.333333333   0.166666667

     Diagonalizing the dynamical matrix

     q = (   -0.166666667  -0.166666667   0.333333333 ) 

 **************************************************************************
     freq (    1) =       1.442167 [THz] =      48.105499 [cm-1]
     freq (    2) =       2.287407 [THz] =      76.299683 [cm-1]
     freq (    3) =       3.653410 [THz] =     121.864655 [cm-1]
 **************************************************************************

     Mode symmetry, C_s (m)     point group:

     freq (  1 -  1) =         48.1  [cm-1]   --> A'                 
     freq (  2 -  2) =         76.3  [cm-1]   --> A''                
     freq (  3 -  3) =        121.9  [cm-1]   --> A'                 

     Calculation of q =   -0.1666667   0.6666667  -0.5000000

   Info: using nr1, nr2, nr3 values from input

   Info: using nr1, nr2, nr3 values from input

     Parallelization info
     --------------------
     sticks:   dense  smooth     PW     G-vecs:    dense   smooth      PW
     Min          64      32     12                 1317      463     108
     Max          65      33     13                 1322      464     110
     Sum        1035     523    201                21097     7419    1745



     bravais-lattice index     =            3
     lattice parameter (alat)  =       7.5900  a.u.
     unit-cell volume          =     218.6227 (a.u.)^3
     number of atoms/cell      =            1
     number of atomic types    =            1
     number of electrons       =         9.00
     number of Kohn-Sham states=            9
     kinetic-energy cutoff     =      40.0000  Ry
     charge density cutoff     =     320.0000  Ry
     Exchange-correlation      = SLA  PW   PBE  PBE ( 1  4  3  4 0 0)

     celldm(1)=   7.590000  celldm(2)=   0.000000  celldm(3)=   0.000000
     celldm(4)=   0.000000  celldm(5)=   0.000000  celldm(6)=   0.000000

     crystal axes: (cart. coord. in units of alat)
               a(1) = (   0.500000   0.500000   0.500000 )  
               a(2) = (  -0.500000   0.500000   0.500000 )  
               a(3) = (  -0.500000  -0.500000   0.500000 )  

     reciprocal axes: (cart. coord. in units 2 pi/alat)
               b(1) = (  1.000000  0.000000  1.000000 )  
               b(2) = ( -1.000000  1.000000  0.000000 )  
               b(3) = (  0.000000 -1.000000  1.000000 )  


     PseudoPot. # 1 for Na read from file:
     /home/s1333534/quantum_espresso/qe-6.1/pseudo/Na_pbe_v1.uspp.F.UPF
     MD5 check sum: 76a99c7e9422403d3e93cbc85ab7bccb
     Pseudo is Ultrasoft, Zval =  9.0
     Generated by new atomic code, or converted to UPF format
     Using radial grid of  819 points,  5 beta functions with: 
                l(1) =   0
                l(2) =   0
                l(3) =   1
                l(4) =   1
                l(5) =   2
     Q(r) pseudized with  8 coefficients,  rinner =    1.250   1.250   1.250
                                                       1.250   1.250

     atomic species   valence    mass     pseudopotential
        Na             9.00    22.99000     Na( 1.00)

     48 Sym. Ops., with inversion, found



   Cartesian axes

     site n.     atom                  positions (alat units)
         1           Na  tau(   1) = (   0.0000000   0.0000000   0.0000000  )

     number of k points= 16000  Marzari-Vanderbilt smearing, width (Ry)=  0.0200

     Number of k-points >= 100: set verbosity='high' to print them.

     Dense  grid:    21097 G-vectors     FFT dimensions: (  40,  40,  40)

     Smooth grid:     7419 G-vectors     FFT dimensions: (  27,  27,  27)

     Estimated max dynamical RAM per process >       0.72MB

     Estimated total allocated dynamical RAM >      46.36MB

     The potential is recalculated from file :
     ./_ph0/na.bcc.save/charge-density.dat

     Starting wfc are    5 atomic +    4 random wfc

     Band Structure Calculation
     Davidson diagonalization with overlap

     ethr =  1.11E-10,  avg # of iterations = 20.0

     total cpu time spent up to now is      612.8 secs

     End of band structure calculation

     Number of k-points >= 100: set verbosity='high' to print the bands.

     the Fermi energy is     2.2092 ev

     Writing output data file na.bcc.save

                                                                                

     bravais-lattice index     =            3
     lattice parameter (alat)  =       7.5900  a.u.
     unit-cell volume          =     218.6227 (a.u.)^3
     number of atoms/cell      =            1
     number of atomic types    =            1
     kinetic-energy cut-off    =      40.0000  Ry
     charge density cut-off    =     320.0000  Ry
     convergence threshold     =      1.0E-16
     beta                      =       0.7000
     number of iterations used =            4
     Exchange-correlation      = SLA  PW   PBE  PBE ( 1  4  3  4 0 0)


     celldm(1)=    7.59000  celldm(2)=    0.00000  celldm(3)=    0.00000
     celldm(4)=    0.00000  celldm(5)=    0.00000  celldm(6)=    0.00000

     crystal axes: (cart. coord. in units of alat)
               a(1) = (  0.5000  0.5000  0.5000 )  
               a(2) = ( -0.5000  0.5000  0.5000 )  
               a(3) = ( -0.5000 -0.5000  0.5000 )  

     reciprocal axes: (cart. coord. in units 2 pi/alat)
               b(1) = (  1.0000  0.0000  1.0000 )  
               b(2) = ( -1.0000  1.0000  0.0000 )  
               b(3) = (  0.0000 -1.0000  1.0000 )  


     Atoms inside the unit cell: 

     Cartesian axes

     site n.  atom      mass           positions (alat units)
        1     Na  22.9900   tau(    1) = (    0.00000    0.00000    0.00000  )

     Computing dynamical matrix for 
                    q = (  -0.1666667   0.6666667  -0.5000000 )

     No symmetry!

     G cutoff =  466.9537  (   1322 G-vectors)     FFT grid: ( 40, 40, 40)
     G cutoff =  233.4768  (    463 G-vectors)  smooth grid: ( 27, 27, 27)

     number of k points= 16000  Marzari-Vanderbilt smearing, width (Ry)=  0.0200

     PseudoPot. # 1 for Na read from file:
     /home/s1333534/quantum_espresso/qe-6.1/pseudo/Na_pbe_v1.uspp.F.UPF
     MD5 check sum: 76a99c7e9422403d3e93cbc85ab7bccb
     Pseudo is Ultrasoft, Zval =  9.0
     Generated by new atomic code, or converted to UPF format
     Using radial grid of  819 points,  5 beta functions with: 
                l(1) =   0
                l(2) =   0
                l(3) =   1
                l(4) =   1
                l(5) =   2
     Q(r) pseudized with  8 coefficients,  rinner =    1.250   1.250   1.250
                                                       1.250   1.250

     Mode symmetry, C_1 (1)     point group:


     Atomic displacements:
     There are   3 irreducible representations

     Representation     1      1 modes -A  To be done

     Representation     2      1 modes -A  To be done

     Representation     3      1 modes -A  To be done



     Alpha used in Ewald sum =   2.8000
     PHONON       : 28m 6.93s CPU    30m28.71s WALL



     Representation #  1 mode #   1

     Self-consistent Calculation

      iter #   1 total cpu time :  1861.0 secs   av.it.:   5.7
      thresh= 1.000E-02 alpha_mix =  0.700 |ddv_scf|^2 =  1.292E-05

      iter #   2 total cpu time :  1898.2 secs   av.it.:   8.1
      thresh= 3.595E-04 alpha_mix =  0.700 |ddv_scf|^2 =  1.561E-06

      iter #   3 total cpu time :  1933.8 secs   av.it.:   7.6
      thresh= 1.249E-04 alpha_mix =  0.700 |ddv_scf|^2 =  6.992E-07

      iter #   4 total cpu time :  1968.2 secs   av.it.:   7.3
      thresh= 8.362E-05 alpha_mix =  0.700 |ddv_scf|^2 =  4.540E-09

      iter #   5 total cpu time :  2005.7 secs   av.it.:   7.9
      thresh= 6.738E-06 alpha_mix =  0.700 |ddv_scf|^2 =  3.698E-10

      iter #   6 total cpu time :  2041.6 secs   av.it.:   7.9
      thresh= 1.923E-06 alpha_mix =  0.700 |ddv_scf|^2 =  4.306E-12

      iter #   7 total cpu time :  2079.7 secs   av.it.:   8.4
      thresh= 2.075E-07 alpha_mix =  0.700 |ddv_scf|^2 =  2.632E-13

      iter #   8 total cpu time :  2117.9 secs   av.it.:   8.4
      thresh= 5.131E-08 alpha_mix =  0.700 |ddv_scf|^2 =  1.315E-14

      iter #   9 total cpu time :  2156.1 secs   av.it.:   8.4
      thresh= 1.147E-08 alpha_mix =  0.700 |ddv_scf|^2 =  2.636E-16

      iter #  10 total cpu time :  2191.6 secs   av.it.:   7.6
      thresh= 1.624E-09 alpha_mix =  0.700 |ddv_scf|^2 =  1.344E-16

      iter #  11 total cpu time :  2226.3 secs   av.it.:   7.3
      thresh= 1.159E-09 alpha_mix =  0.700 |ddv_scf|^2 =  2.125E-18

     End of self-consistent calculation

     Convergence has been achieved 


     Representation #  2 mode #   2

     Self-consistent Calculation

      iter #   1 total cpu time :  2259.6 secs   av.it.:   5.8
      thresh= 1.000E-02 alpha_mix =  0.700 |ddv_scf|^2 =  5.437E-05

      iter #   2 total cpu time :  2295.0 secs   av.it.:   7.6
      thresh= 7.373E-04 alpha_mix =  0.700 |ddv_scf|^2 =  4.673E-05

      iter #   3 total cpu time :  2327.4 secs   av.it.:   7.0
      thresh= 6.836E-04 alpha_mix =  0.700 |ddv_scf|^2 =  9.314E-08

      iter #   4 total cpu time :  2364.4 secs   av.it.:   8.3
      thresh= 3.052E-05 alpha_mix =  0.700 |ddv_scf|^2 =  3.898E-09

      iter #   5 total cpu time :  2403.8 secs   av.it.:   8.3
      thresh= 6.244E-06 alpha_mix =  0.700 |ddv_scf|^2 =  3.205E-10

      iter #   6 total cpu time :  2441.1 secs   av.it.:   8.3
      thresh= 1.790E-06 alpha_mix =  0.700 |ddv_scf|^2 =  9.528E-12

      iter #   7 total cpu time :  2477.0 secs   av.it.:   7.8
      thresh= 3.087E-07 alpha_mix =  0.700 |ddv_scf|^2 =  5.812E-13

      iter #   8 total cpu time :  2513.7 secs   av.it.:   7.9
      thresh= 7.624E-08 alpha_mix =  0.700 |ddv_scf|^2 =  1.901E-14

      iter #   9 total cpu time :  2548.4 secs   av.it.:   7.5
      thresh= 1.379E-08 alpha_mix =  0.700 |ddv_scf|^2 =  1.444E-15

      iter #  10 total cpu time :  2583.4 secs   av.it.:   7.5
      thresh= 3.800E-09 alpha_mix =  0.700 |ddv_scf|^2 =  3.403E-17

     End of self-consistent calculation

     Convergence has been achieved 


     Representation #  3 mode #   3

     Self-consistent Calculation

      iter #   1 total cpu time :  2616.2 secs   av.it.:   5.8
      thresh= 1.000E-02 alpha_mix =  0.700 |ddv_scf|^2 =  6.081E-05

      iter #   2 total cpu time :  2651.2 secs   av.it.:   7.5
      thresh= 7.798E-04 alpha_mix =  0.700 |ddv_scf|^2 =  4.700E-05

      iter #   3 total cpu time :  2683.7 secs   av.it.:   6.9
      thresh= 6.855E-04 alpha_mix =  0.700 |ddv_scf|^2 =  3.236E-07

      iter #   4 total cpu time :  2719.0 secs   av.it.:   7.8
      thresh= 5.689E-05 alpha_mix =  0.700 |ddv_scf|^2 =  7.718E-09

      iter #   5 total cpu time :  2756.1 secs   av.it.:   8.3
      thresh= 8.785E-06 alpha_mix =  0.700 |ddv_scf|^2 =  2.156E-10

      iter #   6 total cpu time :  2793.0 secs   av.it.:   8.3
      thresh= 1.468E-06 alpha_mix =  0.700 |ddv_scf|^2 =  1.639E-11

      iter #   7 total cpu time :  2829.9 secs   av.it.:   8.3
      thresh= 4.049E-07 alpha_mix =  0.700 |ddv_scf|^2 =  8.596E-13

      iter #   8 total cpu time :  2868.3 secs   av.it.:   8.4
      thresh= 9.271E-08 alpha_mix =  0.700 |ddv_scf|^2 =  5.411E-14

      iter #   9 total cpu time :  2903.1 secs   av.it.:   7.5
      thresh= 2.326E-08 alpha_mix =  0.700 |ddv_scf|^2 =  3.914E-15

      iter #  10 total cpu time :  2939.6 secs   av.it.:   7.7
      thresh= 6.256E-09 alpha_mix =  0.700 |ddv_scf|^2 =  6.005E-17

     End of self-consistent calculation

     Convergence has been achieved 

     Number of q in the star =   48
     List of q in the star:
          1  -0.166666667   0.666666667  -0.500000000
          2   0.666666667  -0.166666667  -0.500000000
          3  -0.166666667   0.500000000  -0.666666667
          4   0.166666667   0.500000000  -0.666666667
          5  -0.166666667  -0.500000000   0.666666667
          6   0.166666667  -0.500000000   0.666666667
          7   0.166666667  -0.666666667   0.500000000
          8  -0.166666667  -0.666666667   0.500000000
          9  -0.500000000  -0.666666667  -0.166666667
         10   0.500000000  -0.666666667   0.166666667
         11  -0.500000000   0.666666667   0.166666667
         12   0.500000000   0.666666667  -0.166666667
         13   0.666666667  -0.166666667   0.500000000
         14   0.666666667  -0.500000000  -0.166666667
         15  -0.166666667  -0.500000000  -0.666666667
         16  -0.166666667   0.500000000   0.666666667
         17   0.666666667   0.166666667  -0.500000000
         18   0.166666667   0.666666667  -0.500000000
         19   0.666666667   0.500000000   0.166666667
         20  -0.666666667   0.500000000  -0.166666667
         21   0.500000000   0.166666667   0.666666667
         22  -0.500000000   0.166666667  -0.666666667
         23   0.500000000   0.666666667   0.166666667
         24   0.500000000  -0.166666667  -0.666666667
         25  -0.666666667   0.166666667   0.500000000
         26  -0.166666667   0.666666667   0.500000000
         27  -0.500000000  -0.166666667   0.666666667
         28   0.166666667   0.666666667   0.500000000
         29  -0.500000000   0.666666667  -0.166666667
         30  -0.666666667  -0.166666667  -0.500000000
         31  -0.666666667  -0.166666667   0.500000000
         32   0.666666667   0.166666667   0.500000000
         33   0.166666667  -0.666666667  -0.500000000
         34  -0.666666667   0.166666667  -0.500000000
         35   0.500000000  -0.666666667  -0.166666667
         36  -0.500000000  -0.666666667   0.166666667
         37  -0.166666667  -0.666666667  -0.500000000
         38  -0.666666667  -0.500000000   0.166666667
         39   0.166666667   0.500000000   0.666666667
         40   0.166666667  -0.500000000  -0.666666667
         41  -0.666666667   0.500000000   0.166666667
         42   0.666666667   0.500000000  -0.166666667
         43  -0.666666667  -0.500000000  -0.166666667
         44   0.666666667  -0.500000000   0.166666667
         45   0.500000000   0.166666667  -0.666666667
         46   0.500000000  -0.166666667   0.666666667
         47  -0.500000000  -0.166666667  -0.666666667
         48  -0.500000000   0.166666667   0.666666667

     Diagonalizing the dynamical matrix

     q = (   -0.166666667   0.666666667  -0.500000000 ) 

 **************************************************************************
     freq (    1) =       1.740593 [THz] =      58.059937 [cm-1]
     freq (    2) =       3.176168 [THz] =     105.945577 [cm-1]
     freq (    3) =       4.491352 [THz] =     149.815384 [cm-1]
 **************************************************************************

     Mode symmetry, C_1 (1)     point group:

     freq (  1 -  1) =         58.1  [cm-1]   --> A                  
     freq (  2 -  2) =        105.9  [cm-1]   --> A                  
     freq (  3 -  3) =        149.8  [cm-1]   --> A                  

     Calculation of q =   -0.3333333   0.6666667  -0.3333333

   Info: using nr1, nr2, nr3 values from input

   Info: using nr1, nr2, nr3 values from input

     Parallelization info
     --------------------
     sticks:   dense  smooth     PW     G-vecs:    dense   smooth      PW
     Min          64      32     12                 1317      463     108
     Max          65      33     13                 1322      464     110
     Sum        1035     523    201                21097     7419    1745



     bravais-lattice index     =            3
     lattice parameter (alat)  =       7.5900  a.u.
     unit-cell volume          =     218.6227 (a.u.)^3
     number of atoms/cell      =            1
     number of atomic types    =            1
     number of electrons       =         9.00
     number of Kohn-Sham states=            9
     kinetic-energy cutoff     =      40.0000  Ry
     charge density cutoff     =     320.0000  Ry
     Exchange-correlation      = SLA  PW   PBE  PBE ( 1  4  3  4 0 0)

     celldm(1)=   7.590000  celldm(2)=   0.000000  celldm(3)=   0.000000
     celldm(4)=   0.000000  celldm(5)=   0.000000  celldm(6)=   0.000000

     crystal axes: (cart. coord. in units of alat)
               a(1) = (   0.500000   0.500000   0.500000 )  
               a(2) = (  -0.500000   0.500000   0.500000 )  
               a(3) = (  -0.500000  -0.500000   0.500000 )  

     reciprocal axes: (cart. coord. in units 2 pi/alat)
               b(1) = (  1.000000  0.000000  1.000000 )  
               b(2) = ( -1.000000  1.000000  0.000000 )  
               b(3) = (  0.000000 -1.000000  1.000000 )  


     PseudoPot. # 1 for Na read from file:
     /home/s1333534/quantum_espresso/qe-6.1/pseudo/Na_pbe_v1.uspp.F.UPF
     MD5 check sum: 76a99c7e9422403d3e93cbc85ab7bccb
     Pseudo is Ultrasoft, Zval =  9.0
     Generated by new atomic code, or converted to UPF format
     Using radial grid of  819 points,  5 beta functions with: 
                l(1) =   0
                l(2) =   0
                l(3) =   1
                l(4) =   1
                l(5) =   2
     Q(r) pseudized with  8 coefficients,  rinner =    1.250   1.250   1.250
                                                       1.250   1.250

     atomic species   valence    mass     pseudopotential
        Na             9.00    22.99000     Na( 1.00)

     48 Sym. Ops., with inversion, found



   Cartesian axes

     site n.     atom                  positions (alat units)
         1           Na  tau(   1) = (   0.0000000   0.0000000   0.0000000  )

     number of k points=  3080  Marzari-Vanderbilt smearing, width (Ry)=  0.0200

     Number of k-points >= 100: set verbosity='high' to print them.

     Dense  grid:    21097 G-vectors     FFT dimensions: (  40,  40,  40)

     Smooth grid:     7419 G-vectors     FFT dimensions: (  27,  27,  27)

     Estimated max dynamical RAM per process >       0.72MB

     Estimated total allocated dynamical RAM >      46.36MB

     The potential is recalculated from file :
     ./_ph0/na.bcc.save/charge-density.dat

     Starting wfc are    5 atomic +    4 random wfc

     Band Structure Calculation
     Davidson diagonalization with overlap

     ethr =  1.11E-10,  avg # of iterations = 20.3

     total cpu time spent up to now is      708.9 secs

     End of band structure calculation

     Number of k-points >= 100: set verbosity='high' to print the bands.

     the Fermi energy is     2.2092 ev

     Writing output data file na.bcc.save

                                                                                

     bravais-lattice index     =            3
     lattice parameter (alat)  =       7.5900  a.u.
     unit-cell volume          =     218.6227 (a.u.)^3
     number of atoms/cell      =            1
     number of atomic types    =            1
     kinetic-energy cut-off    =      40.0000  Ry
     charge density cut-off    =     320.0000  Ry
     convergence threshold     =      1.0E-16
     beta                      =       0.7000
     number of iterations used =            4
     Exchange-correlation      = SLA  PW   PBE  PBE ( 1  4  3  4 0 0)


     celldm(1)=    7.59000  celldm(2)=    0.00000  celldm(3)=    0.00000
     celldm(4)=    0.00000  celldm(5)=    0.00000  celldm(6)=    0.00000

     crystal axes: (cart. coord. in units of alat)
               a(1) = (  0.5000  0.5000  0.5000 )  
               a(2) = ( -0.5000  0.5000  0.5000 )  
               a(3) = ( -0.5000 -0.5000  0.5000 )  

     reciprocal axes: (cart. coord. in units 2 pi/alat)
               b(1) = (  1.0000  0.0000  1.0000 )  
               b(2) = ( -1.0000  1.0000  0.0000 )  
               b(3) = (  0.0000 -1.0000  1.0000 )  


     Atoms inside the unit cell: 

     Cartesian axes

     site n.  atom      mass           positions (alat units)
        1     Na  22.9900   tau(    1) = (    0.00000    0.00000    0.00000  )

     Computing dynamical matrix for 
                    q = (  -0.3333333   0.6666667  -0.3333333 )

      6 Sym.Ops. (no q -> -q+G )


     G cutoff =  466.9537  (   1322 G-vectors)     FFT grid: ( 40, 40, 40)
     G cutoff =  233.4768  (    463 G-vectors)  smooth grid: ( 27, 27, 27)

     number of k points=  3080  Marzari-Vanderbilt smearing, width (Ry)=  0.0200

     PseudoPot. # 1 for Na read from file:
     /home/s1333534/quantum_espresso/qe-6.1/pseudo/Na_pbe_v1.uspp.F.UPF
     MD5 check sum: 76a99c7e9422403d3e93cbc85ab7bccb
     Pseudo is Ultrasoft, Zval =  9.0
     Generated by new atomic code, or converted to UPF format
     Using radial grid of  819 points,  5 beta functions with: 
                l(1) =   0
                l(2) =   0
                l(3) =   1
                l(4) =   1
                l(5) =   2
     Q(r) pseudized with  8 coefficients,  rinner =    1.250   1.250   1.250
                                                       1.250   1.250

     Mode symmetry, C_3v (3m)   point group:


     Atomic displacements:
     There are   2 irreducible representations

     Representation     1      1 modes -A_1  L_1  To be done

     Representation     2      2 modes -E    L_3  To be done



     Alpha used in Ewald sum =   2.8000
     PHONON       : 46m 0.19s CPU    50m 2.68s WALL



     Representation #  1 mode #   1

     Self-consistent Calculation

      iter #   1 total cpu time :  3008.6 secs   av.it.:   5.4
      thresh= 1.000E-02 alpha_mix =  0.700 |ddv_scf|^2 =  1.102E-05

      iter #   2 total cpu time :  3015.4 secs   av.it.:   7.8
      thresh= 3.320E-04 alpha_mix =  0.700 |ddv_scf|^2 =  1.739E-07

      iter #   3 total cpu time :  3022.6 secs   av.it.:   8.0
      thresh= 4.170E-05 alpha_mix =  0.700 |ddv_scf|^2 =  7.553E-09

      iter #   4 total cpu time :  3029.3 secs   av.it.:   7.6
      thresh= 8.691E-06 alpha_mix =  0.700 |ddv_scf|^2 =  1.218E-10

      iter #   5 total cpu time :  3035.9 secs   av.it.:   7.4
      thresh= 1.104E-06 alpha_mix =  0.700 |ddv_scf|^2 =  3.736E-12

      iter #   6 total cpu time :  3043.3 secs   av.it.:   8.0
      thresh= 1.933E-07 alpha_mix =  0.700 |ddv_scf|^2 =  1.098E-13

      iter #   7 total cpu time :  3050.6 secs   av.it.:   8.3
      thresh= 3.314E-08 alpha_mix =  0.700 |ddv_scf|^2 =  5.161E-15

      iter #   8 total cpu time :  3058.1 secs   av.it.:   8.0
      thresh= 7.184E-09 alpha_mix =  0.700 |ddv_scf|^2 =  6.115E-17

     End of self-consistent calculation

     Convergence has been achieved 


     Representation #  2 modes #   2  3

     Self-consistent Calculation

      iter #   1 total cpu time :  3070.5 secs   av.it.:   5.6
      thresh= 1.000E-02 alpha_mix =  0.700 |ddv_scf|^2 =  8.597E-06

      iter #   2 total cpu time :  3086.2 secs   av.it.:   8.2
      thresh= 2.932E-04 alpha_mix =  0.700 |ddv_scf|^2 =  1.014E-06

      iter #   3 total cpu time :  3099.9 secs   av.it.:   7.7
      thresh= 1.007E-04 alpha_mix =  0.700 |ddv_scf|^2 =  8.393E-09

      iter #   4 total cpu time :  3114.4 secs   av.it.:   8.6
      thresh= 9.161E-06 alpha_mix =  0.700 |ddv_scf|^2 =  6.508E-11

      iter #   5 total cpu time :  3128.0 secs   av.it.:   7.9
      thresh= 8.067E-07 alpha_mix =  0.700 |ddv_scf|^2 =  7.323E-14

      iter #   6 total cpu time :  3141.7 secs   av.it.:   8.1
      thresh= 2.706E-08 alpha_mix =  0.700 |ddv_scf|^2 =  4.502E-15

      iter #   7 total cpu time :  3155.5 secs   av.it.:   8.2
      thresh= 6.709E-09 alpha_mix =  0.700 |ddv_scf|^2 =  1.411E-17

     End of self-consistent calculation

     Convergence has been achieved 

     Number of q in the star =    8
     List of q in the star:
          1  -0.333333333   0.666666667  -0.333333333
          2   0.333333333  -0.666666667   0.333333333
          3  -0.333333333  -0.666666667   0.333333333
          4  -0.333333333  -0.666666667  -0.333333333
          5  -0.333333333   0.666666667   0.333333333
          6   0.333333333   0.666666667  -0.333333333
          7  -0.666666667   0.333333333  -0.333333333
          8   0.333333333   0.666666667   0.333333333

     Diagonalizing the dynamical matrix

     q = (   -0.333333333   0.666666667  -0.333333333 ) 

 **************************************************************************
     freq (    1) =       2.056330 [THz] =      68.591793 [cm-1]
     freq (    2) =       4.104436 [THz] =     136.909258 [cm-1]
     freq (    3) =       4.104436 [THz] =     136.909258 [cm-1]
 **************************************************************************

     Mode symmetry, C_3v (3m)   point group:

     freq (  1 -  1) =         68.6  [cm-1]   --> A_1  L_1           
     freq (  2 -  3) =        136.9  [cm-1]   --> E    L_3           

     Calculation of q =    0.0000000   0.0000000   0.3333333

   Info: using nr1, nr2, nr3 values from input

   Info: using nr1, nr2, nr3 values from input

     Parallelization info
     --------------------
     sticks:   dense  smooth     PW     G-vecs:    dense   smooth      PW
     Min          64      32     10                 1317      463      90
     Max          65      33     11                 1322      464      94
     Sum        1035     523    173                21097     7419    1481



     bravais-lattice index     =            3
     lattice parameter (alat)  =       7.5900  a.u.
     unit-cell volume          =     218.6227 (a.u.)^3
     number of atoms/cell      =            1
     number of atomic types    =            1
     number of electrons       =         9.00
     number of Kohn-Sham states=            9
     kinetic-energy cutoff     =      40.0000  Ry
     charge density cutoff     =     320.0000  Ry
     Exchange-correlation      = SLA  PW   PBE  PBE ( 1  4  3  4 0 0)

     celldm(1)=   7.590000  celldm(2)=   0.000000  celldm(3)=   0.000000
     celldm(4)=   0.000000  celldm(5)=   0.000000  celldm(6)=   0.000000

     crystal axes: (cart. coord. in units of alat)
               a(1) = (   0.500000   0.500000   0.500000 )  
               a(2) = (  -0.500000   0.500000   0.500000 )  
               a(3) = (  -0.500000  -0.500000   0.500000 )  

     reciprocal axes: (cart. coord. in units 2 pi/alat)
[...]
     G cutoff =  233.4768  (    463 G-vectors)  smooth grid: ( 27, 27, 27)

     number of k points=  4400  Marzari-Vanderbilt smearing, width (Ry)=  0.0200

     PseudoPot. # 1 for Na read from file:
     /home/s1333534/quantum_espresso/qe-6.1/pseudo/Na_pbe_v1.uspp.F.UPF
     MD5 check sum: 76a99c7e9422403d3e93cbc85ab7bccb
     Pseudo is Ultrasoft, Zval =  9.0
     Generated by new atomic code, or converted to UPF format
     Using radial grid of  819 points,  5 beta functions with: 
                l(1) =   0
                l(2) =   0
                l(3) =   1
                l(4) =   1
                l(5) =   2
     Q(r) pseudized with  8 coefficients,  rinner =    1.250   1.250   1.250
                                                       1.250   1.250

     Mode symmetry, C_2v (mm2)  point group:


     Atomic displacements:
     There are   3 irreducible representations

     Representation     1      1 modes -A_1  D_1  S_1  To be done

     Representation     2      1 modes -B_1  D_3  S_3  To be done

     Representation     3      1 modes -B_2  D_4  S_4  To be done



     Alpha used in Ewald sum =   2.8000
     PHONON       :     1h28m CPU        1h36m WALL



     Representation #  1 mode #   1

     Self-consistent Calculation

      iter #   1 total cpu time :  5790.2 secs   av.it.:   5.6
      thresh= 1.000E-02 alpha_mix =  0.700 |ddv_scf|^2 =  1.943E-05

      iter #   2 total cpu time :  5800.4 secs   av.it.:   7.9
      thresh= 4.408E-04 alpha_mix =  0.700 |ddv_scf|^2 =  8.906E-07

      iter #   3 total cpu time :  5809.9 secs   av.it.:   7.7
      thresh= 9.437E-05 alpha_mix =  0.700 |ddv_scf|^2 =  2.102E-08

      iter #   4 total cpu time :  5820.0 secs   av.it.:   8.2
      thresh= 1.450E-05 alpha_mix =  0.700 |ddv_scf|^2 =  1.342E-09

      iter #   5 total cpu time :  5830.4 secs   av.it.:   8.1
      thresh= 3.664E-06 alpha_mix =  0.700 |ddv_scf|^2 =  1.101E-10

      iter #   6 total cpu time :  5840.3 secs   av.it.:   7.9
      thresh= 1.049E-06 alpha_mix =  0.700 |ddv_scf|^2 =  6.295E-13

      iter #   7 total cpu time :  5850.4 secs   av.it.:   8.0
      thresh= 7.934E-08 alpha_mix =  0.700 |ddv_scf|^2 =  4.666E-14

      iter #   8 total cpu time :  5860.7 secs   av.it.:   8.0
      thresh= 2.160E-08 alpha_mix =  0.700 |ddv_scf|^2 =  6.104E-17

     End of self-consistent calculation

     Convergence has been achieved 


     Representation #  2 mode #   2

     Self-consistent Calculation

      iter #   1 total cpu time :  5869.6 secs   av.it.:   5.5
      thresh= 1.000E-02 alpha_mix =  0.700 |ddv_scf|^2 =  1.673E-05

      iter #   2 total cpu time :  5879.4 secs   av.it.:   7.7
      thresh= 4.090E-04 alpha_mix =  0.700 |ddv_scf|^2 =  2.124E-07

      iter #   3 total cpu time :  5890.1 secs   av.it.:   7.6
      thresh= 4.609E-05 alpha_mix =  0.700 |ddv_scf|^2 =  2.035E-08

      iter #   4 total cpu time :  5899.8 secs   av.it.:   7.7
      thresh= 1.427E-05 alpha_mix =  0.700 |ddv_scf|^2 =  8.646E-11

      iter #   5 total cpu time :  5909.4 secs   av.it.:   7.6
      thresh= 9.299E-07 alpha_mix =  0.700 |ddv_scf|^2 =  4.124E-14

      iter #   6 total cpu time :  5918.6 secs   av.it.:   7.1
      thresh= 2.031E-08 alpha_mix =  0.700 |ddv_scf|^2 =  2.879E-15

      iter #   7 total cpu time :  5927.8 secs   av.it.:   7.4
      thresh= 5.366E-09 alpha_mix =  0.700 |ddv_scf|^2 =  5.372E-18

     End of self-consistent calculation

     Convergence has been achieved 


     Representation #  3 mode #   3

     Self-consistent Calculation

      iter #   1 total cpu time :  5936.7 secs   av.it.:   5.7
      thresh= 1.000E-02 alpha_mix =  0.700 |ddv_scf|^2 =  2.847E-05

      iter #   2 total cpu time :  5946.4 secs   av.it.:   7.7
      thresh= 5.336E-04 alpha_mix =  0.700 |ddv_scf|^2 =  2.057E-06

      iter #   3 total cpu time :  5956.0 secs   av.it.:   7.3
      thresh= 1.434E-04 alpha_mix =  0.700 |ddv_scf|^2 =  2.946E-08

      iter #   4 total cpu time :  5965.8 secs   av.it.:   7.8
      thresh= 1.716E-05 alpha_mix =  0.700 |ddv_scf|^2 =  8.717E-10

      iter #   5 total cpu time :  5975.0 secs   av.it.:   7.4
      thresh= 2.953E-06 alpha_mix =  0.700 |ddv_scf|^2 =  1.512E-12

      iter #   6 total cpu time :  5985.5 secs   av.it.:   8.0
      thresh= 1.230E-07 alpha_mix =  0.700 |ddv_scf|^2 =  1.032E-14

      iter #   7 total cpu time :  5995.3 secs   av.it.:   7.8
      thresh= 1.016E-08 alpha_mix =  0.700 |ddv_scf|^2 =  1.785E-16

      iter #   8 total cpu time :  6004.7 secs   av.it.:   7.5
      thresh= 1.336E-09 alpha_mix =  0.700 |ddv_scf|^2 =  2.694E-19

     End of self-consistent calculation

     Convergence has been achieved 

     Number of q in the star =   12
     List of q in the star:
          1   0.000000000   0.833333333  -0.166666667
          2   0.000000000  -0.833333333  -0.166666667
          3   0.833333333   0.000000000  -0.166666667
          4  -0.833333333   0.000000000  -0.166666667
          5  -0.166666667  -0.833333333   0.000000000
          6   0.166666667  -0.833333333   0.000000000
          7  -0.166666667   0.833333333   0.000000000
          8   0.166666667   0.833333333   0.000000000
          9   0.833333333   0.000000000   0.166666667
         10   0.000000000   0.166666667  -0.833333333
         11   0.000000000  -0.166666667  -0.833333333
         12   0.166666667   0.000000000  -0.833333333

     Diagonalizing the dynamical matrix

     q = (    0.000000000   0.833333333  -0.166666667 ) 

 **************************************************************************
     freq (    1) =       3.707163 [THz] =     123.657663 [cm-1]
     freq (    2) =       4.030918 [THz] =     134.456960 [cm-1]
     freq (    3) =       4.427041 [THz] =     147.670199 [cm-1]
 **************************************************************************

     Mode symmetry, C_2v (mm2)  point group:

     freq (  1 -  1) =        123.7  [cm-1]   --> A_1  D_1  S_1      
     freq (  2 -  2) =        134.5  [cm-1]   --> B_1  D_3  S_3      
     freq (  3 -  3) =        147.7  [cm-1]   --> B_2  D_4  S_4      

     Calculation of q =    0.0000000   0.0000000  -1.0000000

   Info: using nr1, nr2, nr3 values from input

   Info: using nr1, nr2, nr3 values from input

     Parallelization info
     --------------------
     sticks:   dense  smooth     PW     G-vecs:    dense   smooth      PW
     Min          64      32     12                 1317      463     107
     Max          65      33     13                 1322      464     109
     Sum        1035     523    197                21097     7419    1721



     bravais-lattice index     =            3
     lattice parameter (alat)  =       7.5900  a.u.
     unit-cell volume          =     218.6227 (a.u.)^3
     number of atoms/cell      =            1
     number of atomic types    =            1
     number of electrons       =         9.00
     number of Kohn-Sham states=            9
     kinetic-energy cutoff     =      40.0000  Ry
     charge density cutoff     =     320.0000  Ry
     Exchange-correlation      = SLA  PW   PBE  PBE ( 1  4  3  4 0 0)

     celldm(1)=   7.590000  celldm(2)=   0.000000  celldm(3)=   0.000000
     celldm(4)=   0.000000  celldm(5)=   0.000000  celldm(6)=   0.000000

     crystal axes: (cart. coord. in units of alat)
               a(1) = (   0.500000   0.500000   0.500000 )  
               a(2) = (  -0.500000   0.500000   0.500000 )  
               a(3) = (  -0.500000  -0.500000   0.500000 )  

     reciprocal axes: (cart. coord. in units 2 pi/alat)
               b(1) = (  1.000000  0.000000  1.000000 )  
               b(2) = ( -1.000000  1.000000  0.000000 )  
               b(3) = (  0.000000 -1.000000  1.000000 )  


     PseudoPot. # 1 for Na read from file:
     /home/s1333534/quantum_espresso/qe-6.1/pseudo/Na_pbe_v1.uspp.F.UPF
     MD5 check sum: 76a99c7e9422403d3e93cbc85ab7bccb
     Pseudo is Ultrasoft, Zval =  9.0
     Generated by new atomic code, or converted to UPF format
     Using radial grid of  819 points,  5 beta functions with: 
                l(1) =   0
                l(2) =   0
                l(3) =   1
                l(4) =   1
                l(5) =   2
     Q(r) pseudized with  8 coefficients,  rinner =    1.250   1.250   1.250
                                                       1.250   1.250

     atomic species   valence    mass     pseudopotential
        Na             9.00    22.99000     Na( 1.00)

     48 Sym. Ops., with inversion, found



   Cartesian axes

     site n.     atom                  positions (alat units)
         1           Na  tau(   1) = (   0.0000000   0.0000000   0.0000000  )

     number of k points=   500  Marzari-Vanderbilt smearing, width (Ry)=  0.0200

     Number of k-points >= 100: set verbosity='high' to print them.

     Dense  grid:    21097 G-vectors     FFT dimensions: (  40,  40,  40)

     Smooth grid:     7419 G-vectors     FFT dimensions: (  27,  27,  27)

     Estimated max dynamical RAM per process >       0.72MB

     Estimated total allocated dynamical RAM >      46.36MB

     The potential is recalculated from file :
     ./_ph0/na.bcc.save/charge-density.dat

     Starting wfc are    5 atomic +    4 random wfc

     Band Structure Calculation
     Davidson diagonalization with overlap

     ethr =  1.11E-10,  avg # of iterations = 20.4

     total cpu time spent up to now is     1439.0 secs

     End of band structure calculation

     Number of k-points >= 100: set verbosity='high' to print the bands.

     the Fermi energy is     2.2092 ev

     Writing output data file na.bcc.save

                                                                                

     bravais-lattice index     =            3
     lattice parameter (alat)  =       7.5900  a.u.
     unit-cell volume          =     218.6227 (a.u.)^3
     number of atoms/cell      =            1
     number of atomic types    =            1
     kinetic-energy cut-off    =      40.0000  Ry
     charge density cut-off    =     320.0000  Ry
     convergence threshold     =      1.0E-16
     beta                      =       0.7000
     number of iterations used =            4
     Exchange-correlation      = SLA  PW   PBE  PBE ( 1  4  3  4 0 0)


     celldm(1)=    7.59000  celldm(2)=    0.00000  celldm(3)=    0.00000
     celldm(4)=    0.00000  celldm(5)=    0.00000  celldm(6)=    0.00000

     crystal axes: (cart. coord. in units of alat)
               a(1) = (  0.5000  0.5000  0.5000 )  
               a(2) = ( -0.5000  0.5000  0.5000 )  
               a(3) = ( -0.5000 -0.5000  0.5000 )  

     reciprocal axes: (cart. coord. in units 2 pi/alat)
               b(1) = (  1.0000  0.0000  1.0000 )  
               b(2) = ( -1.0000  1.0000  0.0000 )  
               b(3) = (  0.0000 -1.0000  1.0000 )  


     Atoms inside the unit cell: 

     Cartesian axes

     site n.  atom      mass           positions (alat units)
        1     Na  22.9900   tau(    1) = (    0.00000    0.00000    0.00000  )

     Computing dynamical matrix for 
                    q = (   0.0000000   0.0000000  -1.0000000 )

     49 Sym.Ops. (with q -> -q+G )


     G cutoff =  466.9537  (   1322 G-vectors)     FFT grid: ( 40, 40, 40)
     G cutoff =  233.4768  (    463 G-vectors)  smooth grid: ( 27, 27, 27)

     number of k points=   500  Marzari-Vanderbilt smearing, width (Ry)=  0.0200

     PseudoPot. # 1 for Na read from file:
     /home/s1333534/quantum_espresso/qe-6.1/pseudo/Na_pbe_v1.uspp.F.UPF
     MD5 check sum: 76a99c7e9422403d3e93cbc85ab7bccb
     Pseudo is Ultrasoft, Zval =  9.0
     Generated by new atomic code, or converted to UPF format
     Using radial grid of  819 points,  5 beta functions with: 
                l(1) =   0
                l(2) =   0
                l(3) =   1
                l(4) =   1
                l(5) =   2
     Q(r) pseudized with  8 coefficients,  rinner =    1.250   1.250   1.250
                                                       1.250   1.250

     Mode symmetry, O_h (m-3m)  point group:


     Atomic displacements:
     There are   1 irreducible representations

     Representation     1      3 modes -T_1u G_15  G_4-  To be done



     Alpha used in Ewald sum =   2.8000
     PHONON       :     1h32m CPU        1h40m WALL



     Representation #  1 modes #   1  2  3

     Self-consistent Calculation

      iter #   1 total cpu time :  6019.8 secs   av.it.:   5.7
      thresh= 1.000E-02 alpha_mix =  0.700 |ddv_scf|^2 =  2.077E-06

      iter #   2 total cpu time :  6024.6 secs   av.it.:   8.5
      thresh= 1.441E-04 alpha_mix =  0.700 |ddv_scf|^2 =  3.057E-08

      iter #   3 total cpu time :  6029.6 secs   av.it.:   8.3
      thresh= 1.749E-05 alpha_mix =  0.700 |ddv_scf|^2 =  2.606E-09

      iter #   4 total cpu time :  6034.7 secs   av.it.:   8.4
      thresh= 5.105E-06 alpha_mix =  0.700 |ddv_scf|^2 =  1.026E-11

      iter #   5 total cpu time :  6039.5 secs   av.it.:   8.3
      thresh= 3.203E-07 alpha_mix =  0.700 |ddv_scf|^2 =  3.596E-15

      iter #   6 total cpu time :  6043.6 secs   av.it.:   7.3
      thresh= 5.996E-09 alpha_mix =  0.700 |ddv_scf|^2 =  2.639E-16

      iter #   7 total cpu time :  6048.0 secs   av.it.:   8.0
      thresh= 1.624E-09 alpha_mix =  0.700 |ddv_scf|^2 =  2.969E-19

     End of self-consistent calculation

     Convergence has been achieved 

     Number of q in the star =    1
     List of q in the star:
          1   0.000000000   0.000000000  -1.000000000

     Diagonalizing the dynamical matrix

     q = (    0.000000000   0.000000000  -1.000000000 ) 

 **************************************************************************
     freq (    1) =       4.331678 [THz] =     144.489214 [cm-1]
     freq (    2) =       4.331678 [THz] =     144.489214 [cm-1]
     freq (    3) =       4.331678 [THz] =     144.489214 [cm-1]
 **************************************************************************

     Mode symmetry, O_h (m-3m)  point group:

     freq (  1 -  3) =        144.5  [cm-1]   --> T_1u G_15  G_4-    

     init_run     :      2.25s CPU      2.40s WALL (      15 calls)
     electrons    :   1140.69s CPU   1205.39s WALL (      15 calls)

     Called by init_run:
     wfcinit      :      0.00s CPU      0.00s WALL (      15 calls)
     potinit      :      0.40s CPU      0.41s WALL (      15 calls)

     Called by electrons:
     c_bands      :   1140.37s CPU   1205.07s WALL (      15 calls)
     v_of_rho     :      0.17s CPU      0.18s WALL (      16 calls)
     newd         :      0.14s CPU      0.15s WALL (      16 calls)

     Called by c_bands:
     init_us_2    :     22.97s CPU     24.94s WALL (  334389 calls)
     cegterg      :    875.65s CPU    933.13s WALL (   25265 calls)

     Called by sum_band:

     Called by *egterg:
     h_psi        :   3215.22s CPU   3478.96s WALL ( 3089288 calls)
     s_psi        :     89.67s CPU     98.74s WALL ( 6007297 calls)
     g_psi        :      2.72s CPU      2.95s WALL (  386919 calls)
     cdiaghg      :    246.97s CPU    262.71s WALL (  406181 calls)

     Called by h_psi:
     h_psi:pot    :   3193.01s CPU   3454.36s WALL ( 3089288 calls)
     h_psi:calbec :    188.56s CPU    202.93s WALL ( 3089288 calls)
     vloc_psi     :   2922.29s CPU   3162.56s WALL ( 3089288 calls)
     add_vuspsi   :     49.12s CPU     53.82s WALL ( 3089288 calls)

     General routines
     calbec       :    343.40s CPU    372.14s WALL ( 6548401 calls)
     fft          :      4.88s CPU      5.12s WALL (    6316 calls)
     ffts         :      5.24s CPU      6.67s WALL (   30425 calls)
     fftw         :   3223.15s CPU   3505.28s WALL (29820580 calls)
     interpolate  :      0.90s CPU      1.31s WALL (     866 calls)
     davcio       :     31.93s CPU     72.83s WALL ( 1358927 calls)

     Parallel routines
     fft_scatter  :   1393.28s CPU   1517.91s WALL (29857321 calls)

     PHONON       :     1h32m CPU        1h40m WALL

     INITIALIZATION: 
     phq_setup    :      0.59s CPU      0.61s WALL (      16 calls)
     phq_init     :     58.60s CPU     63.45s WALL (      16 calls)

     phq_init     :     58.60s CPU     63.45s WALL (      16 calls)
     init_vloc    :      0.11s CPU      0.11s WALL (      16 calls)
     init_us_1    :      1.12s CPU      1.22s WALL (      16 calls)
     newd         :      0.14s CPU      0.15s WALL (      16 calls)
     dvanqq       :      0.59s CPU      0.60s WALL (      16 calls)
     drho         :     45.15s CPU     48.41s WALL (      16 calls)

     DYNAMICAL MATRIX:
     dynmat0      :      8.43s CPU      9.26s WALL (      16 calls)
     phqscf       :   4129.26s CPU   4539.90s WALL (      16 calls)
     dynmatrix    :      0.11s CPU      0.12s WALL (      16 calls)

     phqscf       :   4129.26s CPU   4539.90s WALL (      16 calls)
     solve_linter :   4116.16s CPU   4525.37s WALL (      40 calls)
     drhodv       :     12.89s CPU     13.91s WALL (      40 calls)

     dynmat0      :      8.43s CPU      9.26s WALL (      16 calls)
     dynmat_us    :      8.38s CPU      9.18s WALL (      16 calls)
     d2ionq       :      0.02s CPU      0.02s WALL (      16 calls)

     dynmat_us    :      8.38s CPU      9.18s WALL (      16 calls)
     addusdynmat  :      0.00s CPU      0.00s WALL (      16 calls)

     phqscf       :   4129.26s CPU   4539.90s WALL (      16 calls)
     solve_linter :   4116.16s CPU   4525.37s WALL (      40 calls)

     solve_linter :   4116.16s CPU   4525.37s WALL (      40 calls)
     dvqpsi_us    :     79.14s CPU     85.42s WALL (   29082 calls)
     ortho        :     51.10s CPU     55.10s WALL (  260167 calls)
     cgsolve      :   3237.74s CPU   3522.91s WALL (  260167 calls)
     incdrhoscf   :    318.13s CPU    362.47s WALL (  260167 calls)
     addusddens   :      4.39s CPU      4.42s WALL (     379 calls)
     vpsifft      :    257.48s CPU    279.74s WALL (  231085 calls)
     dv_of_drho   :      3.60s CPU      3.72s WALL (     393 calls)
     mix_pot      :      0.59s CPU      3.34s WALL (     339 calls)
     ef_shift     :      0.03s CPU      0.05s WALL (       7 calls)
     localdos     :      0.08s CPU      0.08s WALL (       1 calls)
     psymdvscf    :     28.83s CPU     29.53s WALL (     308 calls)
     newdq        :      4.42s CPU      4.53s WALL (     339 calls)
     adddvscf     :     13.94s CPU     14.93s WALL (  231085 calls)
     drhodvus     :      0.01s CPU      0.02s WALL (      40 calls)

     dvqpsi_us    :     79.14s CPU     85.42s WALL (   29082 calls)
     dvqpsi_us_on :     13.63s CPU     14.34s WALL (   29082 calls)

     cgsolve      :   3237.74s CPU   3522.91s WALL (  260167 calls)
     ch_psi       :   3063.26s CPU   3330.61s WALL ( 2657842 calls)

     ch_psi       :   3063.26s CPU   3330.61s WALL ( 2657842 calls)
     h_psi        :   3215.22s CPU   3478.96s WALL ( 3089288 calls)
     last         :    313.18s CPU    342.48s WALL ( 2657842 calls)

     h_psi        :   3215.22s CPU   3478.96s WALL ( 3089288 calls)
     add_vuspsi   :     49.12s CPU     53.82s WALL ( 3089288 calls)

     incdrhoscf   :    318.13s CPU    362.47s WALL (  260167 calls)
     addusdbec    :     26.15s CPU     27.75s WALL (  289249 calls)

     drhodvus     :      0.01s CPU      0.02s WALL (      40 calls)

      General routines
     calbec       :    343.40s CPU    372.14s WALL ( 6548401 calls)
     fft          :      4.88s CPU      5.12s WALL (    6316 calls)
     ffts         :      5.24s CPU      6.67s WALL (   30425 calls)
     fftw         :   3223.15s CPU   3505.28s WALL (29820580 calls)
     davcio       :     31.93s CPU     72.83s WALL ( 1358927 calls)
     write_rec    :      1.30s CPU      3.88s WALL (     379 calls)


     PHONON       :     1h32m CPU        1h40m WALL


   This run was terminated on:  15:17:29  13Feb2018            

=------------------------------------------------------------------------------=
   JOB DONE.
=------------------------------------------------------------------------------=
