
     Program PWSCF v.6.1 (svn rev. 13369) starts on 21Dec2017 at 12:19:11 

     This program is part of the open-source Quantum ESPRESSO suite
     for quantum simulation of materials; please cite
         "P. Giannozzi et al., J. Phys.:Condens. Matter 21 395502 (2009);
          URL http://www.quantum-espresso.org", 
     in publications or presentations arising from this work. More details at
     http://www.quantum-espresso.org/quote

     Parallel version (MPI), running on     4 processors
     R & G space division:  proc/nbgrp/npool/nimage =       4
     Waiting for input...
     Reading input from standard input

     Current dimensions of program PWSCF are:
     Max number of different atomic species (ntypx) = 10
     Max number of k-points (npk) =  40000
     Max angular momentum in pseudopotentials (lmaxx) =  3

     Subspace diagonalization in iterative solution of the eigenvalue problem:
     a serial algorithm will be used


     Parallelization info
     --------------------
     sticks:   dense  smooth     PW     G-vecs:    dense   smooth      PW
     Min         222     109     37                 4393     1557     309
     Max         223     110     38                 4394     1558     312
     Sum         889     439    151                17573     6231    1243



     bravais-lattice index     =            2
     lattice parameter (alat)  =       9.0090  a.u.
     unit-cell volume          =     182.7948 (a.u.)^3
     number of atoms/cell      =            1
     number of atomic types    =            1
     number of electrons       =         9.00
     number of Kohn-Sham states=            9
     kinetic-energy cutoff     =      40.0000  Ry
     charge density cutoff     =     320.0000  Ry
     convergence threshold     =      1.0E-08
     mixing beta               =       0.7000
     number of iterations used =            8  plain     mixing
     Exchange-correlation      = SLA  PW   PBE  PBE ( 1  4  3  4 0 0)

     celldm(1)=   9.008960  celldm(2)=   0.000000  celldm(3)=   0.000000
     celldm(4)=   0.000000  celldm(5)=   0.000000  celldm(6)=   0.000000

     crystal axes: (cart. coord. in units of alat)
               a(1) = (  -0.500000   0.000000   0.500000 )  
               a(2) = (   0.000000   0.500000   0.500000 )  
               a(3) = (  -0.500000   0.500000   0.000000 )  

     reciprocal axes: (cart. coord. in units 2 pi/alat)
               b(1) = ( -1.000000 -1.000000  1.000000 )  
               b(2) = (  1.000000  1.000000  1.000000 )  
               b(3) = ( -1.000000  1.000000 -1.000000 )  


     PseudoPot. # 1 for Na read from file:
     /home/s1333534/quantum_espresso/qe-6.1/pseudo/Na_pbe_v1.uspp.F.UPF
     MD5 check sum: 76a99c7e9422403d3e93cbc85ab7bccb
     Pseudo is Ultrasoft, Zval =  9.0
     Generated by new atomic code, or converted to UPF format
     Using radial grid of  819 points,  5 beta functions with: 
                l(1) =   0
                l(2) =   0
                l(3) =   1
                l(4) =   1
                l(5) =   2
     Q(r) pseudized with  8 coefficients,  rinner =    1.250   1.250   1.250
                                                       1.250   1.250

     atomic species   valence    mass     pseudopotential
        Na             9.00    22.99000     Na( 1.00)

     48 Sym. Ops., with inversion, found



   Cartesian axes

     site n.     atom                  positions (alat units)
         1           Na  tau(   1) = (   0.0000000   0.0000000   0.0000000  )

     number of k points=   280  Marzari-Vanderbilt smearing, width (Ry)=  0.0200

     Number of k-points >= 100: set verbosity='high' to print them.

     Dense  grid:    17573 G-vectors     FFT dimensions: (  40,  40,  40)

     Smooth grid:     6231 G-vectors     FFT dimensions: (  25,  25,  25)

     Estimated max dynamical RAM per process >      10.66MB

     Estimated total allocated dynamical RAM >      42.62MB

     Initial potential from superposition of free atoms

     starting charge    8.99371, renormalised to    9.00000
     Starting wfc are    5 randomized atomic wfcs +    4 random wfc

     total cpu time spent up to now is        0.8 secs

     per-process dynamical memory:    16.3 Mb

     Self-consistent Calculation

     iteration #  1     ecut=    40.00 Ry     beta=0.70
     Davidson diagonalization with overlap
     ethr =  1.00E-02,  avg # of iterations =  5.3

     Threshold (ethr) on eigenvalues was too large:
     Diagonalizing with lowered threshold

     Davidson diagonalization with overlap
     ethr =  1.31E-05,  avg # of iterations =  3.4

     total cpu time spent up to now is        4.1 secs

     total energy              =     -95.09868871 Ry
     Harris-Foulkes estimate   =     -95.09910331 Ry
     estimated scf accuracy    <       0.00117454 Ry

     iteration #  2     ecut=    40.00 Ry     beta=0.70
     Davidson diagonalization with overlap
     ethr =  1.31E-05,  avg # of iterations =  2.0

     total cpu time spent up to now is        5.2 secs

     total energy              =     -95.09883575 Ry
     Harris-Foulkes estimate   =     -95.09887012 Ry
     estimated scf accuracy    <       0.00013119 Ry

     iteration #  3     ecut=    40.00 Ry     beta=0.70
     Davidson diagonalization with overlap
     ethr =  1.46E-06,  avg # of iterations =  2.1

     total cpu time spent up to now is        6.4 secs

     total energy              =     -95.09885180 Ry
     Harris-Foulkes estimate   =     -95.09885309 Ry
     estimated scf accuracy    <       0.00000768 Ry

     iteration #  4     ecut=    40.00 Ry     beta=0.70
     Davidson diagonalization with overlap
     ethr =  8.53E-08,  avg # of iterations =  1.0

     total cpu time spent up to now is        7.4 secs

     total energy              =     -95.09885250 Ry
     Harris-Foulkes estimate   =     -95.09885245 Ry
     estimated scf accuracy    <       0.00000001 Ry

     iteration #  5     ecut=    40.00 Ry     beta=0.70
     Davidson diagonalization with overlap
     ethr =  1.16E-10,  avg # of iterations =  3.0

     total cpu time spent up to now is        8.8 secs

     End of self-consistent calculation

     Number of k-points >= 100: set verbosity='high' to print the bands.

     the Fermi energy is     3.1545 ev

!    total energy              =     -95.09885254 Ry
     Harris-Foulkes estimate   =     -95.09885254 Ry
     estimated scf accuracy    <          1.7E-09 Ry

     The total energy is the sum of the following terms:

     one-electron contribution =     -80.99317812 Ry
     hartree contribution      =      41.43032064 Ry
     xc contribution           =     -14.31320223 Ry
     ewald contribution        =     -41.22272104 Ry
     smearing contrib. (-TS)   =      -0.00007179 Ry

     convergence has been achieved in   5 iterations


     Computing stress (Cartesian axis) and pressure

          total   stress  (Ry/bohr**3)                   (kbar)     P=   39.59
   0.00026915  -0.00000000  -0.00000000         39.59     -0.00     -0.00
  -0.00000000   0.00026915   0.00000000         -0.00     39.59      0.00
  -0.00000000   0.00000000   0.00026915         -0.00      0.00     39.59


     Writing output data file na.fcc.save

     init_run     :      0.53s CPU      0.66s WALL (       1 calls)
     electrons    :      7.52s CPU      8.07s WALL (       1 calls)
     stress       :      0.45s CPU      0.46s WALL (       1 calls)

     Called by init_run:
     wfcinit      :      0.36s CPU      0.45s WALL (       1 calls)
     potinit      :      0.02s CPU      0.03s WALL (       1 calls)

     Called by electrons:
     c_bands      :      6.23s CPU      6.69s WALL (       6 calls)
     sum_band     :      1.17s CPU      1.24s WALL (       6 calls)
     v_of_rho     :      0.07s CPU      0.08s WALL (       6 calls)
     newd         :      0.06s CPU      0.08s WALL (       6 calls)
     mix_rho      :      0.00s CPU      0.01s WALL (       6 calls)

     Called by c_bands:
     init_us_2    :      0.37s CPU      0.33s WALL (    3920 calls)
     cegterg      :      5.89s CPU      6.35s WALL (    1680 calls)

     Called by sum_band:
     sum_band:bec :      0.00s CPU      0.01s WALL (    1680 calls)
     addusdens    :      0.08s CPU      0.08s WALL (       6 calls)

     Called by *egterg:
     h_psi        :      4.68s CPU      5.07s WALL (    6661 calls)
     s_psi        :      0.08s CPU      0.08s WALL (    6661 calls)
     g_psi        :      0.03s CPU      0.04s WALL (    4701 calls)
     cdiaghg      :      0.93s CPU      0.99s WALL (    6101 calls)

     Called by h_psi:
     h_psi:pot    :      4.66s CPU      5.04s WALL (    6661 calls)
     h_psi:calbec :      0.12s CPU      0.14s WALL (    6661 calls)
     vloc_psi     :      4.46s CPU      4.79s WALL (    6661 calls)
     add_vuspsi   :      0.07s CPU      0.09s WALL (    6661 calls)

     General routines
     calbec       :      0.17s CPU      0.18s WALL (    8621 calls)
     fft          :      0.03s CPU      0.05s WALL (     101 calls)
     ffts         :      0.00s CPU      0.00s WALL (      12 calls)
     fftw         :      4.49s CPU      4.76s WALL (   99038 calls)
     interpolate  :      0.00s CPU      0.01s WALL (      12 calls)
     davcio       :      0.00s CPU      0.01s WALL (     280 calls)

     Parallel routines
     fft_scatter  :      0.97s CPU      1.31s WALL (   99151 calls)

     PWSCF        :     8.81s CPU         9.57s WALL


   This run was terminated on:  12:19:21  21Dec2017            

=------------------------------------------------------------------------------=
   JOB DONE.
=------------------------------------------------------------------------------=
