
     Program PHONON v.6.1 (svn rev. 13369) starts on 21Dec2017 at 12:19:21 

     This program is part of the open-source Quantum ESPRESSO suite
     for quantum simulation of materials; please cite
         "P. Giannozzi et al., J. Phys.:Condens. Matter 21 395502 (2009);
          URL http://www.quantum-espresso.org", 
     in publications or presentations arising from this work. More details at
     http://www.quantum-espresso.org/quote

     Parallel version (MPI), running on     4 processors
     R & G space division:  proc/nbgrp/npool/nimage =       4

     Reading data from directory:
     ./na.fcc.save

   Info: using nr1, nr2, nr3 values from input

   Info: using nr1, nr2, nr3 values from input

     IMPORTANT: XC functional enforced from input :
     Exchange-correlation      = SLA  PW   PBE  PBE ( 1  4  3  4 0 0)
     Any further DFT definition will be discarded
     Please, verify this is what you really want


     Parallelization info
     --------------------
     sticks:   dense  smooth     PW     G-vecs:    dense   smooth      PW
     Min         222     109     37                 4393     1557     309
     Max         223     110     38                 4394     1558     312
     Sum         889     439    151                17573     6231    1243



     Dynamical matrices for ( 8, 8, 8)  uniform grid of q-points
     (  29q-points):
       N         xq(1)         xq(2)         xq(3) 
       1   0.000000000   0.000000000   0.000000000
       2  -0.125000000   0.125000000  -0.125000000
       3  -0.250000000   0.250000000  -0.250000000
       4  -0.375000000   0.375000000  -0.375000000
       5   0.500000000  -0.500000000   0.500000000
       6   0.000000000   0.250000000   0.000000000
       7  -0.125000000   0.375000000  -0.125000000
       8  -0.250000000   0.500000000  -0.250000000
       9   0.625000000  -0.375000000   0.625000000
      10   0.500000000  -0.250000000   0.500000000
      11   0.375000000  -0.125000000   0.375000000
      12   0.250000000   0.000000000   0.250000000
      13   0.000000000   0.500000000   0.000000000
      14  -0.125000000   0.625000000  -0.125000000
      15   0.750000000  -0.250000000   0.750000000
      16   0.625000000  -0.125000000   0.625000000
      17   0.500000000   0.000000000   0.500000000
      18   0.000000000   0.750000000   0.000000000
      19   0.875000000  -0.125000000   0.875000000
      20   0.750000000   0.000000000   0.750000000
      21   0.000000000  -1.000000000   0.000000000
      22  -0.250000000   0.500000000   0.000000000
      23   0.625000000  -0.375000000   0.875000000
      24   0.500000000  -0.250000000   0.750000000
      25   0.750000000  -0.250000000   1.000000000
      26   0.625000000  -0.125000000   0.875000000
      27   0.500000000   0.000000000   0.750000000
      28  -0.250000000  -1.000000000   0.000000000
      29  -0.500000000  -1.000000000   0.000000000

     Calculation of q =    0.0000000   0.0000000   0.0000000

                                                                                

     bravais-lattice index     =            2
     lattice parameter (alat)  =       9.0090  a.u.
     unit-cell volume          =     182.7948 (a.u.)^3
     number of atoms/cell      =            1
     number of atomic types    =            1
     kinetic-energy cut-off    =      40.0000  Ry
     charge density cut-off    =     320.0000  Ry
     convergence threshold     =      1.0E-12
     beta                      =       0.7000
     number of iterations used =            4
     Exchange-correlation      = SLA  PW   PBE  PBE ( 1  4  3  4 0 0)


     celldm(1)=    9.00896  celldm(2)=    0.00000  celldm(3)=    0.00000
     celldm(4)=    0.00000  celldm(5)=    0.00000  celldm(6)=    0.00000

     crystal axes: (cart. coord. in units of alat)
               a(1) = ( -0.5000  0.0000  0.5000 )  
               a(2) = (  0.0000  0.5000  0.5000 )  
               a(3) = ( -0.5000  0.5000  0.0000 )  

     reciprocal axes: (cart. coord. in units 2 pi/alat)
               b(1) = ( -1.0000 -1.0000  1.0000 )  
               b(2) = (  1.0000  1.0000  1.0000 )  
               b(3) = ( -1.0000  1.0000 -1.0000 )  


     Atoms inside the unit cell: 

     Cartesian axes

     site n.  atom      mass           positions (alat units)
        1     Na  22.9900   tau(    1) = (    0.00000    0.00000    0.00000  )

     Computing dynamical matrix for 
                    q = (   0.0000000   0.0000000   0.0000000 )

     49 Sym.Ops. (with q -> -q+G )


     G cutoff =  657.8691  (   4393 G-vectors)     FFT grid: ( 40, 40, 40)
     G cutoff =  328.9346  (   1557 G-vectors)  smooth grid: ( 25, 25, 25)

     number of k points=   280  Marzari-Vanderbilt smearing, width (Ry)=  0.0200

     PseudoPot. # 1 for Na read from file:
     /home/s1333534/quantum_espresso/qe-6.1/pseudo/Na_pbe_v1.uspp.F.UPF
     MD5 check sum: 76a99c7e9422403d3e93cbc85ab7bccb
     Pseudo is Ultrasoft, Zval =  9.0
     Generated by new atomic code, or converted to UPF format
     Using radial grid of  819 points,  5 beta functions with: 
                l(1) =   0
                l(2) =   0
                l(3) =   1
                l(4) =   1
                l(5) =   2
     Q(r) pseudized with  8 coefficients,  rinner =    1.250   1.250   1.250
                                                       1.250   1.250

     Mode symmetry, O_h (m-3m)  point group:


     Atomic displacements:
     There are   1 irreducible representations

     Representation     1      3 modes -T_1u G_15  G_4-  To be done



     Alpha used in Ewald sum =   2.8000
     PHONON       :     1.82s CPU         1.90s WALL



     Representation #  1 modes #   1  2  3

     Self-consistent Calculation

     Pert. #  1: Fermi energy shift (Ry) =    -2.7573E-25    -1.5673E-37
     Pert. #  2: Fermi energy shift (Ry) =     3.6189E-25    -4.7020E-38
     Pert. #  3: Fermi energy shift (Ry) =     8.7888E-25     6.2693E-38

      iter #   1 total cpu time :     7.3 secs   av.it.:   5.4
      thresh= 1.000E-02 alpha_mix =  0.700 |ddv_scf|^2 =  1.766E-06

     Pert. #  1: Fermi energy shift (Ry) =     6.2039E-25    -2.4489E-40
     Pert. #  2: Fermi energy shift (Ry) =     3.4466E-26    -3.6734E-40
     Pert. #  3: Fermi energy shift (Ry) =     2.4126E-25    -7.3468E-40

      iter #   2 total cpu time :    13.5 secs   av.it.:   8.4
      thresh= 1.329E-04 alpha_mix =  0.700 |ddv_scf|^2 =  3.414E-08

     Pert. #  1: Fermi energy shift (Ry) =     1.9710E-25     1.5306E-40
     Pert. #  2: Fermi energy shift (Ry) =    -3.0158E-25     1.0714E-40
     Pert. #  3: Fermi energy shift (Ry) =    -6.3546E-26    -1.8367E-40

      iter #   3 total cpu time :    19.9 secs   av.it.:   8.5
      thresh= 1.848E-05 alpha_mix =  0.700 |ddv_scf|^2 =  4.139E-10

     Pert. #  1: Fermi energy shift (Ry) =    -8.6165E-27    -7.6530E-42
     Pert. #  2: Fermi energy shift (Ry) =     1.5079E-25    -1.9132E-41
     Pert. #  3: Fermi energy shift (Ry) =     8.1856E-26    -4.0178E-41

      iter #   4 total cpu time :    25.9 secs   av.it.:   8.0
      thresh= 2.034E-06 alpha_mix =  0.700 |ddv_scf|^2 =  1.593E-12

     Pert. #  1: Fermi energy shift (Ry) =     3.1019E-25    -3.5395E-41
     Pert. #  2: Fermi energy shift (Ry) =     2.5634E-25     4.9744E-41
     Pert. #  3: Fermi energy shift (Ry) =    -2.1541E-25    -4.4005E-41

      iter #   5 total cpu time :    32.1 secs   av.it.:   8.3
      thresh= 1.262E-07 alpha_mix =  0.700 |ddv_scf|^2 =  5.046E-15

     End of self-consistent calculation

     Convergence has been achieved 

     Number of q in the star =    1
     List of q in the star:
          1   0.000000000   0.000000000   0.000000000

     Diagonalizing the dynamical matrix

     q = (    0.000000000   0.000000000   0.000000000 ) 

 **************************************************************************
     freq (    1) =       0.318833 [THz] =      10.635135 [cm-1]
     freq (    2) =       0.318833 [THz] =      10.635135 [cm-1]
     freq (    3) =       0.318833 [THz] =      10.635135 [cm-1]
 **************************************************************************

     Mode symmetry, O_h (m-3m)  point group:

     freq (  1 -  3) =         10.6  [cm-1]   --> T_1u G_15  G_4- I  

     Calculation of q =   -0.1250000   0.1250000  -0.1250000

   Info: using nr1, nr2, nr3 values from input

   Info: using nr1, nr2, nr3 values from input

     Parallelization info
     --------------------
     sticks:   dense  smooth     PW     G-vecs:    dense   smooth      PW
     Min         222     109     40                 4392     1557     340
     Max         223     110     41                 4395     1559     342
     Sum         889     439    163                17573     6231    1363



     bravais-lattice index     =            2
     lattice parameter (alat)  =       9.0090  a.u.
     unit-cell volume          =     182.7948 (a.u.)^3
     number of atoms/cell      =            1
     number of atomic types    =            1
     number of electrons       =         9.00
     number of Kohn-Sham states=            9
     kinetic-energy cutoff     =      40.0000  Ry
     charge density cutoff     =     320.0000  Ry
     Exchange-correlation      = SLA  PW   PBE  PBE ( 1  4  3  4 0 0)

     celldm(1)=   9.008960  celldm(2)=   0.000000  celldm(3)=   0.000000
     celldm(4)=   0.000000  celldm(5)=   0.000000  celldm(6)=   0.000000

     crystal axes: (cart. coord. in units of alat)
               a(1) = (  -0.500000   0.000000   0.500000 )  
               a(2) = (   0.000000   0.500000   0.500000 )  
               a(3) = (  -0.500000   0.500000   0.000000 )  

     reciprocal axes: (cart. coord. in units 2 pi/alat)
               b(1) = ( -1.000000 -1.000000  1.000000 )  
               b(2) = (  1.000000  1.000000  1.000000 )  
               b(3) = ( -1.000000  1.000000 -1.000000 )  


     PseudoPot. # 1 for Na read from file:
     /home/s1333534/quantum_espresso/qe-6.1/pseudo/Na_pbe_v1.uspp.F.UPF
     MD5 check sum: 76a99c7e9422403d3e93cbc85ab7bccb
     Pseudo is Ultrasoft, Zval =  9.0
     Generated by new atomic code, or converted to UPF format
     Using radial grid of  819 points,  5 beta functions with: 
                l(1) =   0
                l(2) =   0
                l(3) =   1
                l(4) =   1
                l(5) =   2
     Q(r) pseudized with  8 coefficients,  rinner =    1.250   1.250   1.250
                                                       1.250   1.250

     atomic species   valence    mass     pseudopotential
        Na             9.00    22.99000     Na( 1.00)

     48 Sym. Ops., with inversion, found



   Cartesian axes

     site n.     atom                  positions (alat units)
         1           Na  tau(   1) = (   0.0000000   0.0000000   0.0000000  )

     number of k points=  4060  Marzari-Vanderbilt smearing, width (Ry)=  0.0200

     Number of k-points >= 100: set verbosity='high' to print them.

     Dense  grid:    17573 G-vectors     FFT dimensions: (  40,  40,  40)

     Smooth grid:     6231 G-vectors     FFT dimensions: (  25,  25,  25)

     Estimated max dynamical RAM per process >       1.90MB

     Estimated total allocated dynamical RAM >       7.58MB

     The potential is recalculated from file :
     ./_ph0/na.fcc.save/charge-density.dat

     Starting wfc are    5 atomic +    4 random wfc

     Band Structure Calculation
     Davidson diagonalization with overlap

     ethr =  1.11E-10,  avg # of iterations = 17.8

     total cpu time spent up to now is       77.3 secs

     End of band structure calculation

     Number of k-points >= 100: set verbosity='high' to print the bands.

     the Fermi energy is     3.1544 ev

     Writing output data file na.fcc.save

                                                                                

     bravais-lattice index     =            2
     lattice parameter (alat)  =       9.0090  a.u.
     unit-cell volume          =     182.7948 (a.u.)^3
     number of atoms/cell      =            1
     number of atomic types    =            1
     kinetic-energy cut-off    =      40.0000  Ry
     charge density cut-off    =     320.0000  Ry
     convergence threshold     =      1.0E-12
     beta                      =       0.7000
     number of iterations used =            4
     Exchange-correlation      = SLA  PW   PBE  PBE ( 1  4  3  4 0 0)


     celldm(1)=    9.00896  celldm(2)=    0.00000  celldm(3)=    0.00000
     celldm(4)=    0.00000  celldm(5)=    0.00000  celldm(6)=    0.00000

     crystal axes: (cart. coord. in units of alat)
               a(1) = ( -0.5000  0.0000  0.5000 )  
               a(2) = (  0.0000  0.5000  0.5000 )  
               a(3) = ( -0.5000  0.5000  0.0000 )  

     reciprocal axes: (cart. coord. in units 2 pi/alat)
               b(1) = ( -1.0000 -1.0000  1.0000 )  
               b(2) = (  1.0000  1.0000  1.0000 )  
               b(3) = ( -1.0000  1.0000 -1.0000 )  


     Atoms inside the unit cell: 

     Cartesian axes

     site n.  atom      mass           positions (alat units)
        1     Na  22.9900   tau(    1) = (    0.00000    0.00000    0.00000  )

     Computing dynamical matrix for 
                    q = (  -0.1250000   0.1250000  -0.1250000 )

      6 Sym.Ops. (no q -> -q+G )


     G cutoff =  657.8691  (   4393 G-vectors)     FFT grid: ( 40, 40, 40)
     G cutoff =  328.9346  (   1557 G-vectors)  smooth grid: ( 25, 25, 25)

     number of k points=  4060  Marzari-Vanderbilt smearing, width (Ry)=  0.0200

     PseudoPot. # 1 for Na read from file:
     /home/s1333534/quantum_espresso/qe-6.1/pseudo/Na_pbe_v1.uspp.F.UPF
     MD5 check sum: 76a99c7e9422403d3e93cbc85ab7bccb
     Pseudo is Ultrasoft, Zval =  9.0
     Generated by new atomic code, or converted to UPF format
     Using radial grid of  819 points,  5 beta functions with: 
                l(1) =   0
                l(2) =   0
                l(3) =   1
                l(4) =   1
                l(5) =   2
     Q(r) pseudized with  8 coefficients,  rinner =    1.250   1.250   1.250
                                                       1.250   1.250

     Mode symmetry, C_3v (3m)   point group:


     Atomic displacements:
     There are   2 irreducible representations

     Representation     1      1 modes -A_1  L_1  To be done

     Representation     2      2 modes -E    L_3  To be done



     Alpha used in Ewald sum =   2.8000
     PHONON       :  1m50.17s CPU     1m58.63s WALL



     Representation #  1 mode #   1

     Self-consistent Calculation

      iter #   1 total cpu time :   131.3 secs   av.it.:   5.7
      thresh= 1.000E-02 alpha_mix =  0.700 |ddv_scf|^2 =  2.867E-01

      iter #   2 total cpu time :   144.3 secs   av.it.:   7.1
      thresh= 1.000E-02 alpha_mix =  0.700 |ddv_scf|^2 =  1.406E+02

      iter #   3 total cpu time :   157.4 secs   av.it.:   7.1
      thresh= 1.000E-02 alpha_mix =  0.700 |ddv_scf|^2 =  4.255E-04

      iter #   4 total cpu time :   167.5 secs   av.it.:   5.1
      thresh= 2.063E-03 alpha_mix =  0.700 |ddv_scf|^2 =  3.235E-07

      iter #   5 total cpu time :   180.4 secs   av.it.:   7.2
      thresh= 5.687E-05 alpha_mix =  0.700 |ddv_scf|^2 =  8.329E-09

      iter #   6 total cpu time :   193.2 secs   av.it.:   7.0
      thresh= 9.126E-06 alpha_mix =  0.700 |ddv_scf|^2 =  7.941E-07

      iter #   7 total cpu time :   202.2 secs   av.it.:   4.2
      thresh= 8.911E-05 alpha_mix =  0.700 |ddv_scf|^2 =  1.040E-10

      iter #   8 total cpu time :   215.6 secs   av.it.:   7.6
      thresh= 1.020E-06 alpha_mix =  0.700 |ddv_scf|^2 =  8.631E-12

      iter #   9 total cpu time :   229.1 secs   av.it.:   7.5
      thresh= 2.938E-07 alpha_mix =  0.700 |ddv_scf|^2 =  2.620E-13

     End of self-consistent calculation

     Convergence has been achieved 


     Representation #  2 modes #   2  3

     Self-consistent Calculation

      iter #   1 total cpu time :   254.7 secs   av.it.:   5.5
      thresh= 1.000E-02 alpha_mix =  0.700 |ddv_scf|^2 =  4.016E-06

      iter #   2 total cpu time :   283.5 secs   av.it.:   8.3
      thresh= 2.004E-04 alpha_mix =  0.700 |ddv_scf|^2 =  7.640E-08

      iter #   3 total cpu time :   313.3 secs   av.it.:   8.5
      thresh= 2.764E-05 alpha_mix =  0.700 |ddv_scf|^2 =  1.022E-09

      iter #   4 total cpu time :   341.8 secs   av.it.:   8.2
      thresh= 3.196E-06 alpha_mix =  0.700 |ddv_scf|^2 =  3.900E-12

      iter #   5 total cpu time :   371.0 secs   av.it.:   8.4
      thresh= 1.975E-07 alpha_mix =  0.700 |ddv_scf|^2 =  1.122E-14

     End of self-consistent calculation

     Convergence has been achieved 

     Number of q in the star =    8
     List of q in the star:
          1  -0.125000000   0.125000000  -0.125000000
          2   0.125000000  -0.125000000  -0.125000000
          3   0.125000000  -0.125000000   0.125000000
          4  -0.125000000   0.125000000   0.125000000
          5   0.125000000   0.125000000  -0.125000000
          6  -0.125000000  -0.125000000  -0.125000000
          7  -0.125000000  -0.125000000   0.125000000
          8   0.125000000   0.125000000   0.125000000

     Diagonalizing the dynamical matrix

     q = (   -0.125000000   0.125000000  -0.125000000 ) 

 **************************************************************************
     freq (    1) =       0.619099 [THz] =      20.650931 [cm-1]
     freq (    2) =       0.619099 [THz] =      20.650931 [cm-1]
     freq (    3) =       2.532318 [THz] =      84.469020 [cm-1]
 **************************************************************************

     Mode symmetry, C_3v (3m)   point group:

     freq (  1 -  2) =         20.7  [cm-1]   --> E    L_3           
     freq (  3 -  3) =         84.5  [cm-1]   --> A_1  L_1           

     Calculation of q =   -0.2500000   0.2500000  -0.2500000

   Info: using nr1, nr2, nr3 values from input

   Info: using nr1, nr2, nr3 values from input

     Parallelization info
     --------------------
     sticks:   dense  smooth     PW     G-vecs:    dense   smooth      PW
     Min         222     109     40                 4393     1557     351
     Max         223     110     41                 4394     1558     354
     Sum         889     439    163                17573     6231    1411



     bravais-lattice index     =            2
     lattice parameter (alat)  =       9.0090  a.u.
     unit-cell volume          =     182.7948 (a.u.)^3
     number of atoms/cell      =            1
     number of atomic types    =            1
     number of electrons       =         9.00
     number of Kohn-Sham states=            9
     kinetic-energy cutoff     =      40.0000  Ry
     charge density cutoff     =     320.0000  Ry
     Exchange-correlation      = SLA  PW   PBE  PBE ( 1  4  3  4 0 0)

     celldm(1)=   9.008960  celldm(2)=   0.000000  celldm(3)=   0.000000
     celldm(4)=   0.000000  celldm(5)=   0.000000  celldm(6)=   0.000000

     crystal axes: (cart. coord. in units of alat)
               a(1) = (  -0.500000   0.000000   0.500000 )  
               a(2) = (   0.000000   0.500000   0.500000 )  
               a(3) = (  -0.500000   0.500000   0.000000 )  

     reciprocal axes: (cart. coord. in units 2 pi/alat)
               b(1) = ( -1.000000 -1.000000  1.000000 )  
               b(2) = (  1.000000  1.000000  1.000000 )  
               b(3) = ( -1.000000  1.000000 -1.000000 )  


     PseudoPot. # 1 for Na read from file:
     /home/s1333534/quantum_espresso/qe-6.1/pseudo/Na_pbe_v1.uspp.F.UPF
     MD5 check sum: 76a99c7e9422403d3e93cbc85ab7bccb
     Pseudo is Ultrasoft, Zval =  9.0
     Generated by new atomic code, or converted to UPF format
     Using radial grid of  819 points,  5 beta functions with: 
                l(1) =   0
                l(2) =   0
                l(3) =   1
                l(4) =   1
                l(5) =   2
     Q(r) pseudized with  8 coefficients,  rinner =    1.250   1.250   1.250
                                                       1.250   1.250

     atomic species   valence    mass     pseudopotential
        Na             9.00    22.99000     Na( 1.00)

     48 Sym. Ops., with inversion, found



   Cartesian axes

     site n.     atom                  positions (alat units)
         1           Na  tau(   1) = (   0.0000000   0.0000000   0.0000000  )

     number of k points=  4060  Marzari-Vanderbilt smearing, width (Ry)=  0.0200

     Number of k-points >= 100: set verbosity='high' to print them.

     Dense  grid:    17573 G-vectors     FFT dimensions: (  40,  40,  40)

     Smooth grid:     6231 G-vectors     FFT dimensions: (  25,  25,  25)

     Estimated max dynamical RAM per process >       1.90MB

     Estimated total allocated dynamical RAM >       7.58MB

     The potential is recalculated from file :
     ./_ph0/na.fcc.save/charge-density.dat

     Starting wfc are    5 atomic +    4 random wfc

     Band Structure Calculation
     Davidson diagonalization with overlap

     ethr =  1.11E-10,  avg # of iterations = 17.8

     total cpu time spent up to now is      157.1 secs

     End of band structure calculation

     Number of k-points >= 100: set verbosity='high' to print the bands.

     the Fermi energy is     3.1544 ev

     Writing output data file na.fcc.save

                                                                                

     bravais-lattice index     =            2
     lattice parameter (alat)  =       9.0090  a.u.
     unit-cell volume          =     182.7948 (a.u.)^3
     number of atoms/cell      =            1
     number of atomic types    =            1
     kinetic-energy cut-off    =      40.0000  Ry
     charge density cut-off    =     320.0000  Ry
     convergence threshold     =      1.0E-12
     beta                      =       0.7000
     number of iterations used =            4
     Exchange-correlation      = SLA  PW   PBE  PBE ( 1  4  3  4 0 0)


     celldm(1)=    9.00896  celldm(2)=    0.00000  celldm(3)=    0.00000
     celldm(4)=    0.00000  celldm(5)=    0.00000  celldm(6)=    0.00000

     crystal axes: (cart. coord. in units of alat)
               a(1) = ( -0.5000  0.0000  0.5000 )  
               a(2) = (  0.0000  0.5000  0.5000 )  
               a(3) = ( -0.5000  0.5000  0.0000 )  

     reciprocal axes: (cart. coord. in units 2 pi/alat)
               b(1) = ( -1.0000 -1.0000  1.0000 )  
               b(2) = (  1.0000  1.0000  1.0000 )  
               b(3) = ( -1.0000  1.0000 -1.0000 )  


     Atoms inside the unit cell: 

     Cartesian axes

     site n.  atom      mass           positions (alat units)
        1     Na  22.9900   tau(    1) = (    0.00000    0.00000    0.00000  )

     Computing dynamical matrix for 
                    q = (  -0.2500000   0.2500000  -0.2500000 )

      6 Sym.Ops. (no q -> -q+G )


     G cutoff =  657.8691  (   4393 G-vectors)     FFT grid: ( 40, 40, 40)
     G cutoff =  328.9346  (   1557 G-vectors)  smooth grid: ( 25, 25, 25)

     number of k points=  4060  Marzari-Vanderbilt smearing, width (Ry)=  0.0200

     PseudoPot. # 1 for Na read from file:
     /home/s1333534/quantum_espresso/qe-6.1/pseudo/Na_pbe_v1.uspp.F.UPF
     MD5 check sum: 76a99c7e9422403d3e93cbc85ab7bccb
     Pseudo is Ultrasoft, Zval =  9.0
     Generated by new atomic code, or converted to UPF format
     Using radial grid of  819 points,  5 beta functions with: 
                l(1) =   0
                l(2) =   0
                l(3) =   1
                l(4) =   1
                l(5) =   2
     Q(r) pseudized with  8 coefficients,  rinner =    1.250   1.250   1.250
                                                       1.250   1.250

     Mode symmetry, C_3v (3m)   point group:


     Atomic displacements:
     There are   2 irreducible representations

     Representation     1      1 modes -A_1  L_1  To be done

     Representation     2      2 modes -E    L_3  To be done



     Alpha used in Ewald sum =   2.8000
     PHONON       :  6m59.65s CPU     7m37.56s WALL



     Representation #  1 mode #   1

     Self-consistent Calculation

      iter #   1 total cpu time :   470.3 secs   av.it.:   5.7
      thresh= 1.000E-02 alpha_mix =  0.700 |ddv_scf|^2 =  4.567E-03

      iter #   2 total cpu time :   482.3 secs   av.it.:   6.4
      thresh= 6.758E-03 alpha_mix =  0.700 |ddv_scf|^2 =  1.087E-01

      iter #   3 total cpu time :   493.9 secs   av.it.:   6.0
      thresh= 1.000E-02 alpha_mix =  0.700 |ddv_scf|^2 =  3.534E-06

      iter #   4 total cpu time :   507.2 secs   av.it.:   7.3
      thresh= 1.880E-04 alpha_mix =  0.700 |ddv_scf|^2 =  1.300E-08

      iter #   5 total cpu time :   521.6 secs   av.it.:   8.1
      thresh= 1.140E-05 alpha_mix =  0.700 |ddv_scf|^2 =  2.150E-09

      iter #   6 total cpu time :   535.8 secs   av.it.:   7.6
      thresh= 4.637E-06 alpha_mix =  0.700 |ddv_scf|^2 =  2.637E-11

      iter #   7 total cpu time :   550.0 secs   av.it.:   8.0
      thresh= 5.135E-07 alpha_mix =  0.700 |ddv_scf|^2 =  1.372E-11

      iter #   8 total cpu time :   562.1 secs   av.it.:   6.4
      thresh= 3.705E-07 alpha_mix =  0.700 |ddv_scf|^2 =  4.732E-11

      iter #   9 total cpu time :   573.6 secs   av.it.:   6.1
      thresh= 6.879E-07 alpha_mix =  0.700 |ddv_scf|^2 =  1.931E-12

      iter #  10 total cpu time :   586.5 secs   av.it.:   7.1
      thresh= 1.390E-07 alpha_mix =  0.700 |ddv_scf|^2 =  4.617E-14

     End of self-consistent calculation

     Convergence has been achieved 


     Representation #  2 modes #   2  3

     Self-consistent Calculation

      iter #   1 total cpu time :   612.3 secs   av.it.:   5.6
      thresh= 1.000E-02 alpha_mix =  0.700 |ddv_scf|^2 =  4.114E-06

      iter #   2 total cpu time :   641.5 secs   av.it.:   8.3
      thresh= 2.028E-04 alpha_mix =  0.700 |ddv_scf|^2 =  7.566E-08

      iter #   3 total cpu time :   671.2 secs   av.it.:   8.6
      thresh= 2.751E-05 alpha_mix =  0.700 |ddv_scf|^2 =  1.229E-09

      iter #   4 total cpu time :   700.2 secs   av.it.:   8.2
      thresh= 3.505E-06 alpha_mix =  0.700 |ddv_scf|^2 =  4.667E-12

      iter #   5 total cpu time :   729.8 secs   av.it.:   8.4
      thresh= 2.160E-07 alpha_mix =  0.700 |ddv_scf|^2 =  1.105E-14

     End of self-consistent calculation

     Convergence has been achieved 

     Number of q in the star =    8
     List of q in the star:
          1  -0.250000000   0.250000000  -0.250000000
          2   0.250000000  -0.250000000  -0.250000000
          3   0.250000000  -0.250000000   0.250000000
          4  -0.250000000   0.250000000   0.250000000
          5   0.250000000   0.250000000  -0.250000000
          6  -0.250000000  -0.250000000  -0.250000000
          7  -0.250000000  -0.250000000   0.250000000
          8   0.250000000   0.250000000   0.250000000

     Diagonalizing the dynamical matrix

     q = (   -0.250000000   0.250000000  -0.250000000 ) 

 **************************************************************************
     freq (    1) =       1.312836 [THz] =      43.791504 [cm-1]
     freq (    2) =       1.312836 [THz] =      43.791504 [cm-1]
     freq (    3) =       4.223613 [THz] =     140.884557 [cm-1]
 **************************************************************************

     Mode symmetry, C_3v (3m)   point group:

     freq (  1 -  2) =         43.8  [cm-1]   --> E    L_3           
     freq (  3 -  3) =        140.9  [cm-1]   --> A_1  L_1           

     Calculation of q =   -0.3750000   0.3750000  -0.3750000

   Info: using nr1, nr2, nr3 values from input

   Info: using nr1, nr2, nr3 values from input

     Parallelization info
     --------------------
     sticks:   dense  smooth     PW     G-vecs:    dense   smooth      PW
     Min         222     109     40                 4393     1557     362
     Max         223     110     41                 4394     1558     366
     Sum         889     439    163                17573     6231    1459



     bravais-lattice index     =            2
     lattice parameter (alat)  =       9.0090  a.u.
     unit-cell volume          =     182.7948 (a.u.)^3
     number of atoms/cell      =            1
     number of atomic types    =            1
     number of electrons       =         9.00
     number of Kohn-Sham states=            9
     kinetic-energy cutoff     =      40.0000  Ry
     charge density cutoff     =     320.0000  Ry
     Exchange-correlation      = SLA  PW   PBE  PBE ( 1  4  3  4 0 0)

     celldm(1)=   9.008960  celldm(2)=   0.000000  celldm(3)=   0.000000
     celldm(4)=   0.000000  celldm(5)=   0.000000  celldm(6)=   0.000000

     crystal axes: (cart. coord. in units of alat)
               a(1) = (  -0.500000   0.000000   0.500000 )  
               a(2) = (   0.000000   0.500000   0.500000 )  
               a(3) = (  -0.500000   0.500000   0.000000 )  

     reciprocal axes: (cart. coord. in units 2 pi/alat)
               b(1) = ( -1.000000 -1.000000  1.000000 )  
               b(2) = (  1.000000  1.000000  1.000000 )  
               b(3) = ( -1.000000  1.000000 -1.000000 )  


     PseudoPot. # 1 for Na read from file:
     /home/s1333534/quantum_espresso/qe-6.1/pseudo/Na_pbe_v1.uspp.F.UPF
     MD5 check sum: 76a99c7e9422403d3e93cbc85ab7bccb
     Pseudo is Ultrasoft, Zval =  9.0
     Generated by new atomic code, or converted to UPF format
     Using radial grid of  819 points,  5 beta functions with: 
                l(1) =   0
                l(2) =   0
                l(3) =   1
                l(4) =   1
                l(5) =   2
     Q(r) pseudized with  8 coefficients,  rinner =    1.250   1.250   1.250
                                                       1.250   1.250

     atomic species   valence    mass     pseudopotential
        Na             9.00    22.99000     Na( 1.00)

     48 Sym. Ops., with inversion, found



   Cartesian axes

     site n.     atom                  positions (alat units)
         1           Na  tau(   1) = (   0.0000000   0.0000000   0.0000000  )

     number of k points=  4060  Marzari-Vanderbilt smearing, width (Ry)=  0.0200

     Number of k-points >= 100: set verbosity='high' to print them.

     Dense  grid:    17573 G-vectors     FFT dimensions: (  40,  40,  40)

     Smooth grid:     6231 G-vectors     FFT dimensions: (  25,  25,  25)

     Estimated max dynamical RAM per process >       1.90MB

     Estimated total allocated dynamical RAM >       7.58MB

     The potential is recalculated from file :
     ./_ph0/na.fcc.save/charge-density.dat

     Starting wfc are    5 atomic +    4 random wfc

     Band Structure Calculation
     Davidson diagonalization with overlap

     ethr =  1.11E-10,  avg # of iterations = 17.8

     total cpu time spent up to now is      237.4 secs

     End of band structure calculation

     Number of k-points >= 100: set verbosity='high' to print the bands.

     the Fermi energy is     3.1544 ev

     Writing output data file na.fcc.save

                                                                                

     bravais-lattice index     =            2
     lattice parameter (alat)  =       9.0090  a.u.
     unit-cell volume          =     182.7948 (a.u.)^3
     number of atoms/cell      =            1
     number of atomic types    =            1
     kinetic-energy cut-off    =      40.0000  Ry
     charge density cut-off    =     320.0000  Ry
     convergence threshold     =      1.0E-12
     beta                      =       0.7000
     number of iterations used =            4
     Exchange-correlation      = SLA  PW   PBE  PBE ( 1  4  3  4 0 0)


     celldm(1)=    9.00896  celldm(2)=    0.00000  celldm(3)=    0.00000
     celldm(4)=    0.00000  celldm(5)=    0.00000  celldm(6)=    0.00000

     crystal axes: (cart. coord. in units of alat)
               a(1) = ( -0.5000  0.0000  0.5000 )  
               a(2) = (  0.0000  0.5000  0.5000 )  
               a(3) = ( -0.5000  0.5000  0.0000 )  

     reciprocal axes: (cart. coord. in units 2 pi/alat)
               b(1) = ( -1.0000 -1.0000  1.0000 )  
               b(2) = (  1.0000  1.0000  1.0000 )  
               b(3) = ( -1.0000  1.0000 -1.0000 )  


     Atoms inside the unit cell: 

     Cartesian axes

     site n.  atom      mass           positions (alat units)
        1     Na  22.9900   tau(    1) = (    0.00000    0.00000    0.00000  )

     Computing dynamical matrix for 
                    q = (  -0.3750000   0.3750000  -0.3750000 )

      6 Sym.Ops. (no q -> -q+G )


     G cutoff =  657.8691  (   4393 G-vectors)     FFT grid: ( 40, 40, 40)
     G cutoff =  328.9346  (   1557 G-vectors)  smooth grid: ( 25, 25, 25)

     number of k points=  4060  Marzari-Vanderbilt smearing, width (Ry)=  0.0200

     PseudoPot. # 1 for Na read from file:
     /home/s1333534/quantum_espresso/qe-6.1/pseudo/Na_pbe_v1.uspp.F.UPF
     MD5 check sum: 76a99c7e9422403d3e93cbc85ab7bccb
     Pseudo is Ultrasoft, Zval =  9.0
     Generated by new atomic code, or converted to UPF format
     Using radial grid of  819 points,  5 beta functions with: 
                l(1) =   0
                l(2) =   0
                l(3) =   1
                l(4) =   1
                l(5) =   2
     Q(r) pseudized with  8 coefficients,  rinner =    1.250   1.250   1.250
                                                       1.250   1.250

     Mode symmetry, C_3v (3m)   point group:


     Atomic displacements:
     There are   2 irreducible representations

     Representation     1      1 modes -A_1  L_1  To be done

     Representation     2      2 modes -E    L_3  To be done



     Alpha used in Ewald sum =   2.8000
     PHONON       : 12m26.01s CPU    13m36.78s WALL



     Representation #  1 mode #   1

     Self-consistent Calculation

      iter #   1 total cpu time :   829.6 secs   av.it.:   5.7
      thresh= 1.000E-02 alpha_mix =  0.700 |ddv_scf|^2 =  4.653E-04

      iter #   2 total cpu time :   842.1 secs   av.it.:   6.7
      thresh= 2.157E-03 alpha_mix =  0.700 |ddv_scf|^2 =  1.415E-03

      iter #   3 total cpu time :   853.9 secs   av.it.:   6.2
      thresh= 3.761E-03 alpha_mix =  0.700 |ddv_scf|^2 =  6.118E-07

      iter #   4 total cpu time :   867.8 secs   av.it.:   7.7
      thresh= 7.822E-05 alpha_mix =  0.700 |ddv_scf|^2 =  1.519E-08

      iter #   5 total cpu time :   882.2 secs   av.it.:   8.2
      thresh= 1.233E-05 alpha_mix =  0.700 |ddv_scf|^2 =  5.630E-10

      iter #   6 total cpu time :   897.9 secs   av.it.:   8.0
      thresh= 2.373E-06 alpha_mix =  0.700 |ddv_scf|^2 =  2.495E-11

      iter #   7 total cpu time :   911.5 secs   av.it.:   7.6
      thresh= 4.995E-07 alpha_mix =  0.700 |ddv_scf|^2 =  1.449E-12

      iter #   8 total cpu time :   925.7 secs   av.it.:   7.9
      thresh= 1.204E-07 alpha_mix =  0.700 |ddv_scf|^2 =  1.142E-14

     End of self-consistent calculation

     Convergence has been achieved 


     Representation #  2 modes #   2  3

     Self-consistent Calculation

      iter #   1 total cpu time :   951.4 secs   av.it.:   5.6
      thresh= 1.000E-02 alpha_mix =  0.700 |ddv_scf|^2 =  4.207E-06

      iter #   2 total cpu time :   980.7 secs   av.it.:   8.3
      thresh= 2.051E-04 alpha_mix =  0.700 |ddv_scf|^2 =  7.507E-08

      iter #   3 total cpu time :  1011.2 secs   av.it.:   8.6
      thresh= 2.740E-05 alpha_mix =  0.700 |ddv_scf|^2 =  1.411E-09

      iter #   4 total cpu time :  1040.2 secs   av.it.:   8.1
      thresh= 3.756E-06 alpha_mix =  0.700 |ddv_scf|^2 =  5.348E-12

      iter #   5 total cpu time :  1069.9 secs   av.it.:   8.4
      thresh= 2.313E-07 alpha_mix =  0.700 |ddv_scf|^2 =  1.105E-14

     End of self-consistent calculation

     Convergence has been achieved 

     Number of q in the star =    8
     List of q in the star:
          1  -0.375000000   0.375000000  -0.375000000
          2   0.375000000  -0.375000000  -0.375000000
          3   0.375000000  -0.375000000   0.375000000
          4  -0.375000000   0.375000000   0.375000000
          5   0.375000000   0.375000000  -0.375000000
          6  -0.375000000  -0.375000000  -0.375000000
          7  -0.375000000  -0.375000000   0.375000000
          8   0.375000000   0.375000000   0.375000000

     Diagonalizing the dynamical matrix

     q = (   -0.375000000   0.375000000  -0.375000000 ) 

 **************************************************************************
     freq (    1) =       1.779703 [THz] =      59.364517 [cm-1]
     freq (    2) =       1.779703 [THz] =      59.364517 [cm-1]
     freq (    3) =       5.509354 [THz] =     183.772252 [cm-1]
 **************************************************************************

     Mode symmetry, C_3v (3m)   point group:

     freq (  1 -  2) =         59.4  [cm-1]   --> E    L_3           
     freq (  3 -  3) =        183.8  [cm-1]   --> A_1  L_1           

     Calculation of q =    0.5000000  -0.5000000   0.5000000

   Info: using nr1, nr2, nr3 values from input

   Info: using nr1, nr2, nr3 values from input

     Parallelization info
     --------------------
     sticks:   dense  smooth     PW     G-vecs:    dense   smooth      PW
     Min         222     109     42                 4393     1557     367
     Max         223     110     43                 4394     1558     368
     Sum         889     439    169                17573     6231    1471



     bravais-lattice index     =            2
     lattice parameter (alat)  =       9.0090  a.u.
     unit-cell volume          =     182.7948 (a.u.)^3
     number of atoms/cell      =            1
     number of atomic types    =            1
     number of electrons       =         9.00
     number of Kohn-Sham states=            9
     kinetic-energy cutoff     =      40.0000  Ry
     charge density cutoff     =     320.0000  Ry
     Exchange-correlation      = SLA  PW   PBE  PBE ( 1  4  3  4 0 0)

     celldm(1)=   9.008960  celldm(2)=   0.000000  celldm(3)=   0.000000
     celldm(4)=   0.000000  celldm(5)=   0.000000  celldm(6)=   0.000000

     crystal axes: (cart. coord. in units of alat)
               a(1) = (  -0.500000   0.000000   0.500000 )  
               a(2) = (   0.000000   0.500000   0.500000 )  
               a(3) = (  -0.500000   0.500000   0.000000 )  

     reciprocal axes: (cart. coord. in units 2 pi/alat)
               b(1) = ( -1.000000 -1.000000  1.000000 )  
               b(2) = (  1.000000  1.000000  1.000000 )  
               b(3) = ( -1.000000  1.000000 -1.000000 )  


     PseudoPot. # 1 for Na read from file:
     /home/s1333534/quantum_espresso/qe-6.1/pseudo/Na_pbe_v1.uspp.F.UPF
     MD5 check sum: 76a99c7e9422403d3e93cbc85ab7bccb
     Pseudo is Ultrasoft, Zval =  9.0
     Generated by new atomic code, or converted to UPF format
     Using radial grid of  819 points,  5 beta functions with: 
                l(1) =   0
                l(2) =   0
                l(3) =   1
                l(4) =   1
                l(5) =   2
     Q(r) pseudized with  8 coefficients,  rinner =    1.250   1.250   1.250
                                                       1.250   1.250

     atomic species   valence    mass     pseudopotential
        Na             9.00    22.99000     Na( 1.00)

     48 Sym. Ops., with inversion, found



   Cartesian axes

     site n.     atom                  positions (alat units)
         1           Na  tau(   1) = (   0.0000000   0.0000000   0.0000000  )

     number of k points=  2030  Marzari-Vanderbilt smearing, width (Ry)=  0.0200

     Number of k-points >= 100: set verbosity='high' to print them.

     Dense  grid:    17573 G-vectors     FFT dimensions: (  40,  40,  40)

     Smooth grid:     6231 G-vectors     FFT dimensions: (  25,  25,  25)

     Estimated max dynamical RAM per process >       1.90MB

     Estimated total allocated dynamical RAM >       7.58MB

     The potential is recalculated from file :
     ./_ph0/na.fcc.save/charge-density.dat

     Starting wfc are    5 atomic +    4 random wfc

     Band Structure Calculation
     Davidson diagonalization with overlap

     ethr =  1.11E-10,  avg # of iterations = 17.7

     total cpu time spent up to now is      279.1 secs

     End of band structure calculation

     Number of k-points >= 100: set verbosity='high' to print the bands.

     the Fermi energy is     3.1544 ev

     Writing output data file na.fcc.save

                                                                                

     bravais-lattice index     =            2
     lattice parameter (alat)  =       9.0090  a.u.
     unit-cell volume          =     182.7948 (a.u.)^3
     number of atoms/cell      =            1
     number of atomic types    =            1
     kinetic-energy cut-off    =      40.0000  Ry
     charge density cut-off    =     320.0000  Ry
     convergence threshold     =      1.0E-12
     beta                      =       0.7000
     number of iterations used =            4
     Exchange-correlation      = SLA  PW   PBE  PBE ( 1  4  3  4 0 0)


     celldm(1)=    9.00896  celldm(2)=    0.00000  celldm(3)=    0.00000
     celldm(4)=    0.00000  celldm(5)=    0.00000  celldm(6)=    0.00000

     crystal axes: (cart. coord. in units of alat)
               a(1) = ( -0.5000  0.0000  0.5000 )  
               a(2) = (  0.0000  0.5000  0.5000 )  
               a(3) = ( -0.5000  0.5000  0.0000 )  

     reciprocal axes: (cart. coord. in units 2 pi/alat)
               b(1) = ( -1.0000 -1.0000  1.0000 )  
               b(2) = (  1.0000  1.0000  1.0000 )  
               b(3) = ( -1.0000  1.0000 -1.0000 )  


     Atoms inside the unit cell: 

     Cartesian axes

     site n.  atom      mass           positions (alat units)
        1     Na  22.9900   tau(    1) = (    0.00000    0.00000    0.00000  )

     Computing dynamical matrix for 
                    q = (   0.5000000  -0.5000000   0.5000000 )

     13 Sym.Ops. (with q -> -q+G )


     G cutoff =  657.8691  (   4393 G-vectors)     FFT grid: ( 40, 40, 40)
     G cutoff =  328.9346  (   1557 G-vectors)  smooth grid: ( 25, 25, 25)

     number of k points=  2030  Marzari-Vanderbilt smearing, width (Ry)=  0.0200

     PseudoPot. # 1 for Na read from file:
     /home/s1333534/quantum_espresso/qe-6.1/pseudo/Na_pbe_v1.uspp.F.UPF
     MD5 check sum: 76a99c7e9422403d3e93cbc85ab7bccb
     Pseudo is Ultrasoft, Zval =  9.0
     Generated by new atomic code, or converted to UPF format
     Using radial grid of  819 points,  5 beta functions with: 
                l(1) =   0
                l(2) =   0
                l(3) =   1
                l(4) =   1
                l(5) =   2
     Q(r) pseudized with  8 coefficients,  rinner =    1.250   1.250   1.250
                                                       1.250   1.250

     Mode symmetry, D_3d (-3m)  point group:


     Atomic displacements:
     There are   2 irreducible representations

     Representation     1      1 modes -A_2u L_2'  To be done

     Representation     2      2 modes -E_u  L_3'  To be done



     Alpha used in Ewald sum =   2.8000
     PHONON       : 16m54.13s CPU    18m34.03s WALL



     Representation #  1 mode #   1

     Self-consistent Calculation

      iter #   1 total cpu time :  1120.6 secs   av.it.:   5.8
      thresh= 1.000E-02 alpha_mix =  0.700 |ddv_scf|^2 =  1.775E-04

      iter #   2 total cpu time :  1127.0 secs   av.it.:   6.8
      thresh= 1.332E-03 alpha_mix =  0.700 |ddv_scf|^2 =  1.029E-04

      iter #   3 total cpu time :  1133.3 secs   av.it.:   6.7
      thresh= 1.015E-03 alpha_mix =  0.700 |ddv_scf|^2 =  1.103E-07

      iter #   4 total cpu time :  1140.4 secs   av.it.:   7.8
      thresh= 3.321E-05 alpha_mix =  0.700 |ddv_scf|^2 =  4.126E-10

      iter #   5 total cpu time :  1146.8 secs   av.it.:   6.8
      thresh= 2.031E-06 alpha_mix =  0.700 |ddv_scf|^2 =  9.897E-12

      iter #   6 total cpu time :  1153.0 secs   av.it.:   6.4
      thresh= 3.146E-07 alpha_mix =  0.700 |ddv_scf|^2 =  2.186E-14

     End of self-consistent calculation

     Convergence has been achieved 


     Representation #  2 modes #   2  3

     Self-consistent Calculation

      iter #   1 total cpu time :  1165.6 secs   av.it.:   5.5
      thresh= 1.000E-02 alpha_mix =  0.700 |ddv_scf|^2 =  4.244E-06

      iter #   2 total cpu time :  1180.1 secs   av.it.:   8.2
      thresh= 2.060E-04 alpha_mix =  0.700 |ddv_scf|^2 =  7.504E-08

      iter #   3 total cpu time :  1195.6 secs   av.it.:   8.5
      thresh= 2.739E-05 alpha_mix =  0.700 |ddv_scf|^2 =  1.483E-09

      iter #   4 total cpu time :  1209.6 secs   av.it.:   7.8
      thresh= 3.851E-06 alpha_mix =  0.700 |ddv_scf|^2 =  5.592E-12

      iter #   5 total cpu time :  1224.0 secs   av.it.:   8.1
      thresh= 2.365E-07 alpha_mix =  0.700 |ddv_scf|^2 =  1.116E-14

     End of self-consistent calculation

     Convergence has been achieved 

     Number of q in the star =    4
     List of q in the star:
          1   0.500000000  -0.500000000   0.500000000
          2   0.500000000   0.500000000   0.500000000
          3  -0.500000000   0.500000000   0.500000000
          4   0.500000000   0.500000000  -0.500000000

     Diagonalizing the dynamical matrix

     q = (    0.500000000  -0.500000000   0.500000000 ) 

 **************************************************************************
     freq (    1) =       1.996305 [THz] =      66.589553 [cm-1]
     freq (    2) =       1.996305 [THz] =      66.589553 [cm-1]
     freq (    3) =       5.991868 [THz] =     199.867207 [cm-1]
 **************************************************************************

     Mode symmetry, D_3d (-3m)  point group:

     freq (  1 -  2) =         66.6  [cm-1]   --> E_u  L_3'          
     freq (  3 -  3) =        199.9  [cm-1]   --> A_2u L_2'          

     Calculation of q =    0.0000000   0.2500000   0.0000000

   Info: using nr1, nr2, nr3 values from input

   Info: using nr1, nr2, nr3 values from input

     Parallelization info
     --------------------
     sticks:   dense  smooth     PW     G-vecs:    dense   smooth      PW
     Min         222     109     40                 4392     1557     340
     Max         223     110     41                 4395     1559     342
     Sum         889     439    163                17573     6231    1363



     bravais-lattice index     =            2
     lattice parameter (alat)  =       9.0090  a.u.
     unit-cell volume          =     182.7948 (a.u.)^3
     number of atoms/cell      =            1
     number of atomic types    =            1
     number of electrons       =         9.00
     number of Kohn-Sham states=            9
     kinetic-energy cutoff     =      40.0000  Ry
     charge density cutoff     =     320.0000  Ry
     Exchange-correlation      = SLA  PW   PBE  PBE ( 1  4  3  4 0 0)

     celldm(1)=   9.008960  celldm(2)=   0.000000  celldm(3)=   0.000000
     celldm(4)=   0.000000  celldm(5)=   0.000000  celldm(6)=   0.000000

     crystal axes: (cart. coord. in units of alat)
               a(1) = (  -0.500000   0.000000   0.500000 )  
               a(2) = (   0.000000   0.500000   0.500000 )  
               a(3) = (  -0.500000   0.500000   0.000000 )  

     reciprocal axes: (cart. coord. in units 2 pi/alat)
               b(1) = ( -1.000000 -1.000000  1.000000 )  
               b(2) = (  1.000000  1.000000  1.000000 )  
               b(3) = ( -1.000000  1.000000 -1.000000 )  


     PseudoPot. # 1 for Na read from file:
     /home/s1333534/quantum_espresso/qe-6.1/pseudo/Na_pbe_v1.uspp.F.UPF
     MD5 check sum: 76a99c7e9422403d3e93cbc85ab7bccb
     Pseudo is Ultrasoft, Zval =  9.0
     Generated by new atomic code, or converted to UPF format
     Using radial grid of  819 points,  5 beta functions with: 
                l(1) =   0
                l(2) =   0
                l(3) =   1
                l(4) =   1
                l(5) =   2
     Q(r) pseudized with  8 coefficients,  rinner =    1.250   1.250   1.250
                                                       1.250   1.250

     atomic species   valence    mass     pseudopotential
        Na             9.00    22.99000     Na( 1.00)

     48 Sym. Ops., with inversion, found



   Cartesian axes

     site n.     atom                  positions (alat units)
         1           Na  tau(   1) = (   0.0000000   0.0000000   0.0000000  )

     number of k points=  2940  Marzari-Vanderbilt smearing, width (Ry)=  0.0200

     Number of k-points >= 100: set verbosity='high' to print them.

     Dense  grid:    17573 G-vectors     FFT dimensions: (  40,  40,  40)

     Smooth grid:     6231 G-vectors     FFT dimensions: (  25,  25,  25)

     Estimated max dynamical RAM per process >       1.90MB

     Estimated total allocated dynamical RAM >       7.58MB

     The potential is recalculated from file :
     ./_ph0/na.fcc.save/charge-density.dat

     Starting wfc are    5 atomic +    4 random wfc

     Band Structure Calculation
     Davidson diagonalization with overlap

     ethr =  1.11E-10,  avg # of iterations = 17.7

     total cpu time spent up to now is      336.0 secs

     End of band structure calculation

     Number of k-points >= 100: set verbosity='high' to print the bands.

     the Fermi energy is     3.1544 ev

     Writing output data file na.fcc.save

                                                                                

     bravais-lattice index     =            2
     lattice parameter (alat)  =       9.0090  a.u.
     unit-cell volume          =     182.7948 (a.u.)^3
     number of atoms/cell      =            1
     number of atomic types    =            1
     kinetic-energy cut-off    =      40.0000  Ry
     charge density cut-off    =     320.0000  Ry
     convergence threshold     =      1.0E-12
     beta                      =       0.7000
     number of iterations used =            4
     Exchange-correlation      = SLA  PW   PBE  PBE ( 1  4  3  4 0 0)


     celldm(1)=    9.00896  celldm(2)=    0.00000  celldm(3)=    0.00000
     celldm(4)=    0.00000  celldm(5)=    0.00000  celldm(6)=    0.00000

     crystal axes: (cart. coord. in units of alat)
               a(1) = ( -0.5000  0.0000  0.5000 )  
               a(2) = (  0.0000  0.5000  0.5000 )  
               a(3) = ( -0.5000  0.5000  0.0000 )  

     reciprocal axes: (cart. coord. in units 2 pi/alat)
               b(1) = ( -1.0000 -1.0000  1.0000 )  
               b(2) = (  1.0000  1.0000  1.0000 )  
               b(3) = ( -1.0000  1.0000 -1.0000 )  


     Atoms inside the unit cell: 

     Cartesian axes

     site n.  atom      mass           positions (alat units)
        1     Na  22.9900   tau(    1) = (    0.00000    0.00000    0.00000  )

     Computing dynamical matrix for 
                    q = (   0.0000000   0.2500000   0.0000000 )

      8 Sym.Ops. (no q -> -q+G )


     G cutoff =  657.8691  (   4393 G-vectors)     FFT grid: ( 40, 40, 40)
     G cutoff =  328.9346  (   1557 G-vectors)  smooth grid: ( 25, 25, 25)

     number of k points=  2940  Marzari-Vanderbilt smearing, width (Ry)=  0.0200

     PseudoPot. # 1 for Na read from file:
     /home/s1333534/quantum_espresso/qe-6.1/pseudo/Na_pbe_v1.uspp.F.UPF
     MD5 check sum: 76a99c7e9422403d3e93cbc85ab7bccb
     Pseudo is Ultrasoft, Zval =  9.0
     Generated by new atomic code, or converted to UPF format
     Using radial grid of  819 points,  5 beta functions with: 
                l(1) =   0
                l(2) =   0
                l(3) =   1
                l(4) =   1
                l(5) =   2
     Q(r) pseudized with  8 coefficients,  rinner =    1.250   1.250   1.250
                                                       1.250   1.250

     Mode symmetry, C_4v (4mm)  point group:


     Atomic displacements:
     There are   2 irreducible representations

     Representation     1      1 modes -A_1  G_1 D_1  To be done

     Representation     2      2 modes -E    G_5 D_5  To be done



     Alpha used in Ewald sum =   2.8000
     PHONON       : 19m31.46s CPU    21m26.33s WALL



     Representation #  1 mode #   1

     Self-consistent Calculation

      iter #   1 total cpu time :  1295.4 secs   av.it.:   5.7
      thresh= 1.000E-02 alpha_mix =  0.700 |ddv_scf|^2 =  1.276E-01

      iter #   2 total cpu time :  1304.8 secs   av.it.:   7.0
      thresh= 1.000E-02 alpha_mix =  0.700 |ddv_scf|^2 =  3.623E+01

      iter #   3 total cpu time :  1314.1 secs   av.it.:   7.0
      thresh= 1.000E-02 alpha_mix =  0.700 |ddv_scf|^2 =  3.354E-05

      iter #   4 total cpu time :  1323.3 secs   av.it.:   6.4
      thresh= 5.791E-04 alpha_mix =  0.700 |ddv_scf|^2 =  2.563E-07

      iter #   5 total cpu time :  1332.7 secs   av.it.:   7.2
      thresh= 5.062E-05 alpha_mix =  0.700 |ddv_scf|^2 =  4.946E-09

      iter #   6 total cpu time :  1342.1 secs   av.it.:   7.2
      thresh= 7.033E-06 alpha_mix =  0.700 |ddv_scf|^2 =  1.666E-07

      iter #   7 total cpu time :  1348.8 secs   av.it.:   4.3
      thresh= 4.082E-05 alpha_mix =  0.700 |ddv_scf|^2 =  1.911E-10

      iter #   8 total cpu time :  1358.5 secs   av.it.:   7.5
      thresh= 1.383E-06 alpha_mix =  0.700 |ddv_scf|^2 =  5.475E-12

      iter #   9 total cpu time :  1368.4 secs   av.it.:   7.7
      thresh= 2.340E-07 alpha_mix =  0.700 |ddv_scf|^2 =  2.021E-13

     End of self-consistent calculation

     Convergence has been achieved 


     Representation #  2 modes #   2  3

     Self-consistent Calculation

      iter #   1 total cpu time :  1386.8 secs   av.it.:   5.5
      thresh= 1.000E-02 alpha_mix =  0.700 |ddv_scf|^2 =  4.147E-06

      iter #   2 total cpu time :  1408.1 secs   av.it.:   8.3
      thresh= 2.036E-04 alpha_mix =  0.700 |ddv_scf|^2 =  7.445E-08

      iter #   3 total cpu time :  1430.2 secs   av.it.:   8.5
      thresh= 2.728E-05 alpha_mix =  0.700 |ddv_scf|^2 =  1.371E-09

      iter #   4 total cpu time :  1450.7 secs   av.it.:   8.2
      thresh= 3.703E-06 alpha_mix =  0.700 |ddv_scf|^2 =  4.953E-12

      iter #   5 total cpu time :  1471.9 secs   av.it.:   8.3
      thresh= 2.226E-07 alpha_mix =  0.700 |ddv_scf|^2 =  1.010E-14

     End of self-consistent calculation

     Convergence has been achieved 

     Number of q in the star =    6
     List of q in the star:
          1   0.000000000   0.250000000   0.000000000
          2   0.000000000  -0.250000000   0.000000000
          3   0.250000000   0.000000000   0.000000000
          4   0.000000000   0.000000000   0.250000000
          5   0.000000000   0.000000000  -0.250000000
          6  -0.250000000   0.000000000   0.000000000

     Diagonalizing the dynamical matrix

     q = (    0.000000000   0.250000000   0.000000000 ) 

 **************************************************************************
     freq (    1) =       1.322453 [THz] =      44.112290 [cm-1]
     freq (    2) =       1.322453 [THz] =      44.112290 [cm-1]
     freq (    3) =       2.372753 [THz] =      79.146520 [cm-1]
 **************************************************************************

     Mode symmetry, C_4v (4mm)  point group:

     freq (  1 -  2) =         44.1  [cm-1]   --> E    G_5 D_5       
     freq (  3 -  3) =         79.1  [cm-1]   --> A_1  G_1 D_1       

     Calculation of q =   -0.1250000   0.3750000  -0.1250000

   Info: using nr1, nr2, nr3 values from input

   Info: using nr1, nr2, nr3 values from input

     Parallelization info
     --------------------
     sticks:   dense  smooth     PW     G-vecs:    dense   smooth      PW
     Min         222     109     40                 4393     1557     351
     Max         223     110     41                 4394     1558     354
     Sum         889     439    163                17573     6231    1411



     bravais-lattice index     =            2
     lattice parameter (alat)  =       9.0090  a.u.
     unit-cell volume          =     182.7948 (a.u.)^3
     number of atoms/cell      =            1
     number of atomic types    =            1
     number of electrons       =         9.00
     number of Kohn-Sham states=            9
     kinetic-energy cutoff     =      40.0000  Ry
     charge density cutoff     =     320.0000  Ry
     Exchange-correlation      = SLA  PW   PBE  PBE ( 1  4  3  4 0 0)

     celldm(1)=   9.008960  celldm(2)=   0.000000  celldm(3)=   0.000000
     celldm(4)=   0.000000  celldm(5)=   0.000000  celldm(6)=   0.000000

     crystal axes: (cart. coord. in units of alat)
               a(1) = (  -0.500000   0.000000   0.500000 )  
               a(2) = (   0.000000   0.500000   0.500000 )  
               a(3) = (  -0.500000   0.500000   0.000000 )  

     reciprocal axes: (cart. coord. in units 2 pi/alat)
               b(1) = ( -1.000000 -1.000000  1.000000 )  
               b(2) = (  1.000000  1.000000  1.000000 )  
               b(3) = ( -1.000000  1.000000 -1.000000 )  


     PseudoPot. # 1 for Na read from file:
     /home/s1333534/quantum_espresso/qe-6.1/pseudo/Na_pbe_v1.uspp.F.UPF
     MD5 check sum: 76a99c7e9422403d3e93cbc85ab7bccb
     Pseudo is Ultrasoft, Zval =  9.0
     Generated by new atomic code, or converted to UPF format
     Using radial grid of  819 points,  5 beta functions with: 
                l(1) =   0
                l(2) =   0
                l(3) =   1
                l(4) =   1
                l(5) =   2
     Q(r) pseudized with  8 coefficients,  rinner =    1.250   1.250   1.250
                                                       1.250   1.250

     atomic species   valence    mass     pseudopotential
        Na             9.00    22.99000     Na( 1.00)

     48 Sym. Ops., with inversion, found



   Cartesian axes

     site n.     atom                  positions (alat units)
         1           Na  tau(   1) = (   0.0000000   0.0000000   0.0000000  )

     number of k points= 11368  Marzari-Vanderbilt smearing, width (Ry)=  0.0200

     Number of k-points >= 100: set verbosity='high' to print them.

     Dense  grid:    17573 G-vectors     FFT dimensions: (  40,  40,  40)

     Smooth grid:     6231 G-vectors     FFT dimensions: (  25,  25,  25)

     Estimated max dynamical RAM per process >       1.90MB

     Estimated total allocated dynamical RAM >       7.58MB

     The potential is recalculated from file :
     ./_ph0/na.fcc.save/charge-density.dat

     Starting wfc are    5 atomic +    4 random wfc

     Band Structure Calculation
     Davidson diagonalization with overlap

     ethr =  1.11E-10,  avg # of iterations = 17.6

     total cpu time spent up to now is      553.3 secs

     End of band structure calculation

     Number of k-points >= 100: set verbosity='high' to print the bands.

     the Fermi energy is     3.1544 ev

     Writing output data file na.fcc.save

                                                                                

     bravais-lattice index     =            2
     lattice parameter (alat)  =       9.0090  a.u.
     unit-cell volume          =     182.7948 (a.u.)^3
     number of atoms/cell      =            1
     number of atomic types    =            1
     kinetic-energy cut-off    =      40.0000  Ry
     charge density cut-off    =     320.0000  Ry
     convergence threshold     =      1.0E-12
     beta                      =       0.7000
     number of iterations used =            4
     Exchange-correlation      = SLA  PW   PBE  PBE ( 1  4  3  4 0 0)


     celldm(1)=    9.00896  celldm(2)=    0.00000  celldm(3)=    0.00000
     celldm(4)=    0.00000  celldm(5)=    0.00000  celldm(6)=    0.00000

     crystal axes: (cart. coord. in units of alat)
               a(1) = ( -0.5000  0.0000  0.5000 )  
               a(2) = (  0.0000  0.5000  0.5000 )  
               a(3) = ( -0.5000  0.5000  0.0000 )  

     reciprocal axes: (cart. coord. in units 2 pi/alat)
               b(1) = ( -1.0000 -1.0000  1.0000 )  
               b(2) = (  1.0000  1.0000  1.0000 )  
               b(3) = ( -1.0000  1.0000 -1.0000 )  


     Atoms inside the unit cell: 

     Cartesian axes

     site n.  atom      mass           positions (alat units)
        1     Na  22.9900   tau(    1) = (    0.00000    0.00000    0.00000  )

     Computing dynamical matrix for 
                    q = (  -0.1250000   0.3750000  -0.1250000 )

      2 Sym.Ops. (no q -> -q+G )


     G cutoff =  657.8691  (   4393 G-vectors)     FFT grid: ( 40, 40, 40)
     G cutoff =  328.9346  (   1557 G-vectors)  smooth grid: ( 25, 25, 25)

     number of k points= 11368  Marzari-Vanderbilt smearing, width (Ry)=  0.0200

     PseudoPot. # 1 for Na read from file:
     /home/s1333534/quantum_espresso/qe-6.1/pseudo/Na_pbe_v1.uspp.F.UPF
     MD5 check sum: 76a99c7e9422403d3e93cbc85ab7bccb
     Pseudo is Ultrasoft, Zval =  9.0
     Generated by new atomic code, or converted to UPF format
     Using radial grid of  819 points,  5 beta functions with: 
                l(1) =   0
                l(2) =   0
                l(3) =   1
                l(4) =   1
                l(5) =   2
     Q(r) pseudized with  8 coefficients,  rinner =    1.250   1.250   1.250
                                                       1.250   1.250

     Mode symmetry, C_s (m)     point group:


     Atomic displacements:
     There are   3 irreducible representations

     Representation     1      1 modes -A'  To be done

     Representation     2      1 modes -A'  To be done

     Representation     3      1 modes -A''  To be done



     Alpha used in Ewald sum =   2.8000
     PHONON       : 26m 1.92s CPU    28m32.31s WALL



     Representation #  1 mode #   1

     Self-consistent Calculation

      iter #   1 total cpu time :  1748.9 secs   av.it.:   5.8
      thresh= 1.000E-02 alpha_mix =  0.700 |ddv_scf|^2 =  5.190E-03

      iter #   2 total cpu time :  1782.4 secs   av.it.:   6.5
      thresh= 7.204E-03 alpha_mix =  0.700 |ddv_scf|^2 =  1.532E-01

      iter #   3 total cpu time :  1815.2 secs   av.it.:   6.0
      thresh= 1.000E-02 alpha_mix =  0.700 |ddv_scf|^2 =  3.244E-06

      iter #   4 total cpu time :  1852.9 secs   av.it.:   7.4
      thresh= 1.801E-04 alpha_mix =  0.700 |ddv_scf|^2 =  2.421E-08

      iter #   5 total cpu time :  1892.2 secs   av.it.:   7.8
      thresh= 1.556E-05 alpha_mix =  0.700 |ddv_scf|^2 =  1.878E-09

      iter #   6 total cpu time :  1931.0 secs   av.it.:   7.7
      thresh= 4.334E-06 alpha_mix =  0.700 |ddv_scf|^2 =  9.893E-11

      iter #   7 total cpu time :  1969.9 secs   av.it.:   7.7
      thresh= 9.947E-07 alpha_mix =  0.700 |ddv_scf|^2 =  1.230E-09

      iter #   8 total cpu time :  1999.8 secs   av.it.:   5.4
      thresh= 3.507E-06 alpha_mix =  0.700 |ddv_scf|^2 =  6.189E-13

     End of self-consistent calculation

     Convergence has been achieved 


     Representation #  2 mode #   2

     Self-consistent Calculation

      iter #   1 total cpu time :  2037.0 secs   av.it.:   5.7
      thresh= 1.000E-02 alpha_mix =  0.700 |ddv_scf|^2 =  8.005E-04

      iter #   2 total cpu time :  2073.6 secs   av.it.:   6.9
      thresh= 2.829E-03 alpha_mix =  0.700 |ddv_scf|^2 =  2.319E-02

      iter #   3 total cpu time :  2103.0 secs   av.it.:   5.1
      thresh= 1.000E-02 alpha_mix =  0.700 |ddv_scf|^2 =  3.609E-07

      iter #   4 total cpu time :  2143.8 secs   av.it.:   8.0
      thresh= 6.008E-05 alpha_mix =  0.700 |ddv_scf|^2 =  8.848E-09

      iter #   5 total cpu time :  2183.5 secs   av.it.:   7.9
      thresh= 9.406E-06 alpha_mix =  0.700 |ddv_scf|^2 =  4.850E-10

      iter #   6 total cpu time :  2223.3 secs   av.it.:   7.9
      thresh= 2.202E-06 alpha_mix =  0.700 |ddv_scf|^2 =  4.199E-11

      iter #   7 total cpu time :  2262.6 secs   av.it.:   7.7
      thresh= 6.480E-07 alpha_mix =  0.700 |ddv_scf|^2 =  2.510E-10

      iter #   8 total cpu time :  2294.3 secs   av.it.:   5.9
      thresh= 1.584E-06 alpha_mix =  0.700 |ddv_scf|^2 =  4.997E-11

      iter #   9 total cpu time :  2325.9 secs   av.it.:   5.7
      thresh= 7.069E-07 alpha_mix =  0.700 |ddv_scf|^2 =  1.045E-11

      iter #  10 total cpu time :  2362.2 secs   av.it.:   7.1
      thresh= 3.232E-07 alpha_mix =  0.700 |ddv_scf|^2 =  3.395E-14

     End of self-consistent calculation

     Convergence has been achieved 


     Representation #  3 mode #   3

     Self-consistent Calculation

      iter #   1 total cpu time :  2398.6 secs   av.it.:   5.4
      thresh= 1.000E-02 alpha_mix =  0.700 |ddv_scf|^2 =  1.732E-05

      iter #   2 total cpu time :  2437.9 secs   av.it.:   7.6
      thresh= 4.161E-04 alpha_mix =  0.700 |ddv_scf|^2 =  2.888E-07

      iter #   3 total cpu time :  2477.4 secs   av.it.:   7.9
      thresh= 5.374E-05 alpha_mix =  0.700 |ddv_scf|^2 =  7.585E-09

      iter #   4 total cpu time :  2515.4 secs   av.it.:   7.5
      thresh= 8.709E-06 alpha_mix =  0.700 |ddv_scf|^2 =  2.676E-11

      iter #   5 total cpu time :  2554.6 secs   av.it.:   7.7
      thresh= 5.173E-07 alpha_mix =  0.700 |ddv_scf|^2 =  3.858E-14

     End of self-consistent calculation

     Convergence has been achieved 

     Number of q in the star =   24
     List of q in the star:
          1  -0.125000000   0.375000000  -0.125000000
          2  -0.125000000   0.375000000   0.125000000
          3   0.125000000   0.375000000  -0.125000000
          4   0.125000000   0.375000000   0.125000000
          5   0.125000000  -0.375000000   0.125000000
          6   0.375000000  -0.125000000   0.125000000
          7   0.125000000  -0.125000000   0.375000000
          8  -0.125000000  -0.375000000  -0.125000000
          9   0.125000000  -0.375000000  -0.125000000
         10  -0.125000000  -0.375000000   0.125000000
         11   0.125000000  -0.125000000  -0.375000000
         12   0.375000000  -0.125000000  -0.125000000
         13  -0.375000000  -0.125000000   0.125000000
         14   0.375000000   0.125000000   0.125000000
         15  -0.125000000  -0.125000000   0.375000000
         16   0.125000000   0.125000000   0.375000000
         17  -0.375000000   0.125000000  -0.125000000
         18  -0.125000000   0.125000000  -0.375000000
         19  -0.375000000  -0.125000000  -0.125000000
         20   0.125000000   0.125000000  -0.375000000
         21   0.375000000   0.125000000  -0.125000000
         22  -0.125000000  -0.125000000  -0.375000000
         23  -0.375000000   0.125000000   0.125000000
         24  -0.125000000   0.125000000   0.375000000

     Diagonalizing the dynamical matrix

     q = (   -0.125000000   0.375000000  -0.125000000 ) 

 **************************************************************************
     freq (    1) =       1.918704 [THz] =      64.001082 [cm-1]
     freq (    2) =       2.098028 [THz] =      69.982675 [cm-1]
     freq (    3) =       4.130165 [THz] =     137.767491 [cm-1]
 **************************************************************************

     Mode symmetry, C_s (m)     point group:

     freq (  1 -  1) =         64.0  [cm-1]   --> A''                
     freq (  2 -  2) =         70.0  [cm-1]   --> A'                 
     freq (  3 -  3) =        137.8  [cm-1]   --> A'                 

     Calculation of q =   -0.2500000   0.5000000  -0.2500000

   Info: using nr1, nr2, nr3 values from input

   Info: using nr1, nr2, nr3 values from input

     Parallelization info
     --------------------
     sticks:   dense  smooth     PW     G-vecs:    dense   smooth      PW
     Min         222     109     40                 4393     1557     362
     Max         223     110     41                 4394     1558     366
     Sum         889     439    163                17573     6231    1459



     bravais-lattice index     =            2
     lattice parameter (alat)  =       9.0090  a.u.
     unit-cell volume          =     182.7948 (a.u.)^3
     number of atoms/cell      =            1
     number of atomic types    =            1
     number of electrons       =         9.00
     number of Kohn-Sham states=            9
     kinetic-energy cutoff     =      40.0000  Ry
     charge density cutoff     =     320.0000  Ry
     Exchange-correlation      = SLA  PW   PBE  PBE ( 1  4  3  4 0 0)

     celldm(1)=   9.008960  celldm(2)=   0.000000  celldm(3)=   0.000000
     celldm(4)=   0.000000  celldm(5)=   0.000000  celldm(6)=   0.000000

     crystal axes: (cart. coord. in units of alat)
               a(1) = (  -0.500000   0.000000   0.500000 )  
               a(2) = (   0.000000   0.500000   0.500000 )  
               a(3) = (  -0.500000   0.500000   0.000000 )  

     reciprocal axes: (cart. coord. in units 2 pi/alat)
               b(1) = ( -1.000000 -1.000000  1.000000 )  
               b(2) = (  1.000000  1.000000  1.000000 )  
               b(3) = ( -1.000000  1.000000 -1.000000 )  


     PseudoPot. # 1 for Na read from file:
     /home/s1333534/quantum_espresso/qe-6.1/pseudo/Na_pbe_v1.uspp.F.UPF
     MD5 check sum: 76a99c7e9422403d3e93cbc85ab7bccb
     Pseudo is Ultrasoft, Zval =  9.0
     Generated by new atomic code, or converted to UPF format
     Using radial grid of  819 points,  5 beta functions with: 
                l(1) =   0
                l(2) =   0
                l(3) =   1
                l(4) =   1
                l(5) =   2
     Q(r) pseudized with  8 coefficients,  rinner =    1.250   1.250   1.250
                                                       1.250   1.250

     atomic species   valence    mass     pseudopotential
        Na             9.00    22.99000     Na( 1.00)

     48 Sym. Ops., with inversion, found



   Cartesian axes

     site n.     atom                  positions (alat units)
         1           Na  tau(   1) = (   0.0000000   0.0000000   0.0000000  )

     number of k points= 11368  Marzari-Vanderbilt smearing, width (Ry)=  0.0200

     Number of k-points >= 100: set verbosity='high' to print them.

     Dense  grid:    17573 G-vectors     FFT dimensions: (  40,  40,  40)

     Smooth grid:     6231 G-vectors     FFT dimensions: (  25,  25,  25)

     Estimated max dynamical RAM per process >       1.90MB

     Estimated total allocated dynamical RAM >       7.58MB

     The potential is recalculated from file :
     ./_ph0/na.fcc.save/charge-density.dat

     Starting wfc are    5 atomic +    4 random wfc

     Band Structure Calculation
     Davidson diagonalization with overlap

     ethr =  1.11E-10,  avg # of iterations = 17.6

     total cpu time spent up to now is      776.9 secs

     End of band structure calculation

     Number of k-points >= 100: set verbosity='high' to print the bands.

     the Fermi energy is     3.1544 ev

     Writing output data file na.fcc.save

                                                                                

     bravais-lattice index     =            2
     lattice parameter (alat)  =       9.0090  a.u.
     unit-cell volume          =     182.7948 (a.u.)^3
     number of atoms/cell      =            1
     number of atomic types    =            1
     kinetic-energy cut-off    =      40.0000  Ry
     charge density cut-off    =     320.0000  Ry
     convergence threshold     =      1.0E-12
     beta                      =       0.7000
     number of iterations used =            4
     Exchange-correlation      = SLA  PW   PBE  PBE ( 1  4  3  4 0 0)


     celldm(1)=    9.00896  celldm(2)=    0.00000  celldm(3)=    0.00000
     celldm(4)=    0.00000  celldm(5)=    0.00000  celldm(6)=    0.00000

     crystal axes: (cart. coord. in units of alat)
               a(1) = ( -0.5000  0.0000  0.5000 )  
               a(2) = (  0.0000  0.5000  0.5000 )  
               a(3) = ( -0.5000  0.5000  0.0000 )  

     reciprocal axes: (cart. coord. in units 2 pi/alat)
               b(1) = ( -1.0000 -1.0000  1.0000 )  
               b(2) = (  1.0000  1.0000  1.0000 )  
               b(3) = ( -1.0000  1.0000 -1.0000 )  


     Atoms inside the unit cell: 

     Cartesian axes

     site n.  atom      mass           positions (alat units)
        1     Na  22.9900   tau(    1) = (    0.00000    0.00000    0.00000  )

     Computing dynamical matrix for 
                    q = (  -0.2500000   0.5000000  -0.2500000 )

      2 Sym.Ops. (no q -> -q+G )


     G cutoff =  657.8691  (   4393 G-vectors)     FFT grid: ( 40, 40, 40)
     G cutoff =  328.9346  (   1557 G-vectors)  smooth grid: ( 25, 25, 25)

     number of k points= 11368  Marzari-Vanderbilt smearing, width (Ry)=  0.0200

     PseudoPot. # 1 for Na read from file:
     /home/s1333534/quantum_espresso/qe-6.1/pseudo/Na_pbe_v1.uspp.F.UPF
     MD5 check sum: 76a99c7e9422403d3e93cbc85ab7bccb
     Pseudo is Ultrasoft, Zval =  9.0
     Generated by new atomic code, or converted to UPF format
     Using radial grid of  819 points,  5 beta functions with: 
                l(1) =   0
                l(2) =   0
                l(3) =   1
                l(4) =   1
                l(5) =   2
     Q(r) pseudized with  8 coefficients,  rinner =    1.250   1.250   1.250
                                                       1.250   1.250

     Mode symmetry, C_s (m)     point group:


     Atomic displacements:
     There are   3 irreducible representations

     Representation     1      1 modes -A'  To be done

     Representation     2      1 modes -A'  To be done

     Representation     3      1 modes -A''  To be done



     Alpha used in Ewald sum =   2.8000
     PHONON       : 42m18.55s CPU    46m36.29s WALL



     Representation #  1 mode #   1

     Self-consistent Calculation

      iter #   1 total cpu time :  2832.6 secs   av.it.:   5.8
      thresh= 1.000E-02 alpha_mix =  0.700 |ddv_scf|^2 =  5.038E-04

      iter #   2 total cpu time :  2868.6 secs   av.it.:   7.0
      thresh= 2.245E-03 alpha_mix =  0.700 |ddv_scf|^2 =  2.165E-03

      iter #   3 total cpu time :  2901.9 secs   av.it.:   6.0
      thresh= 4.653E-03 alpha_mix =  0.700 |ddv_scf|^2 =  4.978E-07

      iter #   4 total cpu time :  2941.6 secs   av.it.:   7.8
      thresh= 7.055E-05 alpha_mix =  0.700 |ddv_scf|^2 =  6.632E-09

      iter #   5 total cpu time :  2983.0 secs   av.it.:   8.3
      thresh= 8.144E-06 alpha_mix =  0.700 |ddv_scf|^2 =  8.215E-10

      iter #   6 total cpu time :  3023.1 secs   av.it.:   8.0
      thresh= 2.866E-06 alpha_mix =  0.700 |ddv_scf|^2 =  3.699E-11

      iter #   7 total cpu time :  3062.8 secs   av.it.:   7.8
      thresh= 6.082E-07 alpha_mix =  0.700 |ddv_scf|^2 =  8.714E-12

      iter #   8 total cpu time :  3099.6 secs   av.it.:   7.1
      thresh= 2.952E-07 alpha_mix =  0.700 |ddv_scf|^2 =  1.204E-11

      iter #   9 total cpu time :  3135.2 secs   av.it.:   6.5
      thresh= 3.470E-07 alpha_mix =  0.700 |ddv_scf|^2 =  4.728E-13

     End of self-consistent calculation

     Convergence has been achieved 


     Representation #  2 mode #   2

     Self-consistent Calculation

      iter #   1 total cpu time :  3172.5 secs   av.it.:   5.8
      thresh= 1.000E-02 alpha_mix =  0.700 |ddv_scf|^2 =  1.460E-04

      iter #   2 total cpu time :  3211.1 secs   av.it.:   7.4
      thresh= 1.208E-03 alpha_mix =  0.700 |ddv_scf|^2 =  5.549E-04

      iter #   3 total cpu time :  3243.8 secs   av.it.:   6.0
      thresh= 2.356E-03 alpha_mix =  0.700 |ddv_scf|^2 =  3.914E-07

      iter #   4 total cpu time :  3283.5 secs   av.it.:   7.8
      thresh= 6.257E-05 alpha_mix =  0.700 |ddv_scf|^2 =  9.707E-09

      iter #   5 total cpu time :  3324.4 secs   av.it.:   8.3
      thresh= 9.853E-06 alpha_mix =  0.700 |ddv_scf|^2 =  4.620E-10

      iter #   6 total cpu time :  3365.2 secs   av.it.:   8.1
      thresh= 2.149E-06 alpha_mix =  0.700 |ddv_scf|^2 =  4.270E-11

      iter #   7 total cpu time :  3404.8 secs   av.it.:   7.9
      thresh= 6.535E-07 alpha_mix =  0.700 |ddv_scf|^2 =  5.829E-13

     End of self-consistent calculation

     Convergence has been achieved 


     Representation #  3 mode #   3

     Self-consistent Calculation

      iter #   1 total cpu time :  3442.5 secs   av.it.:   5.5
      thresh= 1.000E-02 alpha_mix =  0.700 |ddv_scf|^2 =  1.777E-05

      iter #   2 total cpu time :  3481.6 secs   av.it.:   7.7
      thresh= 4.215E-04 alpha_mix =  0.700 |ddv_scf|^2 =  2.851E-07

      iter #   3 total cpu time :  3521.3 secs   av.it.:   7.9
      thresh= 5.340E-05 alpha_mix =  0.700 |ddv_scf|^2 =  8.767E-09

      iter #   4 total cpu time :  3559.0 secs   av.it.:   7.5
      thresh= 9.363E-06 alpha_mix =  0.700 |ddv_scf|^2 =  3.163E-11

      iter #   5 total cpu time :  3598.4 secs   av.it.:   7.7
      thresh= 5.624E-07 alpha_mix =  0.700 |ddv_scf|^2 =  3.981E-14

     End of self-consistent calculation

     Convergence has been achieved 

     Number of q in the star =   24
     List of q in the star:
          1  -0.250000000   0.500000000  -0.250000000
          2  -0.250000000   0.500000000   0.250000000
          3   0.250000000   0.500000000  -0.250000000
          4   0.250000000   0.500000000   0.250000000
          5   0.250000000  -0.500000000   0.250000000
          6   0.500000000  -0.250000000   0.250000000
          7   0.250000000  -0.250000000   0.500000000
          8  -0.250000000  -0.500000000  -0.250000000
          9   0.250000000  -0.500000000  -0.250000000
         10  -0.250000000  -0.500000000   0.250000000
         11   0.250000000  -0.250000000  -0.500000000
         12   0.500000000  -0.250000000  -0.250000000
         13  -0.500000000  -0.250000000   0.250000000
         14   0.500000000   0.250000000   0.250000000
         15  -0.250000000  -0.250000000   0.500000000
         16   0.250000000   0.250000000   0.500000000
         17  -0.500000000   0.250000000  -0.250000000
         18  -0.250000000   0.250000000  -0.500000000
         19  -0.500000000  -0.250000000  -0.250000000
         20   0.250000000   0.250000000  -0.500000000
         21   0.500000000   0.250000000  -0.250000000
         22  -0.250000000  -0.250000000  -0.500000000
         23  -0.500000000   0.250000000   0.250000000
         24  -0.250000000   0.250000000   0.500000000

     Diagonalizing the dynamical matrix

     q = (   -0.250000000   0.500000000  -0.250000000 ) 

 **************************************************************************
     freq (    1) =       2.252221 [THz] =      75.126010 [cm-1]
     freq (    2) =       2.515818 [THz] =      83.918651 [cm-1]
     freq (    3) =       5.336395 [THz] =     178.002964 [cm-1]
 **************************************************************************

     Mode symmetry, C_s (m)     point group:

     freq (  1 -  1) =         75.1  [cm-1]   --> A''                
     freq (  2 -  2) =         83.9  [cm-1]   --> A'                 
     freq (  3 -  3) =        178.0  [cm-1]   --> A'                 

     Calculation of q =    0.6250000  -0.3750000   0.6250000

   Info: using nr1, nr2, nr3 values from input

   Info: using nr1, nr2, nr3 values from input

     Parallelization info
     --------------------
     sticks:   dense  smooth     PW     G-vecs:    dense   smooth      PW
     Min         222     109     46                 4393     1557     409
     Max         223     110     47                 4394     1558     411
     Sum         889     439    187                17573     6231    1639



     bravais-lattice index     =            2
     lattice parameter (alat)  =       9.0090  a.u.
     unit-cell volume          =     182.7948 (a.u.)^3
     number of atoms/cell      =            1
     number of atomic types    =            1
     number of electrons       =         9.00
     number of Kohn-Sham states=            9
     kinetic-energy cutoff     =      40.0000  Ry
     charge density cutoff     =     320.0000  Ry
     Exchange-correlation      = SLA  PW   PBE  PBE ( 1  4  3  4 0 0)

     celldm(1)=   9.008960  celldm(2)=   0.000000  celldm(3)=   0.000000
     celldm(4)=   0.000000  celldm(5)=   0.000000  celldm(6)=   0.000000

     crystal axes: (cart. coord. in units of alat)
               a(1) = (  -0.500000   0.000000   0.500000 )  
               a(2) = (   0.000000   0.500000   0.500000 )  
               a(3) = (  -0.500000   0.500000   0.000000 )  

[...]

     PseudoPot. # 1 for Na read from file:
     /home/s1333534/quantum_espresso/qe-6.1/pseudo/Na_pbe_v1.uspp.F.UPF
     MD5 check sum: 76a99c7e9422403d3e93cbc85ab7bccb
     Pseudo is Ultrasoft, Zval =  9.0
     Generated by new atomic code, or converted to UPF format
     Using radial grid of  819 points,  5 beta functions with: 
                l(1) =   0
                l(2) =   0
                l(3) =   1
                l(4) =   1
                l(5) =   2
     Q(r) pseudized with  8 coefficients,  rinner =    1.250   1.250   1.250
                                                       1.250   1.250

     Mode symmetry, C_2v (mm2)  point group:


     Atomic displacements:
     There are   3 irreducible representations

     Representation     1      1 modes -A_1  D_1  S_1  To be done

     Representation     2      1 modes -B_1  D_3  S_3  To be done

     Representation     3      1 modes -B_2  D_4  S_4  To be done



     Alpha used in Ewald sum =   2.8000
     PHONON       :     5h17m CPU        5h52m WALL



     Representation #  1 mode #   1

     Self-consistent Calculation

      iter #   1 total cpu time : 21153.0 secs   av.it.:   5.6
      thresh= 1.000E-02 alpha_mix =  0.700 |ddv_scf|^2 =  2.575E-05

      iter #   2 total cpu time : 21172.2 secs   av.it.:   7.8
      thresh= 5.074E-04 alpha_mix =  0.700 |ddv_scf|^2 =  7.308E-07

      iter #   3 total cpu time : 21191.9 secs   av.it.:   7.7
      thresh= 8.549E-05 alpha_mix =  0.700 |ddv_scf|^2 =  3.116E-08

      iter #   4 total cpu time : 21212.0 secs   av.it.:   7.9
      thresh= 1.765E-05 alpha_mix =  0.700 |ddv_scf|^2 =  1.794E-09

      iter #   5 total cpu time : 21231.3 secs   av.it.:   7.9
      thresh= 4.236E-06 alpha_mix =  0.700 |ddv_scf|^2 =  7.430E-11

      iter #   6 total cpu time : 21251.1 secs   av.it.:   8.1
      thresh= 8.620E-07 alpha_mix =  0.700 |ddv_scf|^2 =  6.031E-12

      iter #   7 total cpu time : 21270.3 secs   av.it.:   7.8
      thresh= 2.456E-07 alpha_mix =  0.700 |ddv_scf|^2 =  1.584E-13

     End of self-consistent calculation

     Convergence has been achieved 


     Representation #  2 mode #   2

     Self-consistent Calculation

      iter #   1 total cpu time : 21288.5 secs   av.it.:   5.6
      thresh= 1.000E-02 alpha_mix =  0.700 |ddv_scf|^2 =  2.661E-05

      iter #   2 total cpu time : 21308.0 secs   av.it.:   7.7
      thresh= 5.158E-04 alpha_mix =  0.700 |ddv_scf|^2 =  3.444E-07

      iter #   3 total cpu time : 21327.3 secs   av.it.:   7.8
      thresh= 5.869E-05 alpha_mix =  0.700 |ddv_scf|^2 =  2.299E-08

      iter #   4 total cpu time : 21347.2 secs   av.it.:   7.9
      thresh= 1.516E-05 alpha_mix =  0.700 |ddv_scf|^2 =  2.725E-10

      iter #   5 total cpu time : 21365.3 secs   av.it.:   7.3
      thresh= 1.651E-06 alpha_mix =  0.700 |ddv_scf|^2 =  2.717E-13

     End of self-consistent calculation

     Convergence has been achieved 


     Representation #  3 mode #   3

     Self-consistent Calculation

      iter #   1 total cpu time : 21383.4 secs   av.it.:   5.7
      thresh= 1.000E-02 alpha_mix =  0.700 |ddv_scf|^2 =  6.893E-05

      iter #   2 total cpu time : 21402.0 secs   av.it.:   7.3
      thresh= 8.302E-04 alpha_mix =  0.700 |ddv_scf|^2 =  8.181E-06

      iter #   3 total cpu time : 21420.9 secs   av.it.:   7.3
      thresh= 2.860E-04 alpha_mix =  0.700 |ddv_scf|^2 =  6.199E-08

      iter #   4 total cpu time : 21440.5 secs   av.it.:   8.0
      thresh= 2.490E-05 alpha_mix =  0.700 |ddv_scf|^2 =  2.260E-10

      iter #   5 total cpu time : 21458.4 secs   av.it.:   7.1
      thresh= 1.503E-06 alpha_mix =  0.700 |ddv_scf|^2 =  4.099E-13

     End of self-consistent calculation

     Convergence has been achieved 

     Number of q in the star =   12
     List of q in the star:
          1  -0.250000000  -1.000000000   0.000000000
          2   0.000000000  -1.000000000   0.250000000
          3   0.000000000  -1.000000000  -0.250000000
          4   0.250000000  -1.000000000   0.000000000
          5  -1.000000000   0.000000000  -0.250000000
          6   1.000000000   0.000000000   0.250000000
          7  -1.000000000  -0.250000000   0.000000000
          8   0.000000000  -0.250000000  -1.000000000
          9   0.000000000   0.250000000  -1.000000000
         10   1.000000000   0.250000000   0.000000000
         11  -0.250000000   0.000000000   1.000000000
         12   0.250000000   0.000000000   1.000000000

     Diagonalizing the dynamical matrix

     q = (   -0.250000000  -1.000000000   0.000000000 ) 

 **************************************************************************
     freq (    1) =       3.787223 [THz] =     126.328172 [cm-1]
     freq (    2) =       4.360593 [THz] =     145.453737 [cm-1]
     freq (    3) =       6.008649 [THz] =     200.426960 [cm-1]
 **************************************************************************

     Mode symmetry, C_2v (mm2)  point group:

     freq (  1 -  1) =        126.3  [cm-1]   --> A_1  D_1  S_1      
     freq (  2 -  2) =        145.5  [cm-1]   --> B_1  D_3  S_3      
     freq (  3 -  3) =        200.4  [cm-1]   --> B_2  D_4  S_4      

     Calculation of q =   -0.5000000  -1.0000000   0.0000000

   Info: using nr1, nr2, nr3 values from input

   Info: using nr1, nr2, nr3 values from input

     Parallelization info
     --------------------
     sticks:   dense  smooth     PW     G-vecs:    dense   smooth      PW
     Min         222     109     46                 4393     1557     409
     Max         223     110     47                 4394     1558     411
     Sum         889     439    187                17573     6231    1639



     bravais-lattice index     =            2
     lattice parameter (alat)  =       9.0090  a.u.
     unit-cell volume          =     182.7948 (a.u.)^3
     number of atoms/cell      =            1
     number of atomic types    =            1
     number of electrons       =         9.00
     number of Kohn-Sham states=            9
     kinetic-energy cutoff     =      40.0000  Ry
     charge density cutoff     =     320.0000  Ry
     Exchange-correlation      = SLA  PW   PBE  PBE ( 1  4  3  4 0 0)

     celldm(1)=   9.008960  celldm(2)=   0.000000  celldm(3)=   0.000000
     celldm(4)=   0.000000  celldm(5)=   0.000000  celldm(6)=   0.000000

     crystal axes: (cart. coord. in units of alat)
               a(1) = (  -0.500000   0.000000   0.500000 )  
               a(2) = (   0.000000   0.500000   0.500000 )  
               a(3) = (  -0.500000   0.500000   0.000000 )  

     reciprocal axes: (cart. coord. in units 2 pi/alat)
               b(1) = ( -1.000000 -1.000000  1.000000 )  
               b(2) = (  1.000000  1.000000  1.000000 )  
               b(3) = ( -1.000000  1.000000 -1.000000 )  


     PseudoPot. # 1 for Na read from file:
     /home/s1333534/quantum_espresso/qe-6.1/pseudo/Na_pbe_v1.uspp.F.UPF
     MD5 check sum: 76a99c7e9422403d3e93cbc85ab7bccb
     Pseudo is Ultrasoft, Zval =  9.0
     Generated by new atomic code, or converted to UPF format
     Using radial grid of  819 points,  5 beta functions with: 
                l(1) =   0
                l(2) =   0
                l(3) =   1
                l(4) =   1
                l(5) =   2
     Q(r) pseudized with  8 coefficients,  rinner =    1.250   1.250   1.250
                                                       1.250   1.250

     atomic species   valence    mass     pseudopotential
        Na             9.00    22.99000     Na( 1.00)

     48 Sym. Ops., with inversion, found



   Cartesian axes

     site n.     atom                  positions (alat units)
         1           Na  tau(   1) = (   0.0000000   0.0000000   0.0000000  )

     number of k points=  2744  Marzari-Vanderbilt smearing, width (Ry)=  0.0200

     Number of k-points >= 100: set verbosity='high' to print them.

     Dense  grid:    17573 G-vectors     FFT dimensions: (  40,  40,  40)

     Smooth grid:     6231 G-vectors     FFT dimensions: (  25,  25,  25)

     Estimated max dynamical RAM per process >       1.90MB

     Estimated total allocated dynamical RAM >       7.58MB

     The potential is recalculated from file :
     ./_ph0/na.fcc.save/charge-density.dat

     Starting wfc are    5 atomic +    4 random wfc

     Band Structure Calculation
     Davidson diagonalization with overlap

     ethr =  1.11E-10,  avg # of iterations = 17.6

     total cpu time spent up to now is     4743.4 secs

     End of band structure calculation

     Number of k-points >= 100: set verbosity='high' to print the bands.

     the Fermi energy is     3.1544 ev

     Writing output data file na.fcc.save

                                                                                

     bravais-lattice index     =            2
     lattice parameter (alat)  =       9.0090  a.u.
     unit-cell volume          =     182.7948 (a.u.)^3
     number of atoms/cell      =            1
     number of atomic types    =            1
     kinetic-energy cut-off    =      40.0000  Ry
     charge density cut-off    =     320.0000  Ry
     convergence threshold     =      1.0E-12
     beta                      =       0.7000
     number of iterations used =            4
     Exchange-correlation      = SLA  PW   PBE  PBE ( 1  4  3  4 0 0)


     celldm(1)=    9.00896  celldm(2)=    0.00000  celldm(3)=    0.00000
     celldm(4)=    0.00000  celldm(5)=    0.00000  celldm(6)=    0.00000

     crystal axes: (cart. coord. in units of alat)
               a(1) = ( -0.5000  0.0000  0.5000 )  
               a(2) = (  0.0000  0.5000  0.5000 )  
               a(3) = ( -0.5000  0.5000  0.0000 )  

     reciprocal axes: (cart. coord. in units 2 pi/alat)
               b(1) = ( -1.0000 -1.0000  1.0000 )  
               b(2) = (  1.0000  1.0000  1.0000 )  
               b(3) = ( -1.0000  1.0000 -1.0000 )  


     Atoms inside the unit cell: 

     Cartesian axes

     site n.  atom      mass           positions (alat units)
        1     Na  22.9900   tau(    1) = (    0.00000    0.00000    0.00000  )

     Computing dynamical matrix for 
                    q = (  -0.5000000  -1.0000000   0.0000000 )

      8 Sym.Ops. (no q -> -q+G )


     G cutoff =  657.8691  (   4393 G-vectors)     FFT grid: ( 40, 40, 40)
     G cutoff =  328.9346  (   1557 G-vectors)  smooth grid: ( 25, 25, 25)

     number of k points=  2744  Marzari-Vanderbilt smearing, width (Ry)=  0.0200

     PseudoPot. # 1 for Na read from file:
     /home/s1333534/quantum_espresso/qe-6.1/pseudo/Na_pbe_v1.uspp.F.UPF
     MD5 check sum: 76a99c7e9422403d3e93cbc85ab7bccb
     Pseudo is Ultrasoft, Zval =  9.0
     Generated by new atomic code, or converted to UPF format
     Using radial grid of  819 points,  5 beta functions with: 
                l(1) =   0
                l(2) =   0
                l(3) =   1
                l(4) =   1
                l(5) =   2
     Q(r) pseudized with  8 coefficients,  rinner =    1.250   1.250   1.250
                                                       1.250   1.250

     Mode symmetry, D_2d (-42m) point group:


     Atomic displacements:
     There are   2 irreducible representations

     Representation     1      1 modes -B_2  X_3  W_2  To be done

     Representation     2      2 modes -E    X_5  W_3  To be done



     Alpha used in Ewald sum =   2.8000
     PHONON       :     5h23m CPU        5h58m WALL



     Representation #  1 mode #   1

     Self-consistent Calculation

      iter #   1 total cpu time : 21526.7 secs   av.it.:   5.6
      thresh= 1.000E-02 alpha_mix =  0.700 |ddv_scf|^2 =  2.950E-05

      iter #   2 total cpu time : 21536.3 secs   av.it.:   7.7
      thresh= 5.431E-04 alpha_mix =  0.700 |ddv_scf|^2 =  9.720E-07

      iter #   3 total cpu time : 21545.9 secs   av.it.:   7.6
      thresh= 9.859E-05 alpha_mix =  0.700 |ddv_scf|^2 =  2.291E-08

      iter #   4 total cpu time : 21556.1 secs   av.it.:   8.1
      thresh= 1.513E-05 alpha_mix =  0.700 |ddv_scf|^2 =  4.525E-10

      iter #   5 total cpu time : 21565.4 secs   av.it.:   7.5
      thresh= 2.127E-06 alpha_mix =  0.700 |ddv_scf|^2 =  7.108E-13

     End of self-consistent calculation

     Convergence has been achieved 


     Representation #  2 modes #   2  3

     Self-consistent Calculation

      iter #   1 total cpu time : 21583.1 secs   av.it.:   5.7
      thresh= 1.000E-02 alpha_mix =  0.700 |ddv_scf|^2 =  1.073E-05

      iter #   2 total cpu time : 21603.4 secs   av.it.:   8.2
      thresh= 3.275E-04 alpha_mix =  0.700 |ddv_scf|^2 =  4.697E-07

      iter #   3 total cpu time : 21623.1 secs   av.it.:   7.9
      thresh= 6.853E-05 alpha_mix =  0.700 |ddv_scf|^2 =  1.017E-08

      iter #   4 total cpu time : 21643.5 secs   av.it.:   8.5
      thresh= 1.009E-05 alpha_mix =  0.700 |ddv_scf|^2 =  6.180E-11

      iter #   5 total cpu time : 21662.6 secs   av.it.:   7.6
      thresh= 7.862E-07 alpha_mix =  0.700 |ddv_scf|^2 =  4.696E-14

     End of self-consistent calculation

     Convergence has been achieved 

     Number of q in the star =    6
     List of q in the star:
          1  -0.500000000  -1.000000000   0.000000000
          2   0.000000000   1.000000000   0.500000000
          3   0.500000000  -1.000000000   0.000000000
          4   0.000000000   1.000000000  -0.500000000
          5  -1.000000000  -0.500000000   0.000000000
          6   0.000000000  -0.500000000  -1.000000000

     Diagonalizing the dynamical matrix

     q = (   -0.500000000  -1.000000000   0.000000000 ) 

 **************************************************************************
     freq (    1) =       4.147701 [THz] =     138.352397 [cm-1]
     freq (    2) =       5.132593 [THz] =     171.204869 [cm-1]
     freq (    3) =       5.132593 [THz] =     171.204869 [cm-1]
 **************************************************************************

     Mode symmetry, D_2d (-42m) point group:

     freq (  1 -  1) =        138.4  [cm-1]   --> B_2  X_3  W_2      
     freq (  2 -  3) =        171.2  [cm-1]   --> E    X_5  W_3      

     init_run     :      7.93s CPU      8.03s WALL (      28 calls)
     electrons    :   4247.95s CPU   4569.16s WALL (      28 calls)

     Called by init_run:
     wfcinit      :      0.00s CPU      0.00s WALL (      28 calls)
     potinit      :      0.40s CPU      0.41s WALL (      28 calls)

     Called by electrons:
     c_bands      :   4246.80s CPU   4568.00s WALL (      28 calls)
     v_of_rho     :      0.32s CPU      0.33s WALL (      29 calls)
     newd         :      0.30s CPU      0.33s WALL (      29 calls)

     Called by c_bands:
     init_us_2    :    305.31s CPU    282.02s WALL ( 3402217 calls)
     cegterg      :   3895.39s CPU   4180.44s WALL (  277849 calls)

     Called by sum_band:

     Called by *egterg:
     h_psi        :  12856.04s CPU  14123.62s WALL (28283948 calls)
     s_psi        :    425.83s CPU    481.38s WALL (54225478 calls)
     g_psi        :     20.93s CPU     34.35s WALL ( 4230446 calls)
     cdiaghg      :    957.34s CPU    911.09s WALL ( 4470350 calls)

     Called by h_psi:
     h_psi:pot    :  12774.77s CPU  14025.81s WALL (28283948 calls)
     h_psi:calbec :    323.71s CPU    396.49s WALL (28283948 calls)
     vloc_psi     :  12152.94s CPU  13258.93s WALL (28283948 calls)
     add_vuspsi   :    237.46s CPU    288.81s WALL (28283948 calls)

     General routines
     calbec       :    702.16s CPU    768.69s WALL (60117147 calls)
     fft          :      3.04s CPU      3.20s WALL (    9007 calls)
     ffts         :     22.11s CPU     23.86s WALL (  363578 calls)
     fftw         :  12756.61s CPU  13778.62s WALL (******** calls)
     interpolate  :      0.52s CPU      0.59s WALL (    1249 calls)
     davcio       :    105.12s CPU    388.82s WALL (12852628 calls)

     Parallel routines
     fft_scatter  :   3379.33s CPU   3935.76s WALL (******** calls)

     PHONON       :     5h25m CPU        6h 1m WALL

     INITIALIZATION: 
     phq_setup    :      1.08s CPU      1.09s WALL (      29 calls)
     phq_init     :    335.89s CPU    356.62s WALL (      29 calls)

     phq_init     :    335.89s CPU    356.62s WALL (      29 calls)
     init_vloc    :      0.08s CPU      0.08s WALL (      29 calls)
     init_us_1    :      3.21s CPU      3.23s WALL (      29 calls)
     newd         :      0.30s CPU      0.33s WALL (      29 calls)
     dvanqq       :      1.23s CPU      1.24s WALL (      29 calls)
     drho         :    268.92s CPU    286.24s WALL (      29 calls)

     DYNAMICAL MATRIX:
     dynmat0      :     43.21s CPU     44.54s WALL (      29 calls)
     phqscf       :  14792.11s CPU  16555.06s WALL (      29 calls)
     dynmatrix    :      0.03s CPU      0.04s WALL (      29 calls)

     phqscf       :  14792.11s CPU  16555.06s WALL (      29 calls)
     solve_linter :  14720.37s CPU  16479.89s WALL (      76 calls)
     drhodv       :     71.66s CPU     75.03s WALL (      76 calls)

     dynmat0      :     43.21s CPU     44.54s WALL (      29 calls)
     dynmat_us    :     43.17s CPU     44.50s WALL (      29 calls)
     d2ionq       :      0.02s CPU      0.02s WALL (      29 calls)

     dynmat_us    :     43.17s CPU     44.50s WALL (      29 calls)
     addusdynmat  :      0.00s CPU      0.00s WALL (      29 calls)

     phqscf       :  14792.11s CPU  16555.06s WALL (      29 calls)
     solve_linter :  14720.37s CPU  16479.89s WALL (      76 calls)

     solve_linter :  14720.37s CPU  16479.89s WALL (      76 calls)
     dvqpsi_us    :    430.44s CPU    467.10s WALL (  360696 calls)
     ortho        :    141.56s CPU    162.32s WALL ( 2405781 calls)
     cgsolve      :  11506.04s CPU  12657.54s WALL ( 2405781 calls)
     incdrhoscf   :   1244.43s CPU   1385.96s WALL ( 2405781 calls)
     addusddens   :      9.63s CPU      9.71s WALL (     573 calls)
     vpsifft      :    953.95s CPU   1077.53s WALL ( 2045085 calls)
     dv_of_drho   :      3.71s CPU      3.81s WALL (     552 calls)
     mix_pot      :      0.52s CPU      2.07s WALL (     497 calls)
     ef_shift     :      0.01s CPU      0.03s WALL (       6 calls)
     localdos     :      0.14s CPU      0.15s WALL (       1 calls)
     psymdvscf    :      7.01s CPU      7.15s WALL (     455 calls)
     newdq        :      8.70s CPU      8.77s WALL (     497 calls)
     adddvscf     :     51.19s CPU     55.53s WALL ( 2045085 calls)
     drhodvus     :      0.02s CPU      0.03s WALL (      76 calls)

     dvqpsi_us    :    430.44s CPU    467.10s WALL (  360696 calls)
     dvqpsi_us_on :     84.52s CPU     80.30s WALL (  360696 calls)

     cgsolve      :  11506.04s CPU  12657.54s WALL ( 2405781 calls)
     ch_psi       :  11242.22s CPU  12383.73s WALL (23535749 calls)

     ch_psi       :  11242.22s CPU  12383.73s WALL (23535749 calls)
     h_psi        :  12856.04s CPU  14123.62s WALL (28283948 calls)
     last         :    807.21s CPU    895.73s WALL (23535749 calls)

     h_psi        :  12856.04s CPU  14123.62s WALL (28283948 calls)
     add_vuspsi   :    237.46s CPU    288.81s WALL (28283948 calls)

     incdrhoscf   :   1244.43s CPU   1385.96s WALL ( 2405781 calls)
     addusdbec    :     64.95s CPU     66.89s WALL ( 2766477 calls)

     drhodvus     :      0.02s CPU      0.03s WALL (      76 calls)

      General routines
     calbec       :    702.16s CPU    768.69s WALL (60117147 calls)
     fft          :      3.04s CPU      3.20s WALL (    9007 calls)
     ffts         :     22.11s CPU     23.86s WALL (  363578 calls)
     fftw         :  12756.61s CPU  13778.62s WALL (******** calls)
     davcio       :    105.12s CPU    388.82s WALL (12852628 calls)
     write_rec    :      0.40s CPU      1.30s WALL (     573 calls)


     PHONON       :     5h25m CPU        6h 1m WALL


   This run was terminated on:  18:20:24  21Dec2017            

=------------------------------------------------------------------------------=
   JOB DONE.
=------------------------------------------------------------------------------=
