
     Program PHONON v.5.4.0 starts on  5Jun2016 at  8:25: 3 

     This program is part of the open-source Quantum ESPRESSO suite
     for quantum simulation of materials; please cite
         "P. Giannozzi et al., J. Phys.:Condens. Matter 21 395502 (2009);
          URL http://www.quantum-espresso.org", 
     in publications or presentations arising from this work. More details at
     http://www.quantum-espresso.org/quote

     Parallel version (MPI), running on   384 processors
     K-points division:     npool     =     384

     Reading data from directory:
     ./tmp/li-fcc.save

   Info: using nr1, nr2, nr3 values from input

   Info: using nr1, nr2, nr3 values from input

     IMPORTANT: XC functional enforced from input :
     Exchange-correlation      =  SLA  PW   PBX  PBC ( 1  4  3  4 0 0)
     Any further DFT definition will be discarded
     Please, verify this is what you really want

 
     G-vector sticks info
     --------------------
     sticks:   dense  smooth     PW     G-vecs:    dense   smooth      PW
     Sum         955     475    163                19795     6879    1411
 


     Dynamical matrices for ( 8, 8, 8)  uniform grid of q-points
     (  29q-points):
       N         xq(1)         xq(2)         xq(3) 
       1   0.000000000   0.000000000   0.000000000
       2  -0.125000000   0.125000000  -0.125000000
       3  -0.250000000   0.250000000  -0.250000000
       4  -0.375000000   0.375000000  -0.375000000
       5   0.500000000  -0.500000000   0.500000000
       6   0.000000000   0.250000000   0.000000000
       7  -0.125000000   0.375000000  -0.125000000
       8  -0.250000000   0.500000000  -0.250000000
       9   0.625000000  -0.375000000   0.625000000
      10   0.500000000  -0.250000000   0.500000000
      11   0.375000000  -0.125000000   0.375000000
      12   0.250000000   0.000000000   0.250000000
      13   0.000000000   0.500000000   0.000000000
      14  -0.125000000   0.625000000  -0.125000000
      15   0.750000000  -0.250000000   0.750000000
      16   0.625000000  -0.125000000   0.625000000
      17   0.500000000   0.000000000   0.500000000
      18   0.000000000   0.750000000   0.000000000
      19   0.875000000  -0.125000000   0.875000000
      20   0.750000000   0.000000000   0.750000000
      21   0.000000000  -1.000000000   0.000000000
      22  -0.250000000   0.500000000   0.000000000
      23   0.625000000  -0.375000000   0.875000000
      24   0.500000000  -0.250000000   0.750000000
      25   0.750000000  -0.250000000   1.000000000
      26   0.625000000  -0.125000000   0.875000000
      27   0.500000000   0.000000000   0.750000000
      28  -0.250000000  -1.000000000   0.000000000
      29  -0.500000000  -1.000000000   0.000000000

     Calculation of q =   -0.2500000   0.5000000   0.0000000
 
     G-vector sticks info
     --------------------
     sticks:   dense  smooth     PW     G-vecs:    dense   smooth      PW
     Sum         955     475    187                19795     6879    1639
 


     bravais-lattice index     =            2
     lattice parameter (alat)  =       7.6394  a.u.
     unit-cell volume          =     111.4587 (a.u.)^3
     number of atoms/cell      =            1
     number of atomic types    =            1
     number of electrons       =         3.00
     number of Kohn-Sham states=            6
     kinetic-energy cutoff     =      60.0000  Ry
     charge density cutoff     =     480.0000  Ry
     Exchange-correlation      =  SLA  PW   PBX  PBC ( 1  4  3  4 0 0)

     celldm(1)=   7.639378  celldm(2)=   0.000000  celldm(3)=   0.000000
     celldm(4)=   0.000000  celldm(5)=   0.000000  celldm(6)=   0.000000

     crystal axes: (cart. coord. in units of alat)
               a(1) = (  -0.500000   0.000000   0.500000 )  
               a(2) = (   0.000000   0.500000   0.500000 )  
               a(3) = (  -0.500000   0.500000   0.000000 )  

     reciprocal axes: (cart. coord. in units 2 pi/alat)
               b(1) = ( -1.000000 -1.000000  1.000000 )  
               b(2) = (  1.000000  1.000000  1.000000 )  
               b(3) = ( -1.000000  1.000000 -1.000000 )  


     PseudoPot. # 1 for Li read from file:
     ../Li.pbe-s-gbrv14.UPF
     MD5 check sum: 7ca33c4f951f001da2db5c8738379802
     Pseudo is Ultrasoft, Zval =  3.0
     Generated by new atomic code, or converted to UPF format
     Using radial grid of  751 points,  5 beta functions with: 
                l(1) =   0
                l(2) =   0
                l(3) =   0
                l(4) =   1
                l(5) =   1
     Q(r) pseudized with 10 coefficients,  rinner =    1.150   1.150   1.150


     atomic species   valence    mass     pseudopotential
        Li             3.00     6.94100     Li( 1.00)

     48 Sym. Ops., with inversion, found



   Cartesian axes

     site n.     atom                  positions (alat units)
         1           Li  tau(   1) = (   0.0000000   0.0000000   0.0000000  )

     number of k points= 87808  Marzari-Vanderbilt smearing, width (Ry)=  0.0200

     Number of k-points >= 100: set verbosity='high' to print them.

     Dense  grid:    19795 G-vectors     FFT dimensions: (  40,  40,  40)

     Smooth grid:     6879 G-vectors     FFT dimensions: (  27,  27,  27)

     Largest allocated arrays     est. size (Mb)     dimensions
        Kohn-Sham Wavefunctions         0.08 Mb     (     899,    6)
        NL pseudopotentials             0.12 Mb     (     899,    9)
        Each V/rho on FFT grid          0.98 Mb     (   64000)
        Each G-vector array             0.15 Mb     (   19795)
        G-vector shells                 0.00 Mb     (     239)
     Largest temporary arrays     est. size (Mb)     dimensions
        Auxiliary wavefunctions         0.33 Mb     (     899,   24)
        Each subspace H/S matrix        0.01 Mb     (      24,   24)
        Each <psi_i|beta_j> matrix      0.00 Mb     (       9,    6)

     The potential is recalculated from file :
     ./tmp/_ph0/li-fcc.save/charge-density.dat

     Starting wfc are    5 atomic +    1 random wfc

     Band Structure Calculation
     Davidson diagonalization with overlap

     ethr =  3.33E-10,  avg # of iterations = 14.9

     total cpu time spent up to now is       23.4 secs

     End of band structure calculation

     Number of k-points >= 100: set verbosity='high' to print the bands.

     the Fermi energy is     1.6339 ev

                                                                                

     bravais-lattice index     =            2
     lattice parameter (alat)  =       7.6394  a.u.
     unit-cell volume          =     111.4587 (a.u.)^3
     number of atoms/cell      =            1
     number of atomic types    =            1
     kinetic-energy cut-off    =      60.0000  Ry
     charge density cut-off    =     480.0000  Ry
     convergence threshold     =      1.0E-16
     beta                      =       0.7000
     number of iterations used =            4
     Exchange-correlation      =  SLA  PW   PBX  PBC ( 1  4  3  4 0 0)


     celldm(1)=    7.63938  celldm(2)=    0.00000  celldm(3)=    0.00000
     celldm(4)=    0.00000  celldm(5)=    0.00000  celldm(6)=    0.00000

     crystal axes: (cart. coord. in units of alat)
               a(1) = ( -0.5000  0.0000  0.5000 )  
               a(2) = (  0.0000  0.5000  0.5000 )  
               a(3) = ( -0.5000  0.5000  0.0000 )  

     reciprocal axes: (cart. coord. in units 2 pi/alat)
               b(1) = ( -1.0000 -1.0000  1.0000 )  
               b(2) = (  1.0000  1.0000  1.0000 )  
               b(3) = ( -1.0000  1.0000 -1.0000 )  


     Atoms inside the unit cell: 

     Cartesian axes

     site n.  atom      mass           positions (alat units)
        1     Li   6.9410   tau(    1) = (    0.00000    0.00000    0.00000  )

     Computing dynamical matrix for 
                    q = (  -0.2500000   0.5000000   0.0000000 )
 
      2 Sym.Ops. (no q -> -q+G )


     G cutoff =  709.5737  (  19795 G-vectors)     FFT grid: ( 40, 40, 40)
     G cutoff =  354.7868  (   6879 G-vectors)  smooth grid: ( 27, 27, 27)

     number of k points= 87808  Marzari-Vanderbilt smearing, width (Ry)=  0.0200

     PseudoPot. # 1 for Li read from file:
     ../Li.pbe-s-gbrv14.UPF
     MD5 check sum: 7ca33c4f951f001da2db5c8738379802
     Pseudo is Ultrasoft, Zval =  3.0
     Generated by new atomic code, or converted to UPF format
     Using radial grid of  751 points,  5 beta functions with: 
                l(1) =   0
                l(2) =   0
                l(3) =   0
                l(4) =   1
                l(5) =   1
     Q(r) pseudized with 10 coefficients,  rinner =    1.150   1.150   1.150


     Mode symmetry, C_s (m)     point group:


     Atomic displacements:
     There are   3 irreducible representations

     Representation     1      1 modes -A'  To be done

     Representation     2      1 modes -A'  To be done

     Representation     3      1 modes -A''  To be done



     Alpha used in Ewald sum =   2.8000
     PHONON       :    36.96s CPU        43.45s WALL



     Representation #  1 mode #   1

     Self-consistent Calculation

      iter #   1 total cpu time :    46.1 secs   av.it.:   6.5
      thresh= 1.000E-02 alpha_mix =  0.700 |ddv_scf|^2 =  1.671E-04

      iter #   2 total cpu time :    49.0 secs   av.it.:   8.1
      thresh= 1.293E-03 alpha_mix =  0.700 |ddv_scf|^2 =  1.499E-03

      iter #   3 total cpu time :    52.9 secs   av.it.:   6.6
      thresh= 3.872E-03 alpha_mix =  0.700 |ddv_scf|^2 =  8.496E-08

      iter #   4 total cpu time :    64.1 secs   av.it.:   9.0
      thresh= 2.915E-05 alpha_mix =  0.700 |ddv_scf|^2 =  1.166E-09

      iter #   5 total cpu time :    68.0 secs   av.it.:   9.1
      thresh= 3.415E-06 alpha_mix =  0.700 |ddv_scf|^2 =  5.621E-11

      iter #   6 total cpu time :    71.4 secs   av.it.:   8.7
      thresh= 7.497E-07 alpha_mix =  0.700 |ddv_scf|^2 =  2.342E-13

      iter #   7 total cpu time :    76.1 secs   av.it.:   9.6
      thresh= 4.840E-08 alpha_mix =  0.700 |ddv_scf|^2 =  2.911E-14

      iter #   8 total cpu time :    81.0 secs   av.it.:   7.5
      thresh= 1.706E-08 alpha_mix =  0.700 |ddv_scf|^2 =  2.520E-14

      iter #   9 total cpu time :    85.1 secs   av.it.:   7.6
      thresh= 1.587E-08 alpha_mix =  0.700 |ddv_scf|^2 =  1.292E-15

      iter #  10 total cpu time :    87.8 secs   av.it.:   7.4
      thresh= 3.594E-09 alpha_mix =  0.700 |ddv_scf|^2 =  4.177E-17

     End of self-consistent calculation

     Convergence has been achieved 


     Representation #  2 mode #   2

     Self-consistent Calculation

      iter #   1 total cpu time :    91.0 secs   av.it.:   6.3
      thresh= 1.000E-02 alpha_mix =  0.700 |ddv_scf|^2 =  5.058E-05

      iter #   2 total cpu time :    93.8 secs   av.it.:   8.3
      thresh= 7.112E-04 alpha_mix =  0.700 |ddv_scf|^2 =  4.451E-04

      iter #   3 total cpu time :    96.7 secs   av.it.:   6.6
      thresh= 2.110E-03 alpha_mix =  0.700 |ddv_scf|^2 =  4.954E-08

      iter #   4 total cpu time :   100.6 secs   av.it.:   9.2
      thresh= 2.226E-05 alpha_mix =  0.700 |ddv_scf|^2 =  1.362E-09

      iter #   5 total cpu time :   103.4 secs   av.it.:   8.7
      thresh= 3.691E-06 alpha_mix =  0.700 |ddv_scf|^2 =  2.269E-11

      iter #   6 total cpu time :   106.1 secs   av.it.:   8.8
      thresh= 4.764E-07 alpha_mix =  0.700 |ddv_scf|^2 =  4.636E-13

      iter #   7 total cpu time :   108.9 secs   av.it.:   9.0
      thresh= 6.809E-08 alpha_mix =  0.700 |ddv_scf|^2 =  3.891E-14

      iter #   8 total cpu time :   112.3 secs   av.it.:   7.6
      thresh= 1.972E-08 alpha_mix =  0.700 |ddv_scf|^2 =  1.272E-14

      iter #   9 total cpu time :   114.9 secs   av.it.:   8.0
      thresh= 1.128E-08 alpha_mix =  0.700 |ddv_scf|^2 =  2.651E-15

      iter #  10 total cpu time :   118.5 secs   av.it.:   7.6
      thresh= 5.149E-09 alpha_mix =  0.700 |ddv_scf|^2 =  7.207E-17

     End of self-consistent calculation

     Convergence has been achieved 


     Representation #  3 mode #   3

     Self-consistent Calculation

      iter #   1 total cpu time :   122.2 secs   av.it.:   6.0
      thresh= 1.000E-02 alpha_mix =  0.700 |ddv_scf|^2 =  1.504E-06

      iter #   2 total cpu time :   133.9 secs   av.it.:   8.8
      thresh= 1.226E-04 alpha_mix =  0.700 |ddv_scf|^2 =  7.401E-08

      iter #   3 total cpu time :   138.2 secs   av.it.:   8.9
      thresh= 2.721E-05 alpha_mix =  0.700 |ddv_scf|^2 =  1.946E-09

      iter #   4 total cpu time :   141.7 secs   av.it.:   8.5
      thresh= 4.411E-06 alpha_mix =  0.700 |ddv_scf|^2 =  3.526E-12

      iter #   5 total cpu time :   146.3 secs   av.it.:   8.7
      thresh= 1.878E-07 alpha_mix =  0.700 |ddv_scf|^2 =  8.324E-15

      iter #   6 total cpu time :   149.3 secs   av.it.:   8.1
      thresh= 9.124E-09 alpha_mix =  0.700 |ddv_scf|^2 =  2.874E-16

      iter #   7 total cpu time :   153.0 secs   av.it.:   8.2
      thresh= 1.695E-09 alpha_mix =  0.700 |ddv_scf|^2 =  7.619E-20

     End of self-consistent calculation

     Convergence has been achieved 
 
     Number of q in the star =   24
     List of q in the star:
          1  -0.250000000   0.500000000   0.000000000
          2  -0.250000000  -0.500000000   0.000000000
          3   0.250000000   0.000000000  -0.500000000
          4   0.250000000   0.000000000   0.500000000
          5   0.250000000  -0.500000000   0.000000000
          6   0.000000000   0.500000000   0.250000000
          7   0.000000000   0.500000000  -0.250000000
          8   0.000000000  -0.500000000  -0.250000000
          9   0.000000000  -0.500000000   0.250000000
         10   0.500000000   0.000000000  -0.250000000
         11  -0.500000000   0.000000000   0.250000000
         12   0.500000000   0.000000000   0.250000000
         13   0.500000000  -0.250000000   0.000000000
         14   0.000000000  -0.250000000   0.500000000
         15   0.000000000   0.250000000  -0.500000000
         16   0.000000000   0.250000000   0.500000000
         17   0.000000000  -0.250000000  -0.500000000
         18  -0.500000000   0.250000000   0.000000000
         19  -0.500000000   0.000000000  -0.250000000
         20  -0.500000000  -0.250000000   0.000000000
         21   0.500000000   0.250000000   0.000000000
         22  -0.250000000   0.000000000  -0.500000000
         23   0.250000000   0.500000000   0.000000000
         24  -0.250000000   0.000000000   0.500000000

     Diagonalizing the dynamical matrix

     q = (   -0.250000000   0.500000000   0.000000000 ) 

 **************************************************************************
     freq (    1) =       4.436489 [THz] =     147.985356 [cm-1]
     freq (    2) =       7.189280 [THz] =     239.808561 [cm-1]
     freq (    3) =       8.847536 [THz] =     295.122039 [cm-1]
 **************************************************************************

     Mode symmetry, C_s (m)     point group:

     freq (  1 -  1) =        148.0  [cm-1]   --> A'                 
     freq (  2 -  2) =        239.8  [cm-1]   --> A''                
     freq (  3 -  3) =        295.1  [cm-1]   --> A'                 

     Calculation of q =    0.6250000  -0.3750000   0.8750000
 
     G-vector sticks info
     --------------------
     sticks:   dense  smooth     PW     G-vecs:    dense   smooth      PW
     Sum         955     475    199                19795     6879    1893
 


     bravais-lattice index     =            2
     lattice parameter (alat)  =       7.6394  a.u.
     unit-cell volume          =     111.4587 (a.u.)^3
     number of atoms/cell      =            1
     number of atomic types    =            1
     number of electrons       =         3.00
     number of Kohn-Sham states=            6
     kinetic-energy cutoff     =      60.0000  Ry
     charge density cutoff     =     480.0000  Ry
     Exchange-correlation      =  SLA  PW   PBX  PBC ( 1  4  3  4 0 0)

     celldm(1)=   7.639378  celldm(2)=   0.000000  celldm(3)=   0.000000
     celldm(4)=   0.000000  celldm(5)=   0.000000  celldm(6)=   0.000000

     crystal axes: (cart. coord. in units of alat)
               a(1) = (  -0.500000   0.000000   0.500000 )  
               a(2) = (   0.000000   0.500000   0.500000 )  
               a(3) = (  -0.500000   0.500000   0.000000 )  

     reciprocal axes: (cart. coord. in units 2 pi/alat)
               b(1) = ( -1.000000 -1.000000  1.000000 )  
               b(2) = (  1.000000  1.000000  1.000000 )  
               b(3) = ( -1.000000  1.000000 -1.000000 )  


     PseudoPot. # 1 for Li read from file:
     ../Li.pbe-s-gbrv14.UPF
     MD5 check sum: 7ca33c4f951f001da2db5c8738379802
     Pseudo is Ultrasoft, Zval =  3.0
     Generated by new atomic code, or converted to UPF format
     Using radial grid of  751 points,  5 beta functions with: 
                l(1) =   0
                l(2) =   0
                l(3) =   0
                l(4) =   1
                l(5) =   1
     Q(r) pseudized with 10 coefficients,  rinner =    1.150   1.150   1.150


     atomic species   valence    mass     pseudopotential
        Li             3.00     6.94100     Li( 1.00)

     48 Sym. Ops., with inversion, found



   Cartesian axes

     site n.     atom                  positions (alat units)
         1           Li  tau(   1) = (   0.0000000   0.0000000   0.0000000  )

     number of k points=175616  Marzari-Vanderbilt smearing, width (Ry)=  0.0200

     Number of k-points >= 100: set verbosity='high' to print them.

     Dense  grid:    19795 G-vectors     FFT dimensions: (  40,  40,  40)

     Smooth grid:     6879 G-vectors     FFT dimensions: (  27,  27,  27)

     Largest allocated arrays     est. size (Mb)     dimensions
        Kohn-Sham Wavefunctions         0.08 Mb     (     899,    6)
        NL pseudopotentials             0.12 Mb     (     899,    9)
        Each V/rho on FFT grid          0.98 Mb     (   64000)
        Each G-vector array             0.15 Mb     (   19795)
        G-vector shells                 0.00 Mb     (     239)
     Largest temporary arrays     est. size (Mb)     dimensions
        Auxiliary wavefunctions         0.33 Mb     (     899,   24)
        Each subspace H/S matrix        0.01 Mb     (      24,   24)
        Each <psi_i|beta_j> matrix      0.00 Mb     (       9,    6)

     The potential is recalculated from file :
     ./tmp/_ph0/li-fcc.save/charge-density.dat

     Starting wfc are    5 atomic +    1 random wfc

     Band Structure Calculation
     Davidson diagonalization with overlap

     ethr =  3.33E-10,  avg # of iterations = 14.9

     total cpu time spent up to now is       68.2 secs

     End of band structure calculation

     Number of k-points >= 100: set verbosity='high' to print the bands.

     the Fermi energy is     1.6339 ev

                                                                                

     bravais-lattice index     =            2
     lattice parameter (alat)  =       7.6394  a.u.
     unit-cell volume          =     111.4587 (a.u.)^3
     number of atoms/cell      =            1
     number of atomic types    =            1
     kinetic-energy cut-off    =      60.0000  Ry
     charge density cut-off    =     480.0000  Ry
     convergence threshold     =      1.0E-16
     beta                      =       0.7000
     number of iterations used =            4
     Exchange-correlation      =  SLA  PW   PBX  PBC ( 1  4  3  4 0 0)


     celldm(1)=    7.63938  celldm(2)=    0.00000  celldm(3)=    0.00000
     celldm(4)=    0.00000  celldm(5)=    0.00000  celldm(6)=    0.00000

     crystal axes: (cart. coord. in units of alat)
               a(1) = ( -0.5000  0.0000  0.5000 )  
               a(2) = (  0.0000  0.5000  0.5000 )  
               a(3) = ( -0.5000  0.5000  0.0000 )  

     reciprocal axes: (cart. coord. in units 2 pi/alat)
               b(1) = ( -1.0000 -1.0000  1.0000 )  
               b(2) = (  1.0000  1.0000  1.0000 )  
               b(3) = ( -1.0000  1.0000 -1.0000 )  


     Atoms inside the unit cell: 

     Cartesian axes

     site n.  atom      mass           positions (alat units)
        1     Li   6.9410   tau(    1) = (    0.00000    0.00000    0.00000  )

     Computing dynamical matrix for 
                    q = (   0.6250000  -0.3750000   0.8750000 )
 
     No symmetry!

     G cutoff =  709.5737  (  19795 G-vectors)     FFT grid: ( 40, 40, 40)
     G cutoff =  354.7868  (   6879 G-vectors)  smooth grid: ( 27, 27, 27)

     number of k points=175616  Marzari-Vanderbilt smearing, width (Ry)=  0.0200

     PseudoPot. # 1 for Li read from file:
     ../Li.pbe-s-gbrv14.UPF
     MD5 check sum: 7ca33c4f951f001da2db5c8738379802
     Pseudo is Ultrasoft, Zval =  3.0
     Generated by new atomic code, or converted to UPF format
     Using radial grid of  751 points,  5 beta functions with: 
                l(1) =   0
                l(2) =   0
                l(3) =   0
                l(4) =   1
                l(5) =   1
     Q(r) pseudized with 10 coefficients,  rinner =    1.150   1.150   1.150


     Mode symmetry, C_1 (1)     point group:


     Atomic displacements:
     There are   3 irreducible representations

     Representation     1      1 modes -A  To be done

     Representation     2      1 modes -A  To be done

     Representation     3      1 modes -A  To be done



     Alpha used in Ewald sum =   2.8000
     PHONON       :  2m57.95s CPU     3m31.23s WALL



     Representation #  1 mode #   1

     Self-consistent Calculation

      iter #   1 total cpu time :   216.3 secs   av.it.:   6.4
      thresh= 1.000E-02 alpha_mix =  0.700 |ddv_scf|^2 =  7.714E-06

      iter #   2 total cpu time :   223.5 secs   av.it.:   8.7
      thresh= 2.777E-04 alpha_mix =  0.700 |ddv_scf|^2 =  8.966E-06

      iter #   3 total cpu time :   230.0 secs   av.it.:   7.7
      thresh= 2.994E-04 alpha_mix =  0.700 |ddv_scf|^2 =  5.926E-08

      iter #   4 total cpu time :   242.7 secs   av.it.:   8.8
      thresh= 2.434E-05 alpha_mix =  0.700 |ddv_scf|^2 =  1.339E-09

      iter #   5 total cpu time :   249.5 secs   av.it.:   8.9
      thresh= 3.659E-06 alpha_mix =  0.700 |ddv_scf|^2 =  2.157E-11

      iter #   6 total cpu time :   265.1 secs   av.it.:   8.9
      thresh= 4.644E-07 alpha_mix =  0.700 |ddv_scf|^2 =  1.887E-13

      iter #   7 total cpu time :   271.7 secs   av.it.:   9.1
      thresh= 4.344E-08 alpha_mix =  0.700 |ddv_scf|^2 =  5.748E-15

      iter #   8 total cpu time :   278.4 secs   av.it.:   8.9
      thresh= 7.582E-09 alpha_mix =  0.700 |ddv_scf|^2 =  5.474E-15

      iter #   9 total cpu time :   292.3 secs   av.it.:   7.8
      thresh= 7.399E-09 alpha_mix =  0.700 |ddv_scf|^2 =  2.550E-16

      iter #  10 total cpu time :   298.1 secs   av.it.:   8.2
      thresh= 1.597E-09 alpha_mix =  0.700 |ddv_scf|^2 =  2.477E-17

     End of self-consistent calculation

     Convergence has been achieved 


     Representation #  2 mode #   2

     Self-consistent Calculation

      iter #   1 total cpu time :   311.0 secs   av.it.:   6.4
      thresh= 1.000E-02 alpha_mix =  0.700 |ddv_scf|^2 =  2.125E-05

      iter #   2 total cpu time :   316.2 secs   av.it.:   8.7
      thresh= 4.610E-04 alpha_mix =  0.700 |ddv_scf|^2 =  3.105E-05

      iter #   3 total cpu time :   321.2 secs   av.it.:   7.6
      thresh= 5.572E-04 alpha_mix =  0.700 |ddv_scf|^2 =  3.524E-08

      iter #   4 total cpu time :   326.6 secs   av.it.:   9.1
      thresh= 1.877E-05 alpha_mix =  0.700 |ddv_scf|^2 =  6.559E-10

      iter #   5 total cpu time :   342.8 secs   av.it.:   9.0
      thresh= 2.561E-06 alpha_mix =  0.700 |ddv_scf|^2 =  7.230E-12

      iter #   6 total cpu time :   358.8 secs   av.it.:   9.0
      thresh= 2.689E-07 alpha_mix =  0.700 |ddv_scf|^2 =  1.054E-13

      iter #   7 total cpu time :   365.4 secs   av.it.:   9.6
      thresh= 3.246E-08 alpha_mix =  0.700 |ddv_scf|^2 =  2.628E-15

      iter #   8 total cpu time :   372.8 secs   av.it.:   8.9
      thresh= 5.126E-09 alpha_mix =  0.700 |ddv_scf|^2 =  2.603E-15

      iter #   9 total cpu time :   378.5 secs   av.it.:   8.0
      thresh= 5.102E-09 alpha_mix =  0.700 |ddv_scf|^2 =  6.296E-17

     End of self-consistent calculation

     Convergence has been achieved 


     Representation #  3 mode #   3

     Self-consistent Calculation

      iter #   1 total cpu time :   385.0 secs   av.it.:   6.3
      thresh= 1.000E-02 alpha_mix =  0.700 |ddv_scf|^2 =  7.240E-06

      iter #   2 total cpu time :   390.7 secs   av.it.:   8.7
      thresh= 2.691E-04 alpha_mix =  0.700 |ddv_scf|^2 =  8.263E-06

      iter #   3 total cpu time :   395.6 secs   av.it.:   7.8
      thresh= 2.875E-04 alpha_mix =  0.700 |ddv_scf|^2 =  6.374E-08

      iter #   4 total cpu time :   401.3 secs   av.it.:   8.8
      thresh= 2.525E-05 alpha_mix =  0.700 |ddv_scf|^2 =  1.255E-09

      iter #   5 total cpu time :   407.5 secs   av.it.:   8.9
      thresh= 3.543E-06 alpha_mix =  0.700 |ddv_scf|^2 =  1.585E-11

      iter #   6 total cpu time :   413.6 secs   av.it.:   9.1
      thresh= 3.981E-07 alpha_mix =  0.700 |ddv_scf|^2 =  1.045E-13

      iter #   7 total cpu time :   419.3 secs   av.it.:   9.2
      thresh= 3.233E-08 alpha_mix =  0.700 |ddv_scf|^2 =  2.530E-15

      iter #   8 total cpu time :   425.0 secs   av.it.:   9.2
      thresh= 5.030E-09 alpha_mix =  0.700 |ddv_scf|^2 =  6.535E-17

     End of self-consistent calculation

     Convergence has been achieved 
 
     Number of q in the star =   48
     List of q in the star:
          1   0.625000000  -0.375000000   0.875000000
          2   0.625000000  -0.375000000  -0.875000000
          3   0.625000000   0.375000000   0.875000000
          4   0.625000000   0.375000000  -0.875000000
          5  -0.625000000  -0.875000000   0.375000000
          6  -0.625000000  -0.875000000  -0.375000000
          7  -0.625000000   0.875000000   0.375000000
          8  -0.625000000   0.875000000  -0.375000000
          9  -0.625000000   0.375000000  -0.875000000
         10  -0.625000000   0.375000000   0.875000000
         11   0.875000000  -0.375000000  -0.625000000
         12  -0.875000000  -0.375000000   0.625000000
         13   0.875000000   0.375000000   0.625000000
         14  -0.875000000   0.375000000   0.625000000
         15   0.875000000   0.375000000  -0.625000000
         16  -0.875000000   0.375000000  -0.625000000
         17  -0.375000000   0.875000000   0.625000000
         18   0.375000000   0.875000000  -0.625000000
         19  -0.375000000  -0.875000000  -0.625000000
         20  -0.375000000   0.625000000  -0.875000000
         21   0.875000000   0.625000000  -0.375000000
         22   0.875000000  -0.625000000   0.375000000
         23  -0.875000000  -0.625000000  -0.375000000
         24  -0.875000000   0.625000000   0.375000000
         25  -0.375000000   0.875000000  -0.625000000
         26   0.375000000  -0.625000000   0.875000000
         27  -0.875000000   0.625000000  -0.375000000
         28   0.375000000  -0.875000000   0.625000000
         29   0.375000000   0.625000000   0.875000000
         30  -0.375000000   0.625000000   0.875000000
         31   0.375000000   0.625000000  -0.875000000
         32  -0.375000000  -0.625000000  -0.875000000
         33   0.625000000  -0.875000000   0.375000000
         34  -0.375000000  -0.625000000   0.875000000
         35  -0.625000000  -0.375000000  -0.875000000
         36   0.625000000   0.875000000   0.375000000
         37   0.375000000  -0.625000000  -0.875000000
         38   0.625000000   0.875000000  -0.375000000
         39   0.875000000  -0.375000000   0.625000000
         40  -0.625000000  -0.375000000   0.875000000
         41   0.375000000  -0.875000000  -0.625000000
         42  -0.375000000  -0.875000000   0.625000000
         43   0.375000000   0.875000000   0.625000000
         44   0.625000000  -0.875000000  -0.375000000
         45  -0.875000000  -0.625000000   0.375000000
         46  -0.875000000  -0.375000000  -0.625000000
         47   0.875000000   0.625000000   0.375000000
         48   0.875000000  -0.625000000  -0.375000000

     Diagonalizing the dynamical matrix

     q = (    0.625000000  -0.375000000   0.875000000 ) 

 **************************************************************************
     freq (    1) =       5.538138 [THz] =     184.732397 [cm-1]
     freq (    2) =       8.375525 [THz] =     279.377457 [cm-1]
     freq (    3) =      10.954819 [THz] =     365.413441 [cm-1]
 **************************************************************************

     Mode symmetry, C_1 (1)     point group:

     freq (  1 -  1) =        184.7  [cm-1]   --> A                  
     freq (  2 -  2) =        279.4  [cm-1]   --> A                  
     freq (  3 -  3) =        365.4  [cm-1]   --> A                  

     Calculation of q =    0.5000000  -0.2500000   0.7500000
 
     G-vector sticks info
     --------------------
     sticks:   dense  smooth     PW     G-vecs:    dense   smooth      PW
     Sum         955     475    199                19795     6879    1807
 


     bravais-lattice index     =            2
     lattice parameter (alat)  =       7.6394  a.u.
     unit-cell volume          =     111.4587 (a.u.)^3
     number of atoms/cell      =            1
     number of atomic types    =            1
     number of electrons       =         3.00
     number of Kohn-Sham states=            6
     kinetic-energy cutoff     =      60.0000  Ry
     charge density cutoff     =     480.0000  Ry
     Exchange-correlation      =  SLA  PW   PBX  PBC ( 1  4  3  4 0 0)

     celldm(1)=   7.639378  celldm(2)=   0.000000  celldm(3)=   0.000000
     celldm(4)=   0.000000  celldm(5)=   0.000000  celldm(6)=   0.000000

     crystal axes: (cart. coord. in units of alat)
               a(1) = (  -0.500000   0.000000   0.500000 )  
               a(2) = (   0.000000   0.500000   0.500000 )  
               a(3) = (  -0.500000   0.500000   0.000000 )  

     reciprocal axes: (cart. coord. in units 2 pi/alat)
               b(1) = ( -1.000000 -1.000000  1.000000 )  
               b(2) = (  1.000000  1.000000  1.000000 )  
               b(3) = ( -1.000000  1.000000 -1.000000 )  


     PseudoPot. # 1 for Li read from file:
     ../Li.pbe-s-gbrv14.UPF
     MD5 check sum: 7ca33c4f951f001da2db5c8738379802
     Pseudo is Ultrasoft, Zval =  3.0
     Generated by new atomic code, or converted to UPF format
     Using radial grid of  751 points,  5 beta functions with: 
                l(1) =   0
                l(2) =   0
                l(3) =   0
                l(4) =   1
                l(5) =   1
     Q(r) pseudized with 10 coefficients,  rinner =    1.150   1.150   1.150


     atomic species   valence    mass     pseudopotential
        Li             3.00     6.94100     Li( 1.00)

     48 Sym. Ops., with inversion, found



   Cartesian axes

     site n.     atom                  positions (alat units)
         1           Li  tau(   1) = (   0.0000000   0.0000000   0.0000000  )

     number of k points= 87808  Marzari-Vanderbilt smearing, width (Ry)=  0.0200

     Number of k-points >= 100: set verbosity='high' to print them.

     Dense  grid:    19795 G-vectors     FFT dimensions: (  40,  40,  40)

     Smooth grid:     6879 G-vectors     FFT dimensions: (  27,  27,  27)

     Largest allocated arrays     est. size (Mb)     dimensions
        Kohn-Sham Wavefunctions         0.08 Mb     (     899,    6)
        NL pseudopotentials             0.12 Mb     (     899,    9)
        Each V/rho on FFT grid          0.98 Mb     (   64000)
        Each G-vector array             0.15 Mb     (   19795)
        G-vector shells                 0.00 Mb     (     239)
     Largest temporary arrays     est. size (Mb)     dimensions
        Auxiliary wavefunctions         0.33 Mb     (     899,   24)
        Each subspace H/S matrix        0.01 Mb     (      24,   24)
        Each <psi_i|beta_j> matrix      0.00 Mb     (       9,    6)

     The potential is recalculated from file :
     ./tmp/_ph0/li-fcc.save/charge-density.dat

     Starting wfc are    5 atomic +    1 random wfc

     Band Structure Calculation
     Davidson diagonalization with overlap

     ethr =  3.33E-10,  avg # of iterations = 14.9

     total cpu time spent up to now is       90.6 secs

     End of band structure calculation

     Number of k-points >= 100: set verbosity='high' to print the bands.

     the Fermi energy is     1.6339 ev

                                                                                

     bravais-lattice index     =            2
     lattice parameter (alat)  =       7.6394  a.u.
     unit-cell volume          =     111.4587 (a.u.)^3
     number of atoms/cell      =            1
     number of atomic types    =            1
     kinetic-energy cut-off    =      60.0000  Ry
     charge density cut-off    =     480.0000  Ry
     convergence threshold     =      1.0E-16
     beta                      =       0.7000
     number of iterations used =            4
     Exchange-correlation      =  SLA  PW   PBX  PBC ( 1  4  3  4 0 0)


     celldm(1)=    7.63938  celldm(2)=    0.00000  celldm(3)=    0.00000
     celldm(4)=    0.00000  celldm(5)=    0.00000  celldm(6)=    0.00000

     crystal axes: (cart. coord. in units of alat)
               a(1) = ( -0.5000  0.0000  0.5000 )  
               a(2) = (  0.0000  0.5000  0.5000 )  
               a(3) = ( -0.5000  0.5000  0.0000 )  

     reciprocal axes: (cart. coord. in units 2 pi/alat)
               b(1) = ( -1.0000 -1.0000  1.0000 )  
               b(2) = (  1.0000  1.0000  1.0000 )  
               b(3) = ( -1.0000  1.0000 -1.0000 )  


     Atoms inside the unit cell: 

     Cartesian axes

     site n.  atom      mass           positions (alat units)
        1     Li   6.9410   tau(    1) = (    0.00000    0.00000    0.00000  )

     Computing dynamical matrix for 
                    q = (   0.5000000  -0.2500000   0.7500000 )
 
      2 Sym.Ops. (no q -> -q+G )


     G cutoff =  709.5737  (  19795 G-vectors)     FFT grid: ( 40, 40, 40)
     G cutoff =  354.7868  (   6879 G-vectors)  smooth grid: ( 27, 27, 27)

     number of k points= 87808  Marzari-Vanderbilt smearing, width (Ry)=  0.0200

     PseudoPot. # 1 for Li read from file:
     ../Li.pbe-s-gbrv14.UPF
     MD5 check sum: 7ca33c4f951f001da2db5c8738379802
     Pseudo is Ultrasoft, Zval =  3.0
     Generated by new atomic code, or converted to UPF format
     Using radial grid of  751 points,  5 beta functions with: 
                l(1) =   0
                l(2) =   0
                l(3) =   0
                l(4) =   1
                l(5) =   1
     Q(r) pseudized with 10 coefficients,  rinner =    1.150   1.150   1.150


     Mode symmetry, C_2  (2)    point group:


     Atomic displacements:
     There are   3 irreducible representations

     Representation     1      1 modes -A  To be done

     Representation     2      1 modes -B  To be done

     Representation     3      1 modes -B  To be done



     Alpha used in Ewald sum =   2.8000
     PHONON       :  6m50.73s CPU     7m32.13s WALL



     Representation #  1 mode #   1

     Self-consistent Calculation

      iter #   1 total cpu time :   454.6 secs   av.it.:   6.2
      thresh= 1.000E-02 alpha_mix =  0.700 |ddv_scf|^2 =  3.333E-06

      iter #   2 total cpu time :   459.0 secs   av.it.:   8.9
      thresh= 1.826E-04 alpha_mix =  0.700 |ddv_scf|^2 =  5.737E-07

      iter #   3 total cpu time :   468.8 secs   av.it.:   8.3
      thresh= 7.574E-05 alpha_mix =  0.700 |ddv_scf|^2 =  1.481E-08

      iter #   4 total cpu time :   479.6 secs   av.it.:   9.0
      thresh= 1.217E-05 alpha_mix =  0.700 |ddv_scf|^2 =  3.196E-10

      iter #   5 total cpu time :   483.3 secs   av.it.:   8.9
      thresh= 1.788E-06 alpha_mix =  0.700 |ddv_scf|^2 =  5.532E-13

      iter #   6 total cpu time :   486.5 secs   av.it.:   9.5
      thresh= 7.438E-08 alpha_mix =  0.700 |ddv_scf|^2 =  7.170E-15

      iter #   7 total cpu time :   489.7 secs   av.it.:   9.0
      thresh= 8.468E-09 alpha_mix =  0.700 |ddv_scf|^2 =  1.253E-16

      iter #   8 total cpu time :   493.9 secs   av.it.:   9.4
      thresh= 1.119E-09 alpha_mix =  0.700 |ddv_scf|^2 =  3.625E-18

     End of self-consistent calculation

     Convergence has been achieved 


     Representation #  2 mode #   2

     Self-consistent Calculation

      iter #   1 total cpu time :   500.2 secs   av.it.:   6.4
      thresh= 1.000E-02 alpha_mix =  0.700 |ddv_scf|^2 =  5.942E-06

      iter #   2 total cpu time :   503.7 secs   av.it.:   8.8
      thresh= 2.438E-04 alpha_mix =  0.700 |ddv_scf|^2 =  1.082E-06

      iter #   3 total cpu time :   508.8 secs   av.it.:   8.4
      thresh= 1.040E-04 alpha_mix =  0.700 |ddv_scf|^2 =  1.600E-08

      iter #   4 total cpu time :   513.4 secs   av.it.:   9.0
      thresh= 1.265E-05 alpha_mix =  0.700 |ddv_scf|^2 =  2.367E-10

      iter #   5 total cpu time :   517.9 secs   av.it.:   8.8
      thresh= 1.538E-06 alpha_mix =  0.700 |ddv_scf|^2 =  8.560E-13

      iter #   6 total cpu time :   531.7 secs   av.it.:   8.9
      thresh= 9.252E-08 alpha_mix =  0.700 |ddv_scf|^2 =  9.402E-15

      iter #   7 total cpu time :   543.7 secs   av.it.:   8.8
      thresh= 9.696E-09 alpha_mix =  0.700 |ddv_scf|^2 =  8.568E-17

     End of self-consistent calculation

     Convergence has been achieved 


     Representation #  3 mode #   3

     Self-consistent Calculation

      iter #   1 total cpu time :   556.8 secs   av.it.:   6.4
      thresh= 1.000E-02 alpha_mix =  0.700 |ddv_scf|^2 =  6.377E-06

      iter #   2 total cpu time :   559.6 secs   av.it.:   8.8
      thresh= 2.525E-04 alpha_mix =  0.700 |ddv_scf|^2 =  1.227E-06

      iter #   3 total cpu time :   563.7 secs   av.it.:   8.3
      thresh= 1.108E-04 alpha_mix =  0.700 |ddv_scf|^2 =  1.550E-08

      iter #   4 total cpu time :   566.5 secs   av.it.:   9.1
      thresh= 1.245E-05 alpha_mix =  0.700 |ddv_scf|^2 =  1.014E-10

      iter #   5 total cpu time :   571.3 secs   av.it.:   8.9
      thresh= 1.007E-06 alpha_mix =  0.700 |ddv_scf|^2 =  8.756E-13

      iter #   6 total cpu time :   574.0 secs   av.it.:   8.9
      thresh= 9.357E-08 alpha_mix =  0.700 |ddv_scf|^2 =  9.209E-15

      iter #   7 total cpu time :   577.1 secs   av.it.:   8.9
      thresh= 9.596E-09 alpha_mix =  0.700 |ddv_scf|^2 =  1.955E-16

      iter #   8 total cpu time :   580.9 secs   av.it.:   8.8
      thresh= 1.398E-09 alpha_mix =  0.700 |ddv_scf|^2 =  1.065E-18

     End of self-consistent calculation

     Convergence has been achieved 
 
     Number of q in the star =   24
     List of q in the star:
          1   0.500000000  -0.250000000   0.750000000
          2   0.500000000   0.250000000   0.750000000
          3   0.500000000   0.250000000  -0.750000000
          4  -0.500000000   0.750000000   0.250000000
          5  -0.500000000   0.250000000  -0.750000000
          6  -0.500000000   0.250000000   0.750000000
          7   0.750000000  -0.250000000  -0.500000000
          8  -0.750000000  -0.250000000   0.500000000
          9   0.750000000   0.250000000   0.500000000
         10  -0.750000000   0.250000000   0.500000000
         11   0.750000000   0.250000000  -0.500000000
         12  -0.750000000   0.250000000  -0.500000000
         13  -0.250000000   0.500000000  -0.750000000
         14   0.750000000   0.500000000  -0.250000000
         15  -0.750000000  -0.500000000  -0.250000000
         16  -0.750000000   0.500000000   0.250000000
         17  -0.250000000   0.750000000  -0.500000000
         18   0.250000000  -0.500000000   0.750000000
         19  -0.250000000   0.500000000   0.750000000
         20   0.250000000   0.500000000  -0.750000000
         21  -0.250000000  -0.500000000  -0.750000000
         22  -0.500000000  -0.250000000  -0.750000000
         23   0.500000000   0.750000000  -0.250000000
         24   0.250000000   0.750000000   0.500000000

     Diagonalizing the dynamical matrix

     q = (    0.500000000  -0.250000000   0.750000000 ) 

 **************************************************************************
     freq (    1) =       6.099020 [THz] =     203.441406 [cm-1]
     freq (    2) =       8.614526 [THz] =     287.349669 [cm-1]
     freq (    3) =      11.804719 [THz] =     393.763037 [cm-1]
 **************************************************************************

     Mode symmetry, C_2  (2)    point group:

     freq (  1 -  1) =        203.4  [cm-1]   --> B                  
     freq (  2 -  2) =        287.3  [cm-1]   --> A                  
     freq (  3 -  3) =        393.8  [cm-1]   --> B                  

     Calculation of q =    0.7500000  -0.2500000   1.0000000
 
     G-vector sticks info
     --------------------
     sticks:   dense  smooth     PW     G-vecs:    dense   smooth      PW
     Sum         955     475    199                19795     6879    1917
 


     bravais-lattice index     =            2
     lattice parameter (alat)  =       7.6394  a.u.
     unit-cell volume          =     111.4587 (a.u.)^3
     number of atoms/cell      =            1
     number of atomic types    =            1
     number of electrons       =         3.00
     number of Kohn-Sham states=            6
     kinetic-energy cutoff     =      60.0000  Ry
     charge density cutoff     =     480.0000  Ry
     Exchange-correlation      =  SLA  PW   PBX  PBC ( 1  4  3  4 0 0)

     celldm(1)=   7.639378  celldm(2)=   0.000000  celldm(3)=   0.000000
     celldm(4)=   0.000000  celldm(5)=   0.000000  celldm(6)=   0.000000

     crystal axes: (cart. coord. in units of alat)
               a(1) = (  -0.500000   0.000000   0.500000 )  
               a(2) = (   0.000000   0.500000   0.500000 )  
               a(3) = (  -0.500000   0.500000   0.000000 )  

     reciprocal axes: (cart. coord. in units 2 pi/alat)
               b(1) = ( -1.000000 -1.000000  1.000000 )  
               b(2) = (  1.000000  1.000000  1.000000 )  
               b(3) = ( -1.000000  1.000000 -1.000000 )  


     PseudoPot. # 1 for Li read from file:
     ../Li.pbe-s-gbrv14.UPF
     MD5 check sum: 7ca33c4f951f001da2db5c8738379802
     Pseudo is Ultrasoft, Zval =  3.0
     Generated by new atomic code, or converted to UPF format
     Using radial grid of  751 points,  5 beta functions with: 
                l(1) =   0
                l(2) =   0
                l(3) =   0
                l(4) =   1
                l(5) =   1
     Q(r) pseudized with 10 coefficients,  rinner =    1.150   1.150   1.150


     atomic species   valence    mass     pseudopotential
        Li             3.00     6.94100     Li( 1.00)

     48 Sym. Ops., with inversion, found



   Cartesian axes

     site n.     atom                  positions (alat units)
         1           Li  tau(   1) = (   0.0000000   0.0000000   0.0000000  )

     number of k points= 87808  Marzari-Vanderbilt smearing, width (Ry)=  0.0200

     Number of k-points >= 100: set verbosity='high' to print them.

     Dense  grid:    19795 G-vectors     FFT dimensions: (  40,  40,  40)

     Smooth grid:     6879 G-vectors     FFT dimensions: (  27,  27,  27)

     Largest allocated arrays     est. size (Mb)     dimensions
        Kohn-Sham Wavefunctions         0.08 Mb     (     899,    6)
        NL pseudopotentials             0.12 Mb     (     899,    9)
        Each V/rho on FFT grid          0.98 Mb     (   64000)
        Each G-vector array             0.15 Mb     (   19795)
        G-vector shells                 0.00 Mb     (     239)
     Largest temporary arrays     est. size (Mb)     dimensions
        Auxiliary wavefunctions         0.33 Mb     (     899,   24)
        Each subspace H/S matrix        0.01 Mb     (      24,   24)
        Each <psi_i|beta_j> matrix      0.00 Mb     (       9,    6)

     The potential is recalculated from file :
     ./tmp/_ph0/li-fcc.save/charge-density.dat

     Starting wfc are    5 atomic +    1 random wfc

     Band Structure Calculation
     Davidson diagonalization with overlap

     ethr =  3.33E-10,  avg # of iterations = 14.9

     total cpu time spent up to now is      114.2 secs

     End of band structure calculation

     Number of k-points >= 100: set verbosity='high' to print the bands.

     the Fermi energy is     1.6339 ev

                                                                                

     bravais-lattice index     =            2
     lattice parameter (alat)  =       7.6394  a.u.
     unit-cell volume          =     111.4587 (a.u.)^3
     number of atoms/cell      =            1
     number of atomic types    =            1
     kinetic-energy cut-off    =      60.0000  Ry
     charge density cut-off    =     480.0000  Ry
     convergence threshold     =      1.0E-16
     beta                      =       0.7000
     number of iterations used =            4
     Exchange-correlation      =  SLA  PW   PBX  PBC ( 1  4  3  4 0 0)


     celldm(1)=    7.63938  celldm(2)=    0.00000  celldm(3)=    0.00000
     celldm(4)=    0.00000  celldm(5)=    0.00000  celldm(6)=    0.00000

     crystal axes: (cart. coord. in units of alat)
               a(1) = ( -0.5000  0.0000  0.5000 )  
               a(2) = (  0.0000  0.5000  0.5000 )  
               a(3) = ( -0.5000  0.5000  0.0000 )  

     reciprocal axes: (cart. coord. in units 2 pi/alat)
               b(1) = ( -1.0000 -1.0000  1.0000 )  
               b(2) = (  1.0000  1.0000  1.0000 )  
               b(3) = ( -1.0000  1.0000 -1.0000 )  


     Atoms inside the unit cell: 

     Cartesian axes

     site n.  atom      mass           positions (alat units)
        1     Li   6.9410   tau(    1) = (    0.00000    0.00000    0.00000  )

     Computing dynamical matrix for 
                    q = (   0.7500000  -0.2500000   1.0000000 )
 
      2 Sym.Ops. (no q -> -q+G )


     G cutoff =  709.5737  (  19795 G-vectors)     FFT grid: ( 40, 40, 40)
     G cutoff =  354.7868  (   6879 G-vectors)  smooth grid: ( 27, 27, 27)

     number of k points= 87808  Marzari-Vanderbilt smearing, width (Ry)=  0.0200

     PseudoPot. # 1 for Li read from file:
     ../Li.pbe-s-gbrv14.UPF
     MD5 check sum: 7ca33c4f951f001da2db5c8738379802
     Pseudo is Ultrasoft, Zval =  3.0
     Generated by new atomic code, or converted to UPF format
     Using radial grid of  751 points,  5 beta functions with: 
                l(1) =   0
                l(2) =   0
                l(3) =   0
                l(4) =   1
                l(5) =   1
     Q(r) pseudized with 10 coefficients,  rinner =    1.150   1.150   1.150


     Mode symmetry, C_s (m)     point group:


     Atomic displacements:
     There are   3 irreducible representations

     Representation     1      1 modes -A'  To be done

     Representation     2      1 modes -A'  To be done

     Representation     3      1 modes -A''  To be done



     Alpha used in Ewald sum =   2.8000
     PHONON       :  9m31.46s CPU    10m26.33s WALL



     Representation #  1 mode #   1

     Self-consistent Calculation

      iter #   1 total cpu time :   628.9 secs   av.it.:   6.5
      thresh= 1.000E-02 alpha_mix =  0.700 |ddv_scf|^2 =  1.873E-05

      iter #   2 total cpu time :   632.7 secs   av.it.:   8.7
      thresh= 4.328E-04 alpha_mix =  0.700 |ddv_scf|^2 =  1.686E-05

      iter #   3 total cpu time :   636.0 secs   av.it.:   7.7
      thresh= 4.106E-04 alpha_mix =  0.700 |ddv_scf|^2 =  2.877E-08

      iter #   4 total cpu time :   638.7 secs   av.it.:   9.0
      thresh= 1.696E-05 alpha_mix =  0.700 |ddv_scf|^2 =  7.469E-10

      iter #   5 total cpu time :   642.6 secs   av.it.:   9.0
      thresh= 2.733E-06 alpha_mix =  0.700 |ddv_scf|^2 =  2.662E-12

      iter #   6 total cpu time :   651.5 secs   av.it.:   9.2
      thresh= 1.632E-07 alpha_mix =  0.700 |ddv_scf|^2 =  4.253E-14

      iter #   7 total cpu time :   660.7 secs   av.it.:   9.5
      thresh= 2.062E-08 alpha_mix =  0.700 |ddv_scf|^2 =  1.515E-15

      iter #   8 total cpu time :   673.4 secs   av.it.:   9.1
      thresh= 3.892E-09 alpha_mix =  0.700 |ddv_scf|^2 =  2.225E-17

     End of self-consistent calculation

     Convergence has been achieved 


     Representation #  2 mode #   2

     Self-consistent Calculation

      iter #   1 total cpu time :   678.9 secs   av.it.:   6.3
      thresh= 1.000E-02 alpha_mix =  0.700 |ddv_scf|^2 =  4.264E-06

      iter #   2 total cpu time :   682.3 secs   av.it.:   8.8
      thresh= 2.065E-04 alpha_mix =  0.700 |ddv_scf|^2 =  2.778E-06

      iter #   3 total cpu time :   685.8 secs   av.it.:   7.9
      thresh= 1.667E-04 alpha_mix =  0.700 |ddv_scf|^2 =  4.759E-08

      iter #   4 total cpu time :   689.9 secs   av.it.:   8.9
      thresh= 2.182E-05 alpha_mix =  0.700 |ddv_scf|^2 =  7.375E-10

      iter #   5 total cpu time :   701.6 secs   av.it.:   8.9
      thresh= 2.716E-06 alpha_mix =  0.700 |ddv_scf|^2 =  4.774E-12

      iter #   6 total cpu time :   712.0 secs   av.it.:   9.3
      thresh= 2.185E-07 alpha_mix =  0.700 |ddv_scf|^2 =  6.707E-14

      iter #   7 total cpu time :   714.9 secs   av.it.:   8.9
      thresh= 2.590E-08 alpha_mix =  0.700 |ddv_scf|^2 =  2.054E-15

      iter #   8 total cpu time :   725.8 secs   av.it.:   9.2
      thresh= 4.532E-09 alpha_mix =  0.700 |ddv_scf|^2 =  2.181E-16

      iter #   9 total cpu time :   730.1 secs   av.it.:   8.8
      thresh= 1.477E-09 alpha_mix =  0.700 |ddv_scf|^2 =  1.592E-17

     End of self-consistent calculation

     Convergence has been achieved 


     Representation #  3 mode #   3

     Self-consistent Calculation

      iter #   1 total cpu time :   733.8 secs   av.it.:   6.1
      thresh= 1.000E-02 alpha_mix =  0.700 |ddv_scf|^2 =  1.828E-06

      iter #   2 total cpu time :   739.5 secs   av.it.:   8.8
      thresh= 1.352E-04 alpha_mix =  0.700 |ddv_scf|^2 =  7.530E-08

      iter #   3 total cpu time :   743.0 secs   av.it.:   8.9
      thresh= 2.744E-05 alpha_mix =  0.700 |ddv_scf|^2 =  3.276E-09

      iter #   4 total cpu time :   748.3 secs   av.it.:   8.6
      thresh= 5.723E-06 alpha_mix =  0.700 |ddv_scf|^2 =  8.724E-12

      iter #   5 total cpu time :   752.3 secs   av.it.:   8.7
      thresh= 2.954E-07 alpha_mix =  0.700 |ddv_scf|^2 =  8.407E-15

      iter #   6 total cpu time :   755.9 secs   av.it.:   7.6
      thresh= 9.169E-09 alpha_mix =  0.700 |ddv_scf|^2 =  5.379E-16

      iter #   7 total cpu time :   758.4 secs   av.it.:   8.0
      thresh= 2.319E-09 alpha_mix =  0.700 |ddv_scf|^2 =  1.343E-19

     End of self-consistent calculation

     Convergence has been achieved 
 
     Number of q in the star =   24
     List of q in the star:
          1   0.750000000  -0.250000000   1.000000000
          2   0.750000000   0.250000000   1.000000000
          3  -0.750000000  -1.000000000   0.250000000
          4  -0.750000000  -1.000000000  -0.250000000
          5  -0.750000000   0.250000000  -1.000000000
          6   1.000000000  -0.250000000  -0.750000000
          7  -1.000000000  -0.250000000   0.750000000
          8   1.000000000   0.250000000   0.750000000
          9   1.000000000   0.250000000  -0.750000000
         10  -0.250000000   1.000000000   0.750000000
         11   0.250000000   1.000000000  -0.750000000
         12  -0.250000000  -1.000000000  -0.750000000
         13  -0.250000000   0.750000000  -1.000000000
         14   1.000000000   0.750000000  -0.250000000
         15   1.000000000  -0.750000000   0.250000000
         16  -1.000000000  -0.750000000  -0.250000000
         17  -1.000000000   0.750000000   0.250000000
         18   0.250000000  -0.750000000   1.000000000
         19   0.250000000  -1.000000000   0.750000000
         20   0.250000000   0.750000000   1.000000000
         21  -0.250000000  -0.750000000  -1.000000000
         22   0.750000000  -1.000000000   0.250000000
         23  -0.750000000  -0.250000000  -1.000000000
         24   0.750000000   1.000000000  -0.250000000

     Diagonalizing the dynamical matrix

     q = (    0.750000000  -0.250000000   1.000000000 ) 

 **************************************************************************
     freq (    1) =       7.299128 [THz] =     243.472688 [cm-1]
     freq (    2) =       8.867704 [THz] =     295.794757 [cm-1]
     freq (    3) =      11.367176 [THz] =     379.168172 [cm-1]
 **************************************************************************

     Mode symmetry, C_s (m)     point group:

     freq (  1 -  1) =        243.5  [cm-1]   --> A'                 
     freq (  2 -  2) =        295.8  [cm-1]   --> A''                
     freq (  3 -  3) =        379.2  [cm-1]   --> A'                 

     Calculation of q =    0.6250000  -0.1250000   0.8750000
 
     G-vector sticks info
     --------------------
     sticks:   dense  smooth     PW     G-vecs:    dense   smooth      PW
     Sum         955     475    199                19795     6879    1837
 


     bravais-lattice index     =            2
     lattice parameter (alat)  =       7.6394  a.u.
     unit-cell volume          =     111.4587 (a.u.)^3
     number of atoms/cell      =            1
     number of atomic types    =            1
     number of electrons       =         3.00
     number of Kohn-Sham states=            6
     kinetic-energy cutoff     =      60.0000  Ry
     charge density cutoff     =     480.0000  Ry
     Exchange-correlation      =  SLA  PW   PBX  PBC ( 1  4  3  4 0 0)

     celldm(1)=   7.639378  celldm(2)=   0.000000  celldm(3)=   0.000000
     celldm(4)=   0.000000  celldm(5)=   0.000000  celldm(6)=   0.000000

     crystal axes: (cart. coord. in units of alat)
               a(1) = (  -0.500000   0.000000   0.500000 )  
               a(2) = (   0.000000   0.500000   0.500000 )  
               a(3) = (  -0.500000   0.500000   0.000000 )  

     reciprocal axes: (cart. coord. in units 2 pi/alat)
               b(1) = ( -1.000000 -1.000000  1.000000 )  
               b(2) = (  1.000000  1.000000  1.000000 )  
               b(3) = ( -1.000000  1.000000 -1.000000 )  


     PseudoPot. # 1 for Li read from file:
     ../Li.pbe-s-gbrv14.UPF
     MD5 check sum: 7ca33c4f951f001da2db5c8738379802
     Pseudo is Ultrasoft, Zval =  3.0
     Generated by new atomic code, or converted to UPF format
     Using radial grid of  751 points,  5 beta functions with: 
                l(1) =   0
                l(2) =   0
                l(3) =   0
                l(4) =   1
                l(5) =   1
     Q(r) pseudized with 10 coefficients,  rinner =    1.150   1.150   1.150


     atomic species   valence    mass     pseudopotential
        Li             3.00     6.94100     Li( 1.00)

     48 Sym. Ops., with inversion, found



   Cartesian axes

     site n.     atom                  positions (alat units)
         1           Li  tau(   1) = (   0.0000000   0.0000000   0.0000000  )

     number of k points=175616  Marzari-Vanderbilt smearing, width (Ry)=  0.0200

     Number of k-points >= 100: set verbosity='high' to print them.

     Dense  grid:    19795 G-vectors     FFT dimensions: (  40,  40,  40)

     Smooth grid:     6879 G-vectors     FFT dimensions: (  27,  27,  27)

     Largest allocated arrays     est. size (Mb)     dimensions
        Kohn-Sham Wavefunctions         0.08 Mb     (     899,    6)
        NL pseudopotentials             0.12 Mb     (     899,    9)
        Each V/rho on FFT grid          0.98 Mb     (   64000)
        Each G-vector array             0.15 Mb     (   19795)
        G-vector shells                 0.00 Mb     (     239)
     Largest temporary arrays     est. size (Mb)     dimensions
        Auxiliary wavefunctions         0.33 Mb     (     899,   24)
        Each subspace H/S matrix        0.01 Mb     (      24,   24)
        Each <psi_i|beta_j> matrix      0.00 Mb     (       9,    6)

     The potential is recalculated from file :
     ./tmp/_ph0/li-fcc.save/charge-density.dat

     Starting wfc are    5 atomic +    1 random wfc

     Band Structure Calculation
     Davidson diagonalization with overlap

     ethr =  3.33E-10,  avg # of iterations = 14.9

     total cpu time spent up to now is      170.1 secs

     End of band structure calculation

     Number of k-points >= 100: set verbosity='high' to print the bands.

     the Fermi energy is     1.6339 ev

                                                                                

     bravais-lattice index     =            2
     lattice parameter (alat)  =       7.6394  a.u.
     unit-cell volume          =     111.4587 (a.u.)^3
     number of atoms/cell      =            1
     number of atomic types    =            1
     kinetic-energy cut-off    =      60.0000  Ry
     charge density cut-off    =     480.0000  Ry
     convergence threshold     =      1.0E-16
     beta                      =       0.7000
     number of iterations used =            4
     Exchange-correlation      =  SLA  PW   PBX  PBC ( 1  4  3  4 0 0)


     celldm(1)=    7.63938  celldm(2)=    0.00000  celldm(3)=    0.00000
     celldm(4)=    0.00000  celldm(5)=    0.00000  celldm(6)=    0.00000

     crystal axes: (cart. coord. in units of alat)
               a(1) = ( -0.5000  0.0000  0.5000 )  
               a(2) = (  0.0000  0.5000  0.5000 )  
               a(3) = ( -0.5000  0.5000  0.0000 )  

     reciprocal axes: (cart. coord. in units 2 pi/alat)
               b(1) = ( -1.0000 -1.0000  1.0000 )  
               b(2) = (  1.0000  1.0000  1.0000 )  
               b(3) = ( -1.0000  1.0000 -1.0000 )  


     Atoms inside the unit cell: 

     Cartesian axes

     site n.  atom      mass           positions (alat units)
        1     Li   6.9410   tau(    1) = (    0.00000    0.00000    0.00000  )

     Computing dynamical matrix for 
                    q = (   0.6250000  -0.1250000   0.8750000 )
 
     No symmetry!

     G cutoff =  709.5737  (  19795 G-vectors)     FFT grid: ( 40, 40, 40)
     G cutoff =  354.7868  (   6879 G-vectors)  smooth grid: ( 27, 27, 27)

     number of k points=175616  Marzari-Vanderbilt smearing, width (Ry)=  0.0200

     PseudoPot. # 1 for Li read from file:
     ../Li.pbe-s-gbrv14.UPF
     MD5 check sum: 7ca33c4f951f001da2db5c8738379802
     Pseudo is Ultrasoft, Zval =  3.0
     Generated by new atomic code, or converted to UPF format
     Using radial grid of  751 points,  5 beta functions with: 
                l(1) =   0
                l(2) =   0
                l(3) =   0
                l(4) =   1
                l(5) =   1
     Q(r) pseudized with 10 coefficients,  rinner =    1.150   1.150   1.150


     Mode symmetry, C_1 (1)     point group:


     Atomic displacements:
     There are   3 irreducible representations

     Representation     1      1 modes -A  To be done

     Representation     2      1 modes -A  To be done

     Representation     3      1 modes -A  To be done



     Alpha used in Ewald sum =   2.8000
     PHONON       : 12m27.96s CPU    13m27.67s WALL



     Representation #  1 mode #   1

     Self-consistent Calculation

      iter #   1 total cpu time :   812.7 secs   av.it.:   6.4
      thresh= 1.000E-02 alpha_mix =  0.700 |ddv_scf|^2 =  3.469E-06

      iter #   2 total cpu time :   819.7 secs   av.it.:   9.0
      thresh= 1.862E-04 alpha_mix =  0.700 |ddv_scf|^2 =  2.862E-07

      iter #   3 total cpu time :   825.9 secs   av.it.:   8.8
      thresh= 5.349E-05 alpha_mix =  0.700 |ddv_scf|^2 =  1.480E-08

      iter #   4 total cpu time :   833.6 secs   av.it.:   8.9
      thresh= 1.217E-05 alpha_mix =  0.700 |ddv_scf|^2 =  5.938E-10

      iter #   5 total cpu time :   851.5 secs   av.it.:   8.9
      thresh= 2.437E-06 alpha_mix =  0.700 |ddv_scf|^2 =  6.109E-12

      iter #   6 total cpu time :   858.7 secs   av.it.:   8.9
      thresh= 2.472E-07 alpha_mix =  0.700 |ddv_scf|^2 =  2.300E-13

      iter #   7 total cpu time :   866.1 secs   av.it.:   8.9
      thresh= 4.796E-08 alpha_mix =  0.700 |ddv_scf|^2 =  7.233E-15

      iter #   8 total cpu time :   871.6 secs   av.it.:   9.0
      thresh= 8.505E-09 alpha_mix =  0.700 |ddv_scf|^2 =  1.374E-16

      iter #   9 total cpu time :   876.9 secs   av.it.:   8.8
      thresh= 1.172E-09 alpha_mix =  0.700 |ddv_scf|^2 =  3.316E-18

     End of self-consistent calculation

     Convergence has been achieved 


     Representation #  2 mode #   2

     Self-consistent Calculation

      iter #   1 total cpu time :   882.5 secs   av.it.:   6.4
      thresh= 1.000E-02 alpha_mix =  0.700 |ddv_scf|^2 =  5.222E-06

      iter #   2 total cpu time :   890.3 secs   av.it.:   8.9
      thresh= 2.285E-04 alpha_mix =  0.700 |ddv_scf|^2 =  6.889E-07

      iter #   3 total cpu time :   896.8 secs   av.it.:   8.3
      thresh= 8.300E-05 alpha_mix =  0.700 |ddv_scf|^2 =  1.462E-08

      iter #   4 total cpu time :   914.2 secs   av.it.:   8.9
      thresh= 1.209E-05 alpha_mix =  0.700 |ddv_scf|^2 =  3.401E-10

      iter #   5 total cpu time :   920.0 secs   av.it.:   8.9
      thresh= 1.844E-06 alpha_mix =  0.700 |ddv_scf|^2 =  6.207E-12

      iter #   6 total cpu time :   930.4 secs   av.it.:   8.9
      thresh= 2.491E-07 alpha_mix =  0.700 |ddv_scf|^2 =  1.325E-13

      iter #   7 total cpu time :   938.1 secs   av.it.:   9.2
      thresh= 3.640E-08 alpha_mix =  0.700 |ddv_scf|^2 =  6.635E-15

      iter #   8 total cpu time :   943.6 secs   av.it.:   9.1
      thresh= 8.146E-09 alpha_mix =  0.700 |ddv_scf|^2 =  5.557E-17

     End of self-consistent calculation

     Convergence has been achieved 


     Representation #  3 mode #   3

     Self-consistent Calculation

      iter #   1 total cpu time :   951.2 secs   av.it.:   6.3
      thresh= 1.000E-02 alpha_mix =  0.700 |ddv_scf|^2 =  3.102E-06

      iter #   2 total cpu time :   956.8 secs   av.it.:   8.9
      thresh= 1.761E-04 alpha_mix =  0.700 |ddv_scf|^2 =  2.126E-07

      iter #   3 total cpu time :   962.8 secs   av.it.:   8.8
      thresh= 4.611E-05 alpha_mix =  0.700 |ddv_scf|^2 =  1.298E-08

      iter #   4 total cpu time :   973.8 secs   av.it.:   9.0
      thresh= 1.139E-05 alpha_mix =  0.700 |ddv_scf|^2 =  5.502E-10

      iter #   5 total cpu time :   981.5 secs   av.it.:   8.9
      thresh= 2.346E-06 alpha_mix =  0.700 |ddv_scf|^2 =  6.531E-12

      iter #   6 total cpu time :   989.2 secs   av.it.:   8.9
      thresh= 2.556E-07 alpha_mix =  0.700 |ddv_scf|^2 =  1.631E-13

      iter #   7 total cpu time :   998.7 secs   av.it.:   8.9
      thresh= 4.039E-08 alpha_mix =  0.700 |ddv_scf|^2 =  2.264E-15

      iter #   8 total cpu time :  1009.7 secs   av.it.:   9.1
      thresh= 4.758E-09 alpha_mix =  0.700 |ddv_scf|^2 =  4.274E-17

     End of self-consistent calculation

     Convergence has been achieved 
 
     Number of q in the star =   48
     List of q in the star:
          1   0.625000000  -0.125000000   0.875000000
          2   0.625000000  -0.125000000  -0.875000000
          3   0.625000000   0.125000000   0.875000000
          4   0.625000000   0.125000000  -0.875000000
          5  -0.625000000  -0.875000000   0.125000000
          6  -0.625000000  -0.875000000  -0.125000000
          7  -0.625000000   0.875000000   0.125000000
          8  -0.625000000   0.875000000  -0.125000000
          9  -0.625000000   0.125000000  -0.875000000
         10  -0.625000000   0.125000000   0.875000000
         11   0.875000000  -0.125000000  -0.625000000
         12  -0.875000000  -0.125000000   0.625000000
         13   0.875000000   0.125000000   0.625000000
         14  -0.875000000   0.125000000   0.625000000
         15   0.875000000   0.125000000  -0.625000000
         16  -0.875000000   0.125000000  -0.625000000
         17  -0.125000000   0.875000000   0.625000000
         18   0.125000000   0.875000000  -0.625000000
         19  -0.125000000  -0.875000000  -0.625000000
         20  -0.125000000   0.625000000  -0.875000000
         21   0.875000000   0.625000000  -0.125000000
         22   0.875000000  -0.625000000   0.125000000
         23  -0.875000000  -0.625000000  -0.125000000
         24  -0.875000000   0.625000000   0.125000000
         25  -0.125000000   0.875000000  -0.625000000
         26   0.125000000  -0.625000000   0.875000000
         27  -0.875000000   0.625000000  -0.125000000
         28   0.125000000  -0.875000000   0.625000000
         29   0.125000000   0.625000000   0.875000000
         30  -0.125000000   0.625000000   0.875000000
         31   0.125000000   0.625000000  -0.875000000
         32  -0.125000000  -0.625000000  -0.875000000
         33   0.625000000  -0.875000000   0.125000000
         34  -0.125000000  -0.625000000   0.875000000
         35  -0.625000000  -0.125000000  -0.875000000
         36   0.625000000   0.875000000   0.125000000
         37   0.125000000  -0.625000000  -0.875000000
         38   0.625000000   0.875000000  -0.125000000
         39   0.875000000  -0.125000000   0.625000000
         40  -0.625000000  -0.125000000   0.875000000
         41   0.125000000  -0.875000000  -0.625000000
         42  -0.125000000  -0.875000000   0.625000000
         43   0.125000000   0.875000000   0.625000000
         44   0.625000000  -0.875000000  -0.125000000
         45  -0.875000000  -0.625000000   0.125000000
         46  -0.875000000  -0.125000000  -0.625000000
         47   0.875000000   0.625000000   0.125000000
         48   0.875000000  -0.625000000  -0.125000000

     Diagonalizing the dynamical matrix

     q = (    0.625000000  -0.125000000   0.875000000 ) 

 **************************************************************************
     freq (    1) =       7.495719 [THz] =     250.030260 [cm-1]
     freq (    2) =      10.219869 [THz] =     340.898140 [cm-1]
     freq (    3) =      11.796532 [THz] =     393.489968 [cm-1]
 **************************************************************************

     Mode symmetry, C_1 (1)     point group:

     freq (  1 -  1) =        250.0  [cm-1]   --> A                  
     freq (  2 -  2) =        340.9  [cm-1]   --> A                  
     freq (  3 -  3) =        393.5  [cm-1]   --> A                  

     Calculation of q =    0.5000000   0.0000000   0.7500000
 
     G-vector sticks info
     --------------------
     sticks:   dense  smooth     PW     G-vecs:    dense   smooth      PW
     Sum         955     475    199                19795     6879    1807
 


     bravais-lattice index     =            2
     lattice parameter (alat)  =       7.6394  a.u.
     unit-cell volume          =     111.4587 (a.u.)^3
     number of atoms/cell      =            1
     number of atomic types    =            1
     number of electrons       =         3.00
     number of Kohn-Sham states=            6
     kinetic-energy cutoff     =      60.0000  Ry
     charge density cutoff     =     480.0000  Ry
     Exchange-correlation      =  SLA  PW   PBX  PBC ( 1  4  3  4 0 0)

     celldm(1)=   7.639378  celldm(2)=   0.000000  celldm(3)=   0.000000
     celldm(4)=   0.000000  celldm(5)=   0.000000  celldm(6)=   0.000000

     crystal axes: (cart. coord. in units of alat)
               a(1) = (  -0.500000   0.000000   0.500000 )  
               a(2) = (   0.000000   0.500000   0.500000 )  
               a(3) = (  -0.500000   0.500000   0.000000 )  

     reciprocal axes: (cart. coord. in units 2 pi/alat)
               b(1) = ( -1.000000 -1.000000  1.000000 )  
               b(2) = (  1.000000  1.000000  1.000000 )  
               b(3) = ( -1.000000  1.000000 -1.000000 )  


     PseudoPot. # 1 for Li read from file:
     ../Li.pbe-s-gbrv14.UPF
     MD5 check sum: 7ca33c4f951f001da2db5c8738379802
     Pseudo is Ultrasoft, Zval =  3.0
     Generated by new atomic code, or converted to UPF format
     Using radial grid of  751 points,  5 beta functions with: 
                l(1) =   0
                l(2) =   0
                l(3) =   0
                l(4) =   1
                l(5) =   1
     Q(r) pseudized with 10 coefficients,  rinner =    1.150   1.150   1.150


     atomic species   valence    mass     pseudopotential
        Li             3.00     6.94100     Li( 1.00)

     48 Sym. Ops., with inversion, found



   Cartesian axes

     site n.     atom                  positions (alat units)
         1           Li  tau(   1) = (   0.0000000   0.0000000   0.0000000  )

     number of k points= 87808  Marzari-Vanderbilt smearing, width (Ry)=  0.0200

     Number of k-points >= 100: set verbosity='high' to print them.

     Dense  grid:    19795 G-vectors     FFT dimensions: (  40,  40,  40)

     Smooth grid:     6879 G-vectors     FFT dimensions: (  27,  27,  27)

     Largest allocated arrays     est. size (Mb)     dimensions
        Kohn-Sham Wavefunctions         0.08 Mb     (     899,    6)
        NL pseudopotentials             0.12 Mb     (     899,    9)
        Each V/rho on FFT grid          0.98 Mb     (   64000)
        Each G-vector array             0.15 Mb     (   19795)
        G-vector shells                 0.00 Mb     (     239)
     Largest temporary arrays     est. size (Mb)     dimensions
        Auxiliary wavefunctions         0.33 Mb     (     899,   24)
        Each subspace H/S matrix        0.01 Mb     (      24,   24)
        Each <psi_i|beta_j> matrix      0.00 Mb     (       9,    6)

     The potential is recalculated from file :
     ./tmp/_ph0/li-fcc.save/charge-density.dat

     Starting wfc are    5 atomic +    1 random wfc

     Band Structure Calculation
     Davidson diagonalization with overlap

     ethr =  3.33E-10,  avg # of iterations = 14.9

     total cpu time spent up to now is      192.4 secs

     End of band structure calculation

     Number of k-points >= 100: set verbosity='high' to print the bands.

     the Fermi energy is     1.6339 ev

                                                                                

     bravais-lattice index     =            2
     lattice parameter (alat)  =       7.6394  a.u.
     unit-cell volume          =     111.4587 (a.u.)^3
     number of atoms/cell      =            1
     number of atomic types    =            1
     kinetic-energy cut-off    =      60.0000  Ry
     charge density cut-off    =     480.0000  Ry
     convergence threshold     =      1.0E-16
     beta                      =       0.7000
     number of iterations used =            4
     Exchange-correlation      =  SLA  PW   PBX  PBC ( 1  4  3  4 0 0)


     celldm(1)=    7.63938  celldm(2)=    0.00000  celldm(3)=    0.00000
     celldm(4)=    0.00000  celldm(5)=    0.00000  celldm(6)=    0.00000

     crystal axes: (cart. coord. in units of alat)
               a(1) = ( -0.5000  0.0000  0.5000 )  
               a(2) = (  0.0000  0.5000  0.5000 )  
               a(3) = ( -0.5000  0.5000  0.0000 )  

     reciprocal axes: (cart. coord. in units 2 pi/alat)
               b(1) = ( -1.0000 -1.0000  1.0000 )  
               b(2) = (  1.0000  1.0000  1.0000 )  
               b(3) = ( -1.0000  1.0000 -1.0000 )  


     Atoms inside the unit cell: 

     Cartesian axes

     site n.  atom      mass           positions (alat units)
        1     Li   6.9410   tau(    1) = (    0.00000    0.00000    0.00000  )

     Computing dynamical matrix for 
                    q = (   0.5000000   0.0000000   0.7500000 )
 
      2 Sym.Ops. (no q -> -q+G )


     G cutoff =  709.5737  (  19795 G-vectors)     FFT grid: ( 40, 40, 40)
     G cutoff =  354.7868  (   6879 G-vectors)  smooth grid: ( 27, 27, 27)

     number of k points= 87808  Marzari-Vanderbilt smearing, width (Ry)=  0.0200

     PseudoPot. # 1 for Li read from file:
     ../Li.pbe-s-gbrv14.UPF
     MD5 check sum: 7ca33c4f951f001da2db5c8738379802
     Pseudo is Ultrasoft, Zval =  3.0
     Generated by new atomic code, or converted to UPF format
     Using radial grid of  751 points,  5 beta functions with: 
                l(1) =   0
                l(2) =   0
                l(3) =   0
                l(4) =   1
                l(5) =   1
     Q(r) pseudized with 10 coefficients,  rinner =    1.150   1.150   1.150


     Mode symmetry, C_s (m)     point group:


     Atomic displacements:
     There are   3 irreducible representations

     Representation     1      1 modes -A'  To be done

     Representation     2      1 modes -A'  To be done

     Representation     3      1 modes -A''  To be done



     Alpha used in Ewald sum =   2.8000
     PHONON       : 16m16.24s CPU    17m30.27s WALL



     Representation #  1 mode #   1

     Self-consistent Calculation

      iter #   1 total cpu time :  1052.8 secs   av.it.:   6.4
      thresh= 1.000E-02 alpha_mix =  0.700 |ddv_scf|^2 =  4.666E-06

      iter #   2 total cpu time :  1057.3 secs   av.it.:   8.8
      thresh= 2.160E-04 alpha_mix =  0.700 |ddv_scf|^2 =  1.069E-06

      iter #   3 total cpu time :  1061.3 secs   av.it.:   8.2
      thresh= 1.034E-04 alpha_mix =  0.700 |ddv_scf|^2 =  1.841E-08

      iter #   4 total cpu time :  1065.0 secs   av.it.:   9.0
      thresh= 1.357E-05 alpha_mix =  0.700 |ddv_scf|^2 =  3.702E-10

      iter #   5 total cpu time :  1070.0 secs   av.it.:   8.9
      thresh= 1.924E-06 alpha_mix =  0.700 |ddv_scf|^2 =  2.968E-12

      iter #   6 total cpu time :  1083.9 secs   av.it.:   9.1
      thresh= 1.723E-07 alpha_mix =  0.700 |ddv_scf|^2 =  7.354E-14

      iter #   7 total cpu time :  1090.7 secs   av.it.:   9.5
      thresh= 2.712E-08 alpha_mix =  0.700 |ddv_scf|^2 =  4.235E-16

      iter #   8 total cpu time :  1096.3 secs   av.it.:   9.5
      thresh= 2.058E-09 alpha_mix =  0.700 |ddv_scf|^2 =  1.196E-17

     End of self-consistent calculation

     Convergence has been achieved 


     Representation #  2 mode #   2

     Self-consistent Calculation

      iter #   1 total cpu time :  1123.1 secs   av.it.:   6.4
      thresh= 1.000E-02 alpha_mix =  0.700 |ddv_scf|^2 =  6.215E-06

      iter #   2 total cpu time :  1126.9 secs   av.it.:   8.8
      thresh= 2.493E-04 alpha_mix =  0.700 |ddv_scf|^2 =  1.490E-06

      iter #   3 total cpu time :  1129.6 secs   av.it.:   8.1
      thresh= 1.221E-04 alpha_mix =  0.700 |ddv_scf|^2 =  1.770E-08

      iter #   4 total cpu time :  1133.3 secs   av.it.:   9.0
      thresh= 1.330E-05 alpha_mix =  0.700 |ddv_scf|^2 =  2.667E-10

      iter #   5 total cpu time :  1138.0 secs   av.it.:   8.9
      thresh= 1.633E-06 alpha_mix =  0.700 |ddv_scf|^2 =  4.399E-12

      iter #   6 total cpu time :  1141.8 secs   av.it.:   9.1
      thresh= 2.097E-07 alpha_mix =  0.700 |ddv_scf|^2 =  3.103E-14

      iter #   7 total cpu time :  1145.9 secs   av.it.:   9.1
      thresh= 1.762E-08 alpha_mix =  0.700 |ddv_scf|^2 =  1.186E-15

      iter #   8 total cpu time :  1149.5 secs   av.it.:   9.1
      thresh= 3.443E-09 alpha_mix =  0.700 |ddv_scf|^2 =  1.541E-17

     End of self-consistent calculation

     Convergence has been achieved 


     Representation #  3 mode #   3

     Self-consistent Calculation

      iter #   1 total cpu time :  1154.2 secs   av.it.:   6.3
      thresh= 1.000E-02 alpha_mix =  0.700 |ddv_scf|^2 =  3.123E-06

      iter #   2 total cpu time :  1158.3 secs   av.it.:   8.8
      thresh= 1.767E-04 alpha_mix =  0.700 |ddv_scf|^2 =  1.063E-07

      iter #   3 total cpu time :  1163.3 secs   av.it.:   8.5
      thresh= 3.260E-05 alpha_mix =  0.700 |ddv_scf|^2 =  7.354E-09

      iter #   4 total cpu time :  1167.3 secs   av.it.:   8.6
      thresh= 8.576E-06 alpha_mix =  0.700 |ddv_scf|^2 =  6.284E-12

      iter #   5 total cpu time :  1171.2 secs   av.it.:   8.6
      thresh= 2.507E-07 alpha_mix =  0.700 |ddv_scf|^2 =  1.581E-14

      iter #   6 total cpu time :  1174.0 secs   av.it.:   8.4
      thresh= 1.257E-08 alpha_mix =  0.700 |ddv_scf|^2 =  8.917E-16

      iter #   7 total cpu time :  1177.7 secs   av.it.:   8.4
      thresh= 2.986E-09 alpha_mix =  0.700 |ddv_scf|^2 =  7.583E-19

     End of self-consistent calculation

     Convergence has been achieved 
 
     Number of q in the star =   24
     List of q in the star:
          1   0.500000000   0.000000000   0.750000000
          2   0.500000000   0.000000000  -0.750000000
          3  -0.500000000  -0.750000000   0.000000000
          4  -0.500000000   0.750000000   0.000000000
          5  -0.500000000   0.000000000  -0.750000000
          6  -0.500000000   0.000000000   0.750000000
          7   0.750000000   0.000000000  -0.500000000
          8  -0.750000000   0.000000000   0.500000000
          9   0.750000000   0.000000000   0.500000000
         10  -0.750000000   0.000000000  -0.500000000
         11   0.000000000   0.750000000   0.500000000
         12   0.000000000   0.750000000  -0.500000000
         13   0.000000000  -0.750000000  -0.500000000
         14   0.000000000   0.500000000  -0.750000000
         15   0.750000000   0.500000000   0.000000000
         16   0.750000000  -0.500000000   0.000000000
         17  -0.750000000  -0.500000000   0.000000000
         18  -0.750000000   0.500000000   0.000000000
         19   0.000000000  -0.500000000   0.750000000
         20   0.000000000  -0.750000000   0.500000000
         21   0.000000000   0.500000000   0.750000000
         22   0.000000000  -0.500000000  -0.750000000
         23   0.500000000  -0.750000000   0.000000000
         24   0.500000000   0.750000000   0.000000000

     Diagonalizing the dynamical matrix

     q = (    0.500000000   0.000000000   0.750000000 ) 

 **************************************************************************
     freq (    1) =       6.835715 [THz] =     228.014913 [cm-1]
     freq (    2) =      10.848699 [THz] =     361.873663 [cm-1]
     freq (    3) =      10.906558 [THz] =     363.803628 [cm-1]
 **************************************************************************

     Mode symmetry, C_s (m)     point group:

     freq (  1 -  1) =        228.0  [cm-1]   --> A'                 
     freq (  2 -  2) =        361.9  [cm-1]   --> A''                
     freq (  3 -  3) =        363.8  [cm-1]   --> A'                 

     Calculation of q =   -0.2500000  -1.0000000   0.0000000
 
     G-vector sticks info
     --------------------
     sticks:   dense  smooth     PW     G-vecs:    dense   smooth      PW
     Sum         955     475    199                19795     6879    1837
 


     bravais-lattice index     =            2
     lattice parameter (alat)  =       7.6394  a.u.
     unit-cell volume          =     111.4587 (a.u.)^3
     number of atoms/cell      =            1
     number of atomic types    =            1
     number of electrons       =         3.00
     number of Kohn-Sham states=            6
     kinetic-energy cutoff     =      60.0000  Ry
     charge density cutoff     =     480.0000  Ry
     Exchange-correlation      =  SLA  PW   PBX  PBC ( 1  4  3  4 0 0)

     celldm(1)=   7.639378  celldm(2)=   0.000000  celldm(3)=   0.000000
     celldm(4)=   0.000000  celldm(5)=   0.000000  celldm(6)=   0.000000

     crystal axes: (cart. coord. in units of alat)
               a(1) = (  -0.500000   0.000000   0.500000 )  
               a(2) = (   0.000000   0.500000   0.500000 )  
               a(3) = (  -0.500000   0.500000   0.000000 )  

     reciprocal axes: (cart. coord. in units 2 pi/alat)
               b(1) = ( -1.000000 -1.000000  1.000000 )  
               b(2) = (  1.000000  1.000000  1.000000 )  
               b(3) = ( -1.000000  1.000000 -1.000000 )  


     PseudoPot. # 1 for Li read from file:
     ../Li.pbe-s-gbrv14.UPF
     MD5 check sum: 7ca33c4f951f001da2db5c8738379802
     Pseudo is Ultrasoft, Zval =  3.0
     Generated by new atomic code, or converted to UPF format
     Using radial grid of  751 points,  5 beta functions with: 
                l(1) =   0
                l(2) =   0
                l(3) =   0
                l(4) =   1
                l(5) =   1
     Q(r) pseudized with 10 coefficients,  rinner =    1.150   1.150   1.150


     atomic species   valence    mass     pseudopotential
        Li             3.00     6.94100     Li( 1.00)

[...]
      thresh= 1.000E-02 alpha_mix =  0.700 |ddv_scf|^2 =  2.065E-06

      iter #   2 total cpu time :  1212.2 secs   av.it.:   8.8
      thresh= 1.437E-04 alpha_mix =  0.700 |ddv_scf|^2 =  1.210E-07

      iter #   3 total cpu time :  1222.9 secs   av.it.:   8.8
      thresh= 3.479E-05 alpha_mix =  0.700 |ddv_scf|^2 =  7.142E-09

      iter #   4 total cpu time :  1230.0 secs   av.it.:   8.9
      thresh= 8.451E-06 alpha_mix =  0.700 |ddv_scf|^2 =  2.069E-10

      iter #   5 total cpu time :  1232.3 secs   av.it.:   8.2
      thresh= 1.438E-06 alpha_mix =  0.700 |ddv_scf|^2 =  1.844E-12

      iter #   6 total cpu time :  1243.6 secs   av.it.:   9.3
      thresh= 1.358E-07 alpha_mix =  0.700 |ddv_scf|^2 =  3.026E-15

      iter #   7 total cpu time :  1246.5 secs   av.it.:   9.5
      thresh= 5.501E-09 alpha_mix =  0.700 |ddv_scf|^2 =  2.428E-16

      iter #   8 total cpu time :  1249.5 secs   av.it.:   9.4
      thresh= 1.558E-09 alpha_mix =  0.700 |ddv_scf|^2 =  5.945E-19

     End of self-consistent calculation

     Convergence has been achieved 


     Representation #  2 mode #   2

     Self-consistent Calculation

      iter #   1 total cpu time :  1254.1 secs   av.it.:   6.2
      thresh= 1.000E-02 alpha_mix =  0.700 |ddv_scf|^2 =  1.991E-06

      iter #   2 total cpu time :  1255.7 secs   av.it.:   8.8
      thresh= 1.411E-04 alpha_mix =  0.700 |ddv_scf|^2 =  7.652E-08

      iter #   3 total cpu time :  1257.6 secs   av.it.:   8.8
      thresh= 2.766E-05 alpha_mix =  0.700 |ddv_scf|^2 =  3.869E-09

      iter #   4 total cpu time :  1260.0 secs   av.it.:   8.6
      thresh= 6.220E-06 alpha_mix =  0.700 |ddv_scf|^2 =  1.196E-11

      iter #   5 total cpu time :  1264.5 secs   av.it.:   8.6
      thresh= 3.459E-07 alpha_mix =  0.700 |ddv_scf|^2 =  9.065E-15

      iter #   6 total cpu time :  1266.8 secs   av.it.:   7.5
      thresh= 9.521E-09 alpha_mix =  0.700 |ddv_scf|^2 =  5.958E-16

      iter #   7 total cpu time :  1268.4 secs   av.it.:   7.9
      thresh= 2.441E-09 alpha_mix =  0.700 |ddv_scf|^2 =  1.365E-19

     End of self-consistent calculation

     Convergence has been achieved 


     Representation #  3 mode #   3

     Self-consistent Calculation

      iter #   1 total cpu time :  1280.8 secs   av.it.:   6.4
      thresh= 1.000E-02 alpha_mix =  0.700 |ddv_scf|^2 =  6.502E-06

      iter #   2 total cpu time :  1283.4 secs   av.it.:   8.8
      thresh= 2.550E-04 alpha_mix =  0.700 |ddv_scf|^2 =  4.922E-07

      iter #   3 total cpu time :  1285.6 secs   av.it.:   8.0
      thresh= 7.016E-05 alpha_mix =  0.700 |ddv_scf|^2 =  1.292E-08

      iter #   4 total cpu time :  1288.4 secs   av.it.:   8.7
      thresh= 1.137E-05 alpha_mix =  0.700 |ddv_scf|^2 =  5.390E-12

      iter #   5 total cpu time :  1293.5 secs   av.it.:   8.8
      thresh= 2.322E-07 alpha_mix =  0.700 |ddv_scf|^2 =  7.496E-14

      iter #   6 total cpu time :  1306.6 secs   av.it.:   8.7
      thresh= 2.738E-08 alpha_mix =  0.700 |ddv_scf|^2 =  1.112E-15

      iter #   7 total cpu time :  1308.9 secs   av.it.:   8.5
      thresh= 3.334E-09 alpha_mix =  0.700 |ddv_scf|^2 =  1.320E-18

     End of self-consistent calculation

     Convergence has been achieved 
 
     Number of q in the star =   12
     List of q in the star:
          1  -0.250000000  -1.000000000   0.000000000
          2   0.250000000   0.000000000   1.000000000
          3   0.250000000   1.000000000   0.000000000
          4   0.000000000  -1.000000000   0.250000000
          5   0.000000000  -1.000000000  -0.250000000
          6  -1.000000000   0.000000000  -0.250000000
          7   1.000000000   0.000000000   0.250000000
          8  -1.000000000  -0.250000000   0.000000000
          9   0.000000000  -0.250000000  -1.000000000
         10   0.000000000   0.250000000   1.000000000
         11   1.000000000   0.250000000   0.000000000
         12  -0.250000000   0.000000000   1.000000000

     Diagonalizing the dynamical matrix

     q = (   -0.250000000  -1.000000000   0.000000000 ) 

 **************************************************************************
     freq (    1) =       8.050501 [THz] =     268.535812 [cm-1]
     freq (    2) =       9.427765 [THz] =     314.476381 [cm-1]
     freq (    3) =      12.568745 [THz] =     419.248190 [cm-1]
 **************************************************************************

     Mode symmetry, C_2v (mm2)  point group:

     freq (  1 -  1) =        268.5  [cm-1]   --> A_1  D_1  S_1      
     freq (  2 -  2) =        314.5  [cm-1]   --> B_1  D_3  S_3      
     freq (  3 -  3) =        419.2  [cm-1]   --> B_2  D_4  S_4      

     Calculation of q =   -0.5000000  -1.0000000   0.0000000
 
     G-vector sticks info
     --------------------
     sticks:   dense  smooth     PW     G-vecs:    dense   smooth      PW
     Sum         955     475    199                19795     6879    1837
 


     bravais-lattice index     =            2
     lattice parameter (alat)  =       7.6394  a.u.
     unit-cell volume          =     111.4587 (a.u.)^3
     number of atoms/cell      =            1
     number of atomic types    =            1
     number of electrons       =         3.00
     number of Kohn-Sham states=            6
     kinetic-energy cutoff     =      60.0000  Ry
     charge density cutoff     =     480.0000  Ry
     Exchange-correlation      =  SLA  PW   PBX  PBC ( 1  4  3  4 0 0)

     celldm(1)=   7.639378  celldm(2)=   0.000000  celldm(3)=   0.000000
     celldm(4)=   0.000000  celldm(5)=   0.000000  celldm(6)=   0.000000

     crystal axes: (cart. coord. in units of alat)
               a(1) = (  -0.500000   0.000000   0.500000 )  
               a(2) = (   0.000000   0.500000   0.500000 )  
               a(3) = (  -0.500000   0.500000   0.000000 )  

     reciprocal axes: (cart. coord. in units 2 pi/alat)
               b(1) = ( -1.000000 -1.000000  1.000000 )  
               b(2) = (  1.000000  1.000000  1.000000 )  
               b(3) = ( -1.000000  1.000000 -1.000000 )  


     PseudoPot. # 1 for Li read from file:
     ../Li.pbe-s-gbrv14.UPF
     MD5 check sum: 7ca33c4f951f001da2db5c8738379802
     Pseudo is Ultrasoft, Zval =  3.0
     Generated by new atomic code, or converted to UPF format
     Using radial grid of  751 points,  5 beta functions with: 
                l(1) =   0
                l(2) =   0
                l(3) =   0
                l(4) =   1
                l(5) =   1
     Q(r) pseudized with 10 coefficients,  rinner =    1.150   1.150   1.150


     atomic species   valence    mass     pseudopotential
        Li             3.00     6.94100     Li( 1.00)

     48 Sym. Ops., with inversion, found



   Cartesian axes

     site n.     atom                  positions (alat units)
         1           Li  tau(   1) = (   0.0000000   0.0000000   0.0000000  )

     number of k points= 21952  Marzari-Vanderbilt smearing, width (Ry)=  0.0200

     Number of k-points >= 100: set verbosity='high' to print them.

     Dense  grid:    19795 G-vectors     FFT dimensions: (  40,  40,  40)

     Smooth grid:     6879 G-vectors     FFT dimensions: (  27,  27,  27)

     Largest allocated arrays     est. size (Mb)     dimensions
        Kohn-Sham Wavefunctions         0.08 Mb     (     899,    6)
        NL pseudopotentials             0.12 Mb     (     899,    9)
        Each V/rho on FFT grid          0.98 Mb     (   64000)
        Each G-vector array             0.15 Mb     (   19795)
        G-vector shells                 0.00 Mb     (     239)
     Largest temporary arrays     est. size (Mb)     dimensions
        Auxiliary wavefunctions         0.33 Mb     (     899,   24)
        Each subspace H/S matrix        0.01 Mb     (      24,   24)
        Each <psi_i|beta_j> matrix      0.00 Mb     (       9,    6)

     The potential is recalculated from file :
     ./tmp/_ph0/li-fcc.save/charge-density.dat

     Starting wfc are    5 atomic +    1 random wfc

     Band Structure Calculation
     Davidson diagonalization with overlap

     ethr =  3.33E-10,  avg # of iterations = 14.9

     total cpu time spent up to now is      226.6 secs

     End of band structure calculation

     Number of k-points >= 100: set verbosity='high' to print the bands.

     the Fermi energy is     1.6339 ev

                                                                                

     bravais-lattice index     =            2
     lattice parameter (alat)  =       7.6394  a.u.
     unit-cell volume          =     111.4587 (a.u.)^3
     number of atoms/cell      =            1
     number of atomic types    =            1
     kinetic-energy cut-off    =      60.0000  Ry
     charge density cut-off    =     480.0000  Ry
     convergence threshold     =      1.0E-16
     beta                      =       0.7000
     number of iterations used =            4
     Exchange-correlation      =  SLA  PW   PBX  PBC ( 1  4  3  4 0 0)


     celldm(1)=    7.63938  celldm(2)=    0.00000  celldm(3)=    0.00000
     celldm(4)=    0.00000  celldm(5)=    0.00000  celldm(6)=    0.00000

     crystal axes: (cart. coord. in units of alat)
               a(1) = ( -0.5000  0.0000  0.5000 )  
               a(2) = (  0.0000  0.5000  0.5000 )  
               a(3) = ( -0.5000  0.5000  0.0000 )  

     reciprocal axes: (cart. coord. in units 2 pi/alat)
               b(1) = ( -1.0000 -1.0000  1.0000 )  
               b(2) = (  1.0000  1.0000  1.0000 )  
               b(3) = ( -1.0000  1.0000 -1.0000 )  


     Atoms inside the unit cell: 

     Cartesian axes

     site n.  atom      mass           positions (alat units)
        1     Li   6.9410   tau(    1) = (    0.00000    0.00000    0.00000  )

     Computing dynamical matrix for 
                    q = (  -0.5000000  -1.0000000   0.0000000 )
 
      8 Sym.Ops. (no q -> -q+G )


     G cutoff =  709.5737  (  19795 G-vectors)     FFT grid: ( 40, 40, 40)
     G cutoff =  354.7868  (   6879 G-vectors)  smooth grid: ( 27, 27, 27)

     number of k points= 21952  Marzari-Vanderbilt smearing, width (Ry)=  0.0200

     PseudoPot. # 1 for Li read from file:
     ../Li.pbe-s-gbrv14.UPF
     MD5 check sum: 7ca33c4f951f001da2db5c8738379802
     Pseudo is Ultrasoft, Zval =  3.0
     Generated by new atomic code, or converted to UPF format
     Using radial grid of  751 points,  5 beta functions with: 
                l(1) =   0
                l(2) =   0
                l(3) =   0
                l(4) =   1
                l(5) =   1
     Q(r) pseudized with 10 coefficients,  rinner =    1.150   1.150   1.150


     Mode symmetry, D_2d (-42m) point group:


     Atomic displacements:
     There are   2 irreducible representations

     Representation     1      1 modes -B_2  X_3  W_2  To be done

     Representation     2      2 modes -E    X_5  W_3  To be done



     Alpha used in Ewald sum =   2.8000
     PHONON       : 20m23.67s CPU    22m11.34s WALL



     Representation #  1 mode #   1

     Self-consistent Calculation

      iter #   1 total cpu time :  1332.1 secs   av.it.:   6.2
      thresh= 1.000E-02 alpha_mix =  0.700 |ddv_scf|^2 =  2.476E-06

      iter #   2 total cpu time :  1335.0 secs   av.it.:   8.8
      thresh= 1.574E-04 alpha_mix =  0.700 |ddv_scf|^2 =  1.076E-07

      iter #   3 total cpu time :  1337.3 secs   av.it.:   8.7
      thresh= 3.281E-05 alpha_mix =  0.700 |ddv_scf|^2 =  5.890E-09

      iter #   4 total cpu time :  1338.2 secs   av.it.:   8.9
      thresh= 7.674E-06 alpha_mix =  0.700 |ddv_scf|^2 =  2.317E-11

      iter #   5 total cpu time :  1339.2 secs   av.it.:   8.8
      thresh= 4.813E-07 alpha_mix =  0.700 |ddv_scf|^2 =  5.449E-14

      iter #   6 total cpu time :  1339.9 secs   av.it.:   8.6
      thresh= 2.334E-08 alpha_mix =  0.700 |ddv_scf|^2 =  1.571E-15

      iter #   7 total cpu time :  1341.5 secs   av.it.:   8.4
      thresh= 3.963E-09 alpha_mix =  0.700 |ddv_scf|^2 =  7.292E-19

     End of self-consistent calculation

     Convergence has been achieved 


     Representation #  2 modes #   2  3

     Self-consistent Calculation

      iter #   1 total cpu time :  1345.5 secs   av.it.:   6.4
      thresh= 1.000E-02 alpha_mix =  0.700 |ddv_scf|^2 =  9.120E-07

      iter #   2 total cpu time :  1354.5 secs   av.it.:   9.4
      thresh= 9.550E-05 alpha_mix =  0.700 |ddv_scf|^2 =  3.398E-08

      iter #   3 total cpu time :  1360.3 secs   av.it.:   8.8
      thresh= 1.843E-05 alpha_mix =  0.700 |ddv_scf|^2 =  2.124E-09

      iter #   4 total cpu time :  1369.9 secs   av.it.:   9.2
      thresh= 4.608E-06 alpha_mix =  0.700 |ddv_scf|^2 =  1.807E-12

      iter #   5 total cpu time :  1380.4 secs   av.it.:   9.2
      thresh= 1.344E-07 alpha_mix =  0.700 |ddv_scf|^2 =  4.741E-15

      iter #   6 total cpu time :  1383.0 secs   av.it.:   9.0
      thresh= 6.885E-09 alpha_mix =  0.700 |ddv_scf|^2 =  2.546E-16

      iter #   7 total cpu time :  1385.3 secs   av.it.:   9.0
      thresh= 1.596E-09 alpha_mix =  0.700 |ddv_scf|^2 =  2.216E-19

     End of self-consistent calculation

     Convergence has been achieved 
 
     Number of q in the star =    6
     List of q in the star:
          1  -0.500000000  -1.000000000   0.000000000
          2   0.500000000   1.000000000   0.000000000
          3   0.000000000  -1.000000000   0.500000000
          4   0.000000000  -1.000000000  -0.500000000
          5  -1.000000000  -0.500000000   0.000000000
          6   0.000000000  -0.500000000  -1.000000000

     Diagonalizing the dynamical matrix

     q = (   -0.500000000  -1.000000000   0.000000000 ) 

 **************************************************************************
     freq (    1) =       8.038156 [THz] =     268.124009 [cm-1]
     freq (    2) =      11.323170 [THz] =     377.700310 [cm-1]
     freq (    3) =      11.323170 [THz] =     377.700310 [cm-1]
 **************************************************************************

     Mode symmetry, D_2d (-42m) point group:

     freq (  1 -  1) =        268.1  [cm-1]   --> B_2  X_3  W_2      
     freq (  2 -  3) =        377.7  [cm-1]   --> E    X_5  W_3      
 
     init_run     :      2.38s CPU      2.47s WALL (       8 calls)
     electrons    :    189.34s CPU    192.28s WALL (       8 calls)

     Called by init_run:
     wfcinit      :      0.00s CPU      0.03s WALL (       8 calls)
     potinit      :      0.58s CPU      0.62s WALL (       8 calls)

     Called by electrons:
     c_bands      :    189.22s CPU    192.13s WALL (       8 calls)
     v_of_rho     :      0.36s CPU      0.37s WALL (       9 calls)
     newd         :      0.13s CPU      0.14s WALL (       9 calls)

     Called by c_bands:
     init_us_2    :      5.03s CPU      5.28s WALL (   33761 calls)
     cegterg      :    116.92s CPU    117.72s WALL (    2376 calls)

     Called by sum_band:

     Called by *egterg:
     h_psi        :    114.02s CPU    114.79s WALL (   37876 calls)
     s_psi        :      7.34s CPU      7.37s WALL (  549178 calls)
     g_psi        :      0.72s CPU      0.73s WALL (   33490 calls)
     cdiaghg      :      4.74s CPU      4.66s WALL (   35500 calls)

     Called by h_psi:
     add_vuspsi   :      4.29s CPU      4.35s WALL (  281053 calls)

     General routines
     calbec       :      9.72s CPU      9.91s WALL (  603271 calls)
     fft          :      4.73s CPU      4.89s WALL (    3083 calls)
     ffts         :      1.98s CPU      1.95s WALL (    3532 calls)
     fftw         :    491.41s CPU    496.81s WALL ( 1382260 calls)
     interpolate  :      1.00s CPU      1.02s WALL (     424 calls)
     davcio       :      0.12s CPU      9.79s WALL (    6030 calls)
 
     Parallel routines
     fft_scatter  :     25.95s CPU     26.29s WALL ( 1388875 calls)
 
     PHONON       : 21m19.39s CPU    23m 8.92s WALL

     INITIALIZATION: 
     phq_setup    :      0.86s CPU      2.98s WALL (       8 calls)
     phq_init     :     18.02s CPU     20.84s WALL (       8 calls)
 
     phq_init     :     18.02s CPU     20.84s WALL (       8 calls)
     init_vloc    :      0.00s CPU      0.01s WALL (       9 calls)
     init_us_1    :      1.31s CPU      1.31s WALL (       9 calls)
     newd         :      0.13s CPU      0.14s WALL (       9 calls)
     dvanqq       :      0.66s CPU      0.70s WALL (       8 calls)
     drho         :     15.33s CPU     15.47s WALL (       8 calls)
 
     DYNAMICAL MATRIX:
     dynmat0      :      0.61s CPU      0.78s WALL (       8 calls)
     phqscf       :   1019.72s CPU   1098.79s WALL (       8 calls)
     dynmatrix    :     12.61s CPU     14.15s WALL (       8 calls)
 
     phqscf       :   1019.72s CPU   1098.79s WALL (       8 calls)
     solve_linter :   1018.42s CPU   1079.49s WALL (      23 calls)
     drhodv       :      1.24s CPU      1.32s WALL (      23 calls)
 
     dynmat0      :      0.61s CPU      0.78s WALL (       8 calls)
     dynmat_us    :      0.57s CPU      0.61s WALL (       8 calls)
     d2ionq       :      0.03s CPU      0.02s WALL (       8 calls)
 
     dynmat_us    :      0.57s CPU      0.61s WALL (       8 calls)
     addusdynmat  :      0.00s CPU      0.00s WALL (       8 calls)
 
     phqscf       :   1019.72s CPU   1098.79s WALL (       8 calls)
     solve_linter :   1018.42s CPU   1079.49s WALL (      23 calls)
 
     solve_linter :   1018.42s CPU   1079.49s WALL (      23 calls)
     dvqpsi_us    :     16.42s CPU     16.64s WALL (    3015 calls)
     ortho        :      2.58s CPU      2.62s WALL (   24948 calls)
     cgsolve      :    378.23s CPU    382.29s WALL (   24948 calls)
     incdrhoscf   :     42.01s CPU     42.40s WALL (   24948 calls)
     addusddens   :      3.81s CPU      3.86s WALL (     208 calls)
     vpsifft      :     33.55s CPU     34.23s WALL (   21933 calls)
     dv_of_drho   :      6.91s CPU      7.05s WALL (     192 calls)
     mix_pot      :      1.02s CPU      1.00s WALL (     185 calls)
     psymdvscf    :      1.68s CPU      1.67s WALL (     133 calls)
     newdq        :      3.54s CPU      3.54s WALL (     185 calls)
     adddvscf     :      1.00s CPU      0.99s WALL (   21933 calls)
     drhodvus     :      0.06s CPU      0.05s WALL (      23 calls)
 
     dvqpsi_us    :     16.42s CPU     16.64s WALL (    3015 calls)
     dvqpsi_us_on :      0.72s CPU      0.74s WALL (    3015 calls)
 
     cgsolve      :    378.23s CPU    382.29s WALL (   24948 calls)
     ch_psi       :    373.80s CPU    377.86s WALL (  243177 calls)
 
     ch_psi       :    373.80s CPU    377.86s WALL (  243177 calls)
     h_psiq       :    361.49s CPU    365.45s WALL (  243177 calls)
     last         :     10.51s CPU     10.58s WALL (  243177 calls)
 
     h_psiq       :    361.49s CPU    365.45s WALL (  243177 calls)
     firstfft     :    184.23s CPU    186.49s WALL (  436766 calls)
     secondfft    :    153.47s CPU    155.14s WALL (  436766 calls)
     add_vuspsi   :      4.29s CPU      4.35s WALL (  281053 calls)
 
     incdrhoscf   :     42.01s CPU     42.40s WALL (   24948 calls)
     addusdbec    :      1.11s CPU      1.16s WALL (   27963 calls)
 
     drhodvus     :      0.06s CPU      0.05s WALL (      23 calls)
 
      General routines
     calbec       :      9.72s CPU      9.91s WALL (  603271 calls)
     fft          :      4.73s CPU      4.89s WALL (    3083 calls)
     ffts         :      1.98s CPU      1.95s WALL (    3532 calls)
     fftw         :    491.41s CPU    496.81s WALL ( 1382260 calls)
     davcio       :      0.12s CPU      9.79s WALL (    6030 calls)
     write_rec    :      0.46s CPU     72.61s WALL (     208 calls)
 
 
     PHONON       : 21m19.39s CPU    23m 8.92s WALL

 
   This run was terminated on:   8:48:12   5Jun2016            

=------------------------------------------------------------------------------=
   JOB DONE.
=------------------------------------------------------------------------------=
Application 21922519 resources: utime ~509411s, stime ~2613s, Rss ~182148, inblocks ~297698496, outblocks ~452895236
