
     Program PWSCF v.6.1 (svn rev. 13369) starts on 28Jan2018 at 22:49:25 

     This program is part of the open-source Quantum ESPRESSO suite
     for quantum simulation of materials; please cite
         "P. Giannozzi et al., J. Phys.:Condens. Matter 21 395502 (2009);
          URL http://www.quantum-espresso.org", 
     in publications or presentations arising from this work. More details at
     http://www.quantum-espresso.org/quote

     Parallel version (MPI), running on    64 processors
     K-points division:     npool     =       4
     R & G space division:  proc/nbgrp/npool/nimage =      16
     Waiting for input...
     Reading input from standard input

     Current dimensions of program PWSCF are:
     Max number of different atomic species (ntypx) = 10
     Max number of k-points (npk) =  80000
     Max angular momentum in pseudopotentials (lmaxx) =  3

     Subspace diagonalization in iterative solution of the eigenvalue problem:
     a serial algorithm will be used


     Parallelization info
     --------------------
     sticks:   dense  smooth     PW     G-vecs:    dense   smooth      PW
     Min          43      22      7                  771      273      57
     Max          44      23      8                  772      274      61
     Sum         703     361    121                12339     4381     941



     bravais-lattice index     =            2
     lattice parameter (alat)  =       8.0000  a.u.
     unit-cell volume          =     128.0000 (a.u.)^3
     number of atoms/cell      =            1
     number of atomic types    =            1
     number of electrons       =         9.00
     number of Kohn-Sham states=            9
     kinetic-energy cutoff     =      40.0000  Ry
     charge density cutoff     =     320.0000  Ry
     convergence threshold     =      1.0E-10
     mixing beta               =       0.7000
     number of iterations used =            8  plain     mixing
     Exchange-correlation      = SLA  PW   PBE  PBE ( 1  4  3  4 0 0)
     nstep                     =           50


     celldm(1)=   8.000000  celldm(2)=   0.000000  celldm(3)=   0.000000
     celldm(4)=   0.000000  celldm(5)=   0.000000  celldm(6)=   0.000000

     crystal axes: (cart. coord. in units of alat)
               a(1) = (  -0.500000   0.000000   0.500000 )  
               a(2) = (   0.000000   0.500000   0.500000 )  
               a(3) = (  -0.500000   0.500000   0.000000 )  

     reciprocal axes: (cart. coord. in units 2 pi/alat)
               b(1) = ( -1.000000 -1.000000  1.000000 )  
               b(2) = (  1.000000  1.000000  1.000000 )  
               b(3) = ( -1.000000  1.000000 -1.000000 )  


     PseudoPot. # 1 for Na read from file:
     /home/s1333534/quantum_espresso/qe-6.1/pseudo/Na_pbe_v1.uspp.F.UPF
     MD5 check sum: 76a99c7e9422403d3e93cbc85ab7bccb
     Pseudo is Ultrasoft, Zval =  9.0
     Generated by new atomic code, or converted to UPF format
     Using radial grid of  819 points,  5 beta functions with: 
                l(1) =   0
                l(2) =   0
                l(3) =   1
                l(4) =   1
                l(5) =   2
     Q(r) pseudized with  8 coefficients,  rinner =    1.250   1.250   1.250
                                                       1.250   1.250

     atomic species   valence    mass     pseudopotential
        Na             9.00    22.99000     Na( 1.00)

     48 Sym. Ops., with inversion, found



   Cartesian axes

     site n.     atom                  positions (alat units)
         1           Na  tau(   1) = (   0.0000000   0.0000000   0.0000000  )

     number of k points=   770  Marzari-Vanderbilt smearing, width (Ry)=  0.0200

     Number of k-points >= 100: set verbosity='high' to print them.

     Dense  grid:    12339 G-vectors     FFT dimensions: (  36,  36,  36)

     Smooth grid:     4381 G-vectors     FFT dimensions: (  24,  24,  24)

     Estimated max dynamical RAM per process >       1.56MB

     Estimated total allocated dynamical RAM >     100.07MB

     Initial potential from superposition of free atoms

     starting charge    8.99371, renormalised to    9.00000
     Starting wfc are    5 randomized atomic wfcs +    4 random wfc

     total cpu time spent up to now is        0.9 secs

     per-process dynamical memory:     9.1 Mb

     Self-consistent Calculation

     iteration #  1     ecut=    40.00 Ry     beta=0.70
     Davidson diagonalization with overlap
     ethr =  1.00E-02,  avg # of iterations =  5.1

     Threshold (ethr) on eigenvalues was too large:
     Diagonalizing with lowered threshold

     Davidson diagonalization with overlap
     ethr =  2.47E-05,  avg # of iterations =  2.5

     total cpu time spent up to now is        5.7 secs

     total energy              =     -95.06263714 Ry
     Harris-Foulkes estimate   =     -95.06346382 Ry
     estimated scf accuracy    <       0.00221913 Ry

     iteration #  2     ecut=    40.00 Ry     beta=0.70
     Davidson diagonalization with overlap
     ethr =  2.47E-05,  avg # of iterations =  2.0

     total cpu time spent up to now is        7.2 secs

     total energy              =     -95.06293325 Ry
     Harris-Foulkes estimate   =     -95.06299962 Ry
     estimated scf accuracy    <       0.00025025 Ry

     iteration #  3     ecut=    40.00 Ry     beta=0.70
     Davidson diagonalization with overlap
     ethr =  2.78E-06,  avg # of iterations =  2.2

     total cpu time spent up to now is        8.9 secs

     total energy              =     -95.06296601 Ry
     Harris-Foulkes estimate   =     -95.06296754 Ry
     estimated scf accuracy    <       0.00001446 Ry

     iteration #  4     ecut=    40.00 Ry     beta=0.70
     Davidson diagonalization with overlap
     ethr =  1.61E-07,  avg # of iterations =  1.0

     total cpu time spent up to now is       10.1 secs

     total energy              =     -95.06296732 Ry
     Harris-Foulkes estimate   =     -95.06296725 Ry
     estimated scf accuracy    <       0.00000002 Ry

     iteration #  5     ecut=    40.00 Ry     beta=0.70
     Davidson diagonalization with overlap
     ethr =  2.20E-10,  avg # of iterations =  3.0

     total cpu time spent up to now is       12.2 secs

     total energy              =     -95.06296737 Ry
     Harris-Foulkes estimate   =     -95.06296737 Ry
     estimated scf accuracy    <          2.7E-09 Ry

     iteration #  6     ecut=    40.00 Ry     beta=0.70
     Davidson diagonalization with overlap
     ethr =  3.00E-11,  avg # of iterations =  1.6

     total cpu time spent up to now is       13.6 secs

     total energy              =     -95.06296737 Ry
     Harris-Foulkes estimate   =     -95.06296737 Ry
     estimated scf accuracy    <          1.1E-10 Ry

     iteration #  7     ecut=    40.00 Ry     beta=0.70
     Davidson diagonalization with overlap
     ethr =  1.24E-12,  avg # of iterations =  2.0

     total cpu time spent up to now is       15.4 secs

     End of self-consistent calculation

     Number of k-points >= 100: set verbosity='high' to print the bands.

     the Fermi energy is     5.7097 ev

!    total energy              =     -95.06296737 Ry
     Harris-Foulkes estimate   =     -95.06296737 Ry
     estimated scf accuracy    <          1.9E-12 Ry

     The total energy is the sum of the following terms:

     one-electron contribution =     -72.01875287 Ry
     hartree contribution      =      37.75488636 Ry
     xc contribution           =     -14.37734087 Ry
     ewald contribution        =     -46.42172850 Ry
     smearing contrib. (-TS)   =      -0.00003149 Ry

     convergence has been achieved in   7 iterations

     Forces acting on atoms (cartesian axes, Ry/au):

     atom    1 type  1   force =     0.00000000    0.00000000    0.00000000

     Total force =     0.000000     Total SCF correction =     0.000000


     Computing stress (Cartesian axis) and pressure

          total   stress  (Ry/bohr**3)                   (kbar)     P=  175.71
   0.00119447   0.00000000   0.00000000        175.71      0.00      0.00
   0.00000000   0.00119447   0.00000000          0.00    175.71      0.00
   0.00000000   0.00000000   0.00119447          0.00      0.00    175.71


     BFGS Geometry Optimization

     number of scf cycles    =   1
     number of bfgs steps    =   0

     enthalpy new            =     -95.0412142089 Ry

     new trust radius        =       0.0579557974 bohr
     new conv_thr            =            1.0E-10 Ry

     new unit-cell volume =    138.08949 a.u.^3 (    20.46275 Ang^3 )
     density =      1.86562 g/cm^3

CELL_PARAMETERS (alat=  8.00000000)
  -0.512806543  -0.000000000   0.512806543
  -0.000000000   0.512806543   0.512806543
  -0.512806543   0.512806543  -0.000000000

ATOMIC_POSITIONS (crystal)
Na       0.000000000   0.000000000   0.000000000



     Writing output data file na.fcc.save
     NEW-OLD atomic charge density approx. for the potential
     extrapolated charge    9.65712, renormalised to    9.00000

     total cpu time spent up to now is       18.9 secs

     per-process dynamical memory:    14.0 Mb

     Self-consistent Calculation

     iteration #  1     ecut=    40.00 Ry     beta=0.70
     Davidson diagonalization with overlap
     ethr =  1.00E-06,  avg # of iterations =  4.3

     total cpu time spent up to now is       22.0 secs

     total energy              =     -94.72030605 Ry
     Harris-Foulkes estimate   =     -90.78641197 Ry
     estimated scf accuracy    <       0.19807930 Ry

     iteration #  2     ecut=    40.00 Ry     beta=0.70
     Davidson diagonalization with overlap
     ethr =  2.20E-03,  avg # of iterations =  3.0

     total cpu time spent up to now is       24.1 secs

     total energy              =     -95.08866869 Ry
     Harris-Foulkes estimate   =     -95.23324263 Ry
     estimated scf accuracy    <       0.32807075 Ry

     iteration #  3     ecut=    40.00 Ry     beta=0.70
     Davidson diagonalization with overlap
     ethr =  2.20E-03,  avg # of iterations =  1.1

     total cpu time spent up to now is       25.4 secs

     total energy              =     -95.08139326 Ry
     Harris-Foulkes estimate   =     -95.10721386 Ry
     estimated scf accuracy    <       0.07323239 Ry

     iteration #  4     ecut=    40.00 Ry     beta=0.70
     Davidson diagonalization with overlap
     ethr =  8.14E-04,  avg # of iterations =  1.0

     total cpu time spent up to now is       26.6 secs

     total energy              =     -95.08069083 Ry
     Harris-Foulkes estimate   =     -95.08462140 Ry
     estimated scf accuracy    <       0.02364874 Ry

     iteration #  5     ecut=    40.00 Ry     beta=0.70
     Davidson diagonalization with overlap
     ethr =  2.63E-04,  avg # of iterations =  1.0

     total cpu time spent up to now is       27.9 secs

     total energy              =     -95.07690235 Ry
     Harris-Foulkes estimate   =     -95.08098413 Ry
     estimated scf accuracy    <       0.01599323 Ry

     iteration #  6     ecut=    40.00 Ry     beta=0.70
     Davidson diagonalization with overlap
     ethr =  1.78E-04,  avg # of iterations =  1.0

     total cpu time spent up to now is       29.2 secs

     total energy              =     -95.07221059 Ry
     Harris-Foulkes estimate   =     -95.07719044 Ry
     estimated scf accuracy    <       0.00802531 Ry

     iteration #  7     ecut=    40.00 Ry     beta=0.70
     Davidson diagonalization with overlap
     ethr =  8.92E-05,  avg # of iterations =  2.0

     total cpu time spent up to now is       30.7 secs

     total energy              =     -95.07344656 Ry
     Harris-Foulkes estimate   =     -95.07351771 Ry
     estimated scf accuracy    <       0.00015213 Ry

     iteration #  8     ecut=    40.00 Ry     beta=0.70
     Davidson diagonalization with overlap
     ethr =  1.69E-06,  avg # of iterations =  2.2

     total cpu time spent up to now is       32.4 secs

     total energy              =     -95.07344410 Ry
     Harris-Foulkes estimate   =     -95.07346070 Ry
     estimated scf accuracy    <       0.00002298 Ry

     iteration #  9     ecut=    40.00 Ry     beta=0.70
     Davidson diagonalization with overlap
     ethr =  2.55E-07,  avg # of iterations =  2.2

     total cpu time spent up to now is       34.1 secs

     total energy              =     -95.07347546 Ry
     Harris-Foulkes estimate   =     -95.07347626 Ry
     estimated scf accuracy    <       0.00005641 Ry

     iteration # 10     ecut=    40.00 Ry     beta=0.70
     Davidson diagonalization with overlap
     ethr =  2.55E-07,  avg # of iterations =  1.0

     total cpu time spent up to now is       35.4 secs

     total energy              =     -95.07343602 Ry
     Harris-Foulkes estimate   =     -95.07347548 Ry
     estimated scf accuracy    <       0.00005373 Ry

     iteration # 11     ecut=    40.00 Ry     beta=0.70
     Davidson diagonalization with overlap
     ethr =  2.55E-07,  avg # of iterations =  2.0

     total cpu time spent up to now is       37.0 secs

     total energy              =     -95.07345109 Ry
     Harris-Foulkes estimate   =     -95.07345210 Ry
     estimated scf accuracy    <       0.00000311 Ry

     iteration # 12     ecut=    40.00 Ry     beta=0.70
     Davidson diagonalization with overlap
     ethr =  3.45E-08,  avg # of iterations =  1.0

     total cpu time spent up to now is       38.2 secs

     total energy              =     -95.07345095 Ry
     Harris-Foulkes estimate   =     -95.07345123 Ry
     estimated scf accuracy    <       0.00000058 Ry

     iteration # 13     ecut=    40.00 Ry     beta=0.70
     Davidson diagonalization with overlap
     ethr =  6.41E-09,  avg # of iterations =  2.0

     total cpu time spent up to now is       39.8 secs

     total energy              =     -95.07345105 Ry
     Harris-Foulkes estimate   =     -95.07345105 Ry
     estimated scf accuracy    <          1.8E-09 Ry

     iteration # 14     ecut=    40.00 Ry     beta=0.70
     Davidson diagonalization with overlap
     ethr =  2.00E-11,  avg # of iterations =  1.3

     total cpu time spent up to now is       41.3 secs

     total energy              =     -95.07345105 Ry
     Harris-Foulkes estimate   =     -95.07345105 Ry
     estimated scf accuracy    <          1.3E-09 Ry

     iteration # 15     ecut=    40.00 Ry     beta=0.70
     Davidson diagonalization with overlap
     ethr =  1.42E-11,  avg # of iterations =  1.2

     total cpu time spent up to now is       42.7 secs

     End of self-consistent calculation

     Number of k-points >= 100: set verbosity='high' to print the bands.

     the Fermi energy is     5.0787 ev

!    total energy              =     -95.07345105 Ry
     Harris-Foulkes estimate   =     -95.07345105 Ry
     estimated scf accuracy    <          5.2E-11 Ry

     The total energy is the sum of the following terms:

     one-electron contribution =     -74.00865162 Ry
     hartree contribution      =      38.55980025 Ry
     xc contribution           =     -14.36214958 Ry
     ewald contribution        =     -45.26241828 Ry
     smearing contrib. (-TS)   =      -0.00003182 Ry

     convergence has been achieved in  15 iterations

     Forces acting on atoms (cartesian axes, Ry/au):

     atom    1 type  1   force =     0.00000000    0.00000000    0.00000000

     Total force =     0.000000     Total SCF correction =     0.000000


     Computing stress (Cartesian axis) and pressure

          total   stress  (Ry/bohr**3)                   (kbar)     P=  132.07
   0.00089782  -0.00000000  -0.00000000        132.07     -0.00     -0.00
  -0.00000000   0.00089782   0.00000000         -0.00    132.07      0.00
  -0.00000000   0.00000000   0.00089782         -0.00      0.00    132.07


     number of scf cycles    =   2
     number of bfgs steps    =   1

     enthalpy old            =     -95.0412142089 Ry
     enthalpy new            =     -95.0499832125 Ry

     CASE: enthalpy_new < enthalpy_old

     new trust radius        =       0.0645626500 bohr
     new conv_thr            =            1.0E-12 Ry

     new unit-cell volume =    149.78526 a.u.^3 (    22.19589 Ang^3 )
     density =      1.71995 g/cm^3

CELL_PARAMETERS (alat=  8.00000000)
  -0.526893740   0.000000000   0.526893740
  -0.000000000   0.526893740   0.526893740
  -0.526893740   0.526893740   0.000000000

ATOMIC_POSITIONS (crystal)
Na       0.000000000   0.000000000   0.000000000



     Writing output data file na.fcc.save
     NEW-OLD atomic charge density approx. for the potential
     extrapolated charge    9.70226, renormalised to    9.00000

     total cpu time spent up to now is       46.3 secs

     per-process dynamical memory:    14.0 Mb

     Self-consistent Calculation

     iteration #  1     ecut=    40.00 Ry     beta=0.70
     Davidson diagonalization with overlap
     ethr =  1.00E-06,  avg # of iterations =  4.5

     total cpu time spent up to now is       49.5 secs

     total energy              =     -94.66285282 Ry
     Harris-Foulkes estimate   =     -90.36483974 Ry
     estimated scf accuracy    <       0.23548086 Ry

     iteration #  2     ecut=    40.00 Ry     beta=0.70
     Davidson diagonalization with overlap
     ethr =  2.62E-03,  avg # of iterations =  3.0

     total cpu time spent up to now is       51.5 secs

     total energy              =     -95.10131200 Ry
     Harris-Foulkes estimate   =     -95.27277939 Ry
     estimated scf accuracy    <       0.38862951 Ry

     iteration #  3     ecut=    40.00 Ry     beta=0.70
     Davidson diagonalization with overlap
     ethr =  2.62E-03,  avg # of iterations =  1.1

     total cpu time spent up to now is       53.2 secs

     total energy              =     -95.09172712 Ry
     Harris-Foulkes estimate   =     -95.12301752 Ry
     estimated scf accuracy    <       0.08759756 Ry

     iteration #  4     ecut=    40.00 Ry     beta=0.70
     Davidson diagonalization with overlap
     ethr =  9.73E-04,  avg # of iterations =  1.0

     total cpu time spent up to now is       54.5 secs

     total energy              =     -95.09046163 Ry
     Harris-Foulkes estimate   =     -95.09563405 Ry
     estimated scf accuracy    <       0.02790604 Ry

     iteration #  5     ecut=    40.00 Ry     beta=0.70
     Davidson diagonalization with overlap
     ethr =  3.10E-04,  avg # of iterations =  1.0

     total cpu time spent up to now is       55.7 secs

     total energy              =     -95.08578075 Ry
     Harris-Foulkes estimate   =     -95.09085597 Ry
     estimated scf accuracy    <       0.01773543 Ry

     iteration #  6     ecut=    40.00 Ry     beta=0.70
     Davidson diagonalization with overlap
     ethr =  1.97E-04,  avg # of iterations =  1.0

     total cpu time spent up to now is       57.0 secs

     total energy              =     -95.08092258 Ry
     Harris-Foulkes estimate   =     -95.08617173 Ry
     estimated scf accuracy    <       0.00803557 Ry

     iteration #  7     ecut=    40.00 Ry     beta=0.70
     Davidson diagonalization with overlap
     ethr =  8.93E-05,  avg # of iterations =  2.0

     total cpu time spent up to now is       58.6 secs

     total energy              =     -95.08245332 Ry
     Harris-Foulkes estimate   =     -95.08244243 Ry
     estimated scf accuracy    <       0.00004411 Ry

     iteration #  8     ecut=    40.00 Ry     beta=0.70
     Davidson diagonalization with overlap
     ethr =  4.90E-07,  avg # of iterations =  2.5

     total cpu time spent up to now is       60.4 secs

     total energy              =     -95.08240036 Ry
     Harris-Foulkes estimate   =     -95.08245696 Ry
     estimated scf accuracy    <       0.00006730 Ry

     iteration #  9     ecut=    40.00 Ry     beta=0.70
     Davidson diagonalization with overlap
     ethr =  4.90E-07,  avg # of iterations =  2.0

     total cpu time spent up to now is       62.1 secs

     total energy              =     -95.08245006 Ry
     Harris-Foulkes estimate   =     -95.08245662 Ry
     estimated scf accuracy    <       0.00007149 Ry

     iteration # 10     ecut=    40.00 Ry     beta=0.70
     Davidson diagonalization with overlap
     ethr =  4.90E-07,  avg # of iterations =  1.0

     total cpu time spent up to now is       63.4 secs

     total energy              =     -95.08241175 Ry
     Harris-Foulkes estimate   =     -95.08245024 Ry
     estimated scf accuracy    <       0.00005786 Ry

     iteration # 11     ecut=    40.00 Ry     beta=0.70
     Davidson diagonalization with overlap
     ethr =  4.90E-07,  avg # of iterations =  2.0

     total cpu time spent up to now is       65.0 secs

     total energy              =     -95.08242629 Ry
     Harris-Foulkes estimate   =     -95.08242637 Ry
     estimated scf accuracy    <       0.00000118 Ry

     iteration # 12     ecut=    40.00 Ry     beta=0.70
     Davidson diagonalization with overlap
     ethr =  1.31E-08,  avg # of iterations =  1.0

     total cpu time spent up to now is       66.2 secs

     total energy              =     -95.08242560 Ry
     Harris-Foulkes estimate   =     -95.08242630 Ry
     estimated scf accuracy    <       0.00000136 Ry

     iteration # 13     ecut=    40.00 Ry     beta=0.70
     Davidson diagonalization with overlap
     ethr =  1.31E-08,  avg # of iterations =  2.0

     total cpu time spent up to now is       67.8 secs

     total energy              =     -95.08242587 Ry
     Harris-Foulkes estimate   =     -95.08242598 Ry
     estimated scf accuracy    <       0.00000025 Ry

     iteration # 14     ecut=    40.00 Ry     beta=0.70
     Davidson diagonalization with overlap
     ethr =  2.78E-09,  avg # of iterations =  1.0

     total cpu time spent up to now is       69.1 secs

     total energy              =     -95.08242588 Ry
     Harris-Foulkes estimate   =     -95.08242589 Ry
     estimated scf accuracy    <       0.00000002 Ry

     iteration # 15     ecut=    40.00 Ry     beta=0.70
     Davidson diagonalization with overlap
     ethr =  1.97E-10,  avg # of iterations =  2.0

     total cpu time spent up to now is       70.6 secs

     total energy              =     -95.08242589 Ry
     Harris-Foulkes estimate   =     -95.08242589 Ry
     estimated scf accuracy    <          2.9E-11 Ry

     iteration # 16     ecut=    40.00 Ry     beta=0.70
     Davidson diagonalization with overlap
     ethr =  3.19E-13,  avg # of iterations =  2.0

     total cpu time spent up to now is       72.1 secs

     total energy              =     -95.08242589 Ry
     Harris-Foulkes estimate   =     -95.08242589 Ry
     estimated scf accuracy    <          1.2E-11 Ry

     iteration # 17     ecut=    40.00 Ry     beta=0.70
     Davidson diagonalization with overlap
     ethr =  1.30E-13,  avg # of iterations =  1.0

     total cpu time spent up to now is       73.4 secs

     total energy              =     -95.08242589 Ry
     Harris-Foulkes estimate   =     -95.08242589 Ry
     estimated scf accuracy    <          1.1E-12 Ry

     iteration # 18     ecut=    40.00 Ry     beta=0.70
     Davidson diagonalization with overlap
     ethr =  1.00E-13,  avg # of iterations =  1.0

     total cpu time spent up to now is       74.8 secs

     End of self-consistent calculation

     Number of k-points >= 100: set verbosity='high' to print the bands.

     the Fermi energy is     4.4587 ev

!    total energy              =     -95.08242589 Ry
     Harris-Foulkes estimate   =     -95.08242589 Ry
     estimated scf accuracy    <          1.1E-14 Ry

     The total energy is the sum of the following terms:

     one-electron contribution =     -76.09273788 Ry
     hartree contribution      =      39.40952626 Ry
     xc contribution           =     -14.34691363 Ry
     ewald contribution        =     -44.05226798 Ry
     smearing contrib. (-TS)   =      -0.00003266 Ry

     convergence has been achieved in  18 iterations

     Forces acting on atoms (cartesian axes, Ry/au):

     atom    1 type  1   force =     0.00000000    0.00000000    0.00000000

     Total force =     0.000000     Total SCF correction =     0.000000


     Computing stress (Cartesian axis) and pressure

          total   stress  (Ry/bohr**3)                   (kbar)     P=   95.72
   0.00065071   0.00000000   0.00000000         95.72      0.00      0.00
   0.00000000   0.00065071   0.00000000          0.00     95.72      0.00
  -0.00000000   0.00000000   0.00065071         -0.00      0.00     95.72


     number of scf cycles    =   3
     number of bfgs steps    =   2

     enthalpy old            =     -95.0499832125 Ry
     enthalpy new            =     -95.0569703934 Ry

     CASE: enthalpy_new < enthalpy_old

     new trust radius        =       0.0981651529 bohr
     new conv_thr            =            1.0E-12 Ry

     new unit-cell volume =    168.53883 a.u.^3 (    24.97488 Ang^3 )
     density =      1.52857 g/cm^3

CELL_PARAMETERS (alat=  8.00000000)
  -0.548024537   0.000000000   0.548024537
  -0.000000000   0.548024537   0.548024537
  -0.548024537   0.548024537   0.000000000

ATOMIC_POSITIONS (crystal)
Na       0.000000000   0.000000000   0.000000000



     Writing output data file na.fcc.save
     NEW-OLD atomic charge density approx. for the potential
     extrapolated charge   10.00074, renormalised to    9.00000

     total cpu time spent up to now is       78.2 secs

     per-process dynamical memory:    14.0 Mb

     Self-consistent Calculation

     iteration #  1     ecut=    40.00 Ry     beta=0.70
     Davidson diagonalization with overlap
     ethr =  1.00E-06,  avg # of iterations =  4.9

     total cpu time spent up to now is       81.5 secs

     total energy              =     -94.05171368 Ry
     Harris-Foulkes estimate   =     -88.10744995 Ry
     estimated scf accuracy    <       0.59164032 Ry

     iteration #  2     ecut=    40.00 Ry     beta=0.70
     Davidson diagonalization with overlap
     ethr =  6.57E-03,  avg # of iterations =  3.0

     total cpu time spent up to now is       83.5 secs

     total energy              =     -95.15130742 Ry
     Harris-Foulkes estimate   =     -95.57245382 Ry
     estimated scf accuracy    <       0.94467793 Ry

     iteration #  3     ecut=    40.00 Ry     beta=0.70
     Davidson diagonalization with overlap
     ethr =  6.57E-03,  avg # of iterations =  1.0

     total cpu time spent up to now is       84.7 secs

     total energy              =     -95.11441253 Ry
     Harris-Foulkes estimate   =     -95.20009107 Ry
     estimated scf accuracy    <       0.22580655 Ry

     iteration #  4     ecut=    40.00 Ry     beta=0.70
     Davidson diagonalization with overlap
     ethr =  2.51E-03,  avg # of iterations =  1.0

     total cpu time spent up to now is       86.0 secs

     total energy              =     -95.11058162 Ry
     Harris-Foulkes estimate   =     -95.12485120 Ry
     estimated scf accuracy    <       0.06818547 Ry

     iteration #  5     ecut=    40.00 Ry     beta=0.70
     Davidson diagonalization with overlap
     ethr =  7.58E-04,  avg # of iterations =  1.0

     total cpu time spent up to now is       87.3 secs

     total energy              =     -95.09629803 Ry
     Harris-Foulkes estimate   =     -95.11167372 Ry
     estimated scf accuracy    <       0.04037991 Ry

     iteration #  6     ecut=    40.00 Ry     beta=0.70
     Davidson diagonalization with overlap
     ethr =  4.49E-04,  avg # of iterations =  1.0

     total cpu time spent up to now is       88.5 secs

     total energy              =     -95.08913814 Ry
     Harris-Foulkes estimate   =     -95.09790577 Ry
     estimated scf accuracy    <       0.01256378 Ry

     iteration #  7     ecut=    40.00 Ry     beta=0.70
     Davidson diagonalization with overlap
     ethr =  1.40E-04,  avg # of iterations =  2.0

     total cpu time spent up to now is       90.2 secs

     total energy              =     -95.09202964 Ry
     Harris-Foulkes estimate   =     -95.09202584 Ry
     estimated scf accuracy    <       0.00001500 Ry

     iteration #  8     ecut=    40.00 Ry     beta=0.70
     Davidson diagonalization with overlap
     ethr =  1.67E-07,  avg # of iterations =  3.2

     total cpu time spent up to now is       92.2 secs

     total energy              =     -95.09202795 Ry
     Harris-Foulkes estimate   =     -95.09203167 Ry
     estimated scf accuracy    <       0.00002512 Ry

     iteration #  9     ecut=    40.00 Ry     beta=0.70
     Davidson diagonalization with overlap
     ethr =  1.67E-07,  avg # of iterations =  1.0

     total cpu time spent up to now is       93.5 secs

     total energy              =     -95.09201937 Ry
     Harris-Foulkes estimate   =     -95.09202822 Ry
     estimated scf accuracy    <       0.00001658 Ry

     iteration # 10     ecut=    40.00 Ry     beta=0.70
     Davidson diagonalization with overlap
     ethr =  1.67E-07,  avg # of iterations =  2.0

     total cpu time spent up to now is       95.1 secs

     total energy              =     -95.09202177 Ry
     Harris-Foulkes estimate   =     -95.09202671 Ry
     estimated scf accuracy    <       0.00000837 Ry

     iteration # 11     ecut=    40.00 Ry     beta=0.70
     Davidson diagonalization with overlap
     ethr =  9.30E-08,  avg # of iterations =  2.0

     total cpu time spent up to now is       96.6 secs

     total energy              =     -95.09202337 Ry
     Harris-Foulkes estimate   =     -95.09202338 Ry
     estimated scf accuracy    <       0.00000016 Ry

     iteration # 12     ecut=    40.00 Ry     beta=0.70
     Davidson diagonalization with overlap
     ethr =  1.79E-09,  avg # of iterations =  1.6

     total cpu time spent up to now is       98.1 secs

     total energy              =     -95.09202333 Ry
     Harris-Foulkes estimate   =     -95.09202338 Ry
     estimated scf accuracy    <       0.00000009 Ry

     iteration # 13     ecut=    40.00 Ry     beta=0.70
     Davidson diagonalization with overlap
     ethr =  1.03E-09,  avg # of iterations =  2.0

     total cpu time spent up to now is       99.7 secs

     total energy              =     -95.09202335 Ry
     Harris-Foulkes estimate   =     -95.09202336 Ry
     estimated scf accuracy    <       0.00000004 Ry

     iteration # 14     ecut=    40.00 Ry     beta=0.70
     Davidson diagonalization with overlap
     ethr =  4.29E-10,  avg # of iterations =  1.0

     total cpu time spent up to now is      101.1 secs

     total energy              =     -95.09202337 Ry
     Harris-Foulkes estimate   =     -95.09202335 Ry
     estimated scf accuracy    <       0.00000008 Ry

     iteration # 15     ecut=    40.00 Ry     beta=0.70
     Davidson diagonalization with overlap
     ethr =  4.29E-10,  avg # of iterations =  1.6

     total cpu time spent up to now is      102.5 secs

     total energy              =     -95.09202337 Ry
     Harris-Foulkes estimate   =     -95.09202337 Ry
     estimated scf accuracy    <          1.6E-09 Ry

     iteration # 16     ecut=    40.00 Ry     beta=0.70
     Davidson diagonalization with overlap
     ethr =  1.82E-11,  avg # of iterations =  1.6

     total cpu time spent up to now is      104.0 secs

     total energy              =     -95.09202337 Ry
     Harris-Foulkes estimate   =     -95.09202337 Ry
     estimated scf accuracy    <          1.3E-10 Ry

     iteration # 17     ecut=    40.00 Ry     beta=0.70
     Davidson diagonalization with overlap
     ethr =  1.48E-12,  avg # of iterations =  1.6

     total cpu time spent up to now is      105.4 secs

     total energy              =     -95.09202337 Ry
     Harris-Foulkes estimate   =     -95.09202337 Ry
     estimated scf accuracy    <          1.9E-12 Ry

     iteration # 18     ecut=    40.00 Ry     beta=0.70
     Davidson diagonalization with overlap
     ethr =  1.00E-13,  avg # of iterations =  1.6

     total cpu time spent up to now is      106.8 secs

     End of self-consistent calculation

     Number of k-points >= 100: set verbosity='high' to print the bands.

     the Fermi energy is     3.6524 ev

!    total energy              =     -95.09202337 Ry
     Harris-Foulkes estimate   =     -95.09202337 Ry
     estimated scf accuracy    <          2.4E-13 Ry

     The total energy is the sum of the following terms:

     one-electron contribution =     -79.03005442 Ry
     hartree contribution      =      40.61834034 Ry
     xc contribution           =     -14.32657928 Ry
     ewald contribution        =     -42.35369533 Ry
     smearing contrib. (-TS)   =      -0.00003469 Ry

     convergence has been achieved in  18 iterations

     Forces acting on atoms (cartesian axes, Ry/au):

     atom    1 type  1   force =     0.00000000    0.00000000    0.00000000

     Total force =     0.000000     Total SCF correction =     0.000000


     Computing stress (Cartesian axis) and pressure

          total   stress  (Ry/bohr**3)                   (kbar)     P=   58.26
   0.00039603   0.00000000   0.00000000         58.26      0.00      0.00
   0.00000000   0.00039603  -0.00000000          0.00     58.26     -0.00
   0.00000000  -0.00000000   0.00039603          0.00     -0.00     58.26


     number of scf cycles    =   4
     number of bfgs steps    =   3

     enthalpy old            =     -95.0569703934 Ry
     enthalpy new            =     -95.0633807771 Ry

     CASE: enthalpy_new < enthalpy_old

     new trust radius        =       0.1036740468 bohr
     new conv_thr            =            1.0E-12 Ry

     new unit-cell volume =    189.54452 a.u.^3 (    28.08760 Ang^3 )
     density =      1.35917 g/cm^3

CELL_PARAMETERS (alat=  8.00000000)
  -0.569906691   0.000000000   0.569906691
  -0.000000000   0.569906691   0.569906691
  -0.569906691   0.569906691   0.000000000

ATOMIC_POSITIONS (crystal)
Na       0.000000000   0.000000000   0.000000000



     Writing output data file na.fcc.save
     NEW-OLD atomic charge density approx. for the potential
     extrapolated charge    9.99670, renormalised to    9.00000

     total cpu time spent up to now is      110.3 secs

     per-process dynamical memory:    14.0 Mb

     Self-consistent Calculation

     iteration #  1     ecut=    40.00 Ry     beta=0.70
     Davidson diagonalization with overlap
     ethr =  1.00E-06,  avg # of iterations =  5.0

     total cpu time spent up to now is      113.6 secs

     total energy              =     -94.04065494 Ry
     Harris-Foulkes estimate   =     -87.87249505 Ry
     estimated scf accuracy    <       0.60149472 Ry

     iteration #  2     ecut=    40.00 Ry     beta=0.70
     Davidson diagonalization with overlap
     ethr =  6.68E-03,  avg # of iterations =  3.0

     total cpu time spent up to now is      115.6 secs

     total energy              =     -95.15892846 Ry
     Harris-Foulkes estimate   =     -95.58591302 Ry
     estimated scf accuracy    <       0.95648343 Ry

     iteration #  3     ecut=    40.00 Ry     beta=0.70
     Davidson diagonalization with overlap
     ethr =  6.68E-03,  avg # of iterations =  1.0

     total cpu time spent up to now is      116.8 secs

     total energy              =     -95.12112513 Ry
     Harris-Foulkes estimate   =     -95.20828493 Ry
     estimated scf accuracy    <       0.22865627 Ry

     iteration #  4     ecut=    40.00 Ry     beta=0.70
     Davidson diagonalization with overlap
     ethr =  2.54E-03,  avg # of iterations =  1.0

     total cpu time spent up to now is      118.1 secs

     total energy              =     -95.11468220 Ry
     Harris-Foulkes estimate   =     -95.13168385 Ry
     estimated scf accuracy    <       0.06887480 Ry

     iteration #  5     ecut=    40.00 Ry     beta=0.70
     Davidson diagonalization with overlap
     ethr =  7.65E-04,  avg # of iterations =  1.0

     total cpu time spent up to now is      119.3 secs

     total energy              =     -95.09738829 Ry
     Harris-Foulkes estimate   =     -95.11605521 Ry
     estimated scf accuracy    <       0.03605170 Ry

     iteration #  6     ecut=    40.00 Ry     beta=0.70
     Davidson diagonalization with overlap
     ethr =  4.01E-04,  avg # of iterations =  1.0

     total cpu time spent up to now is      120.6 secs

     total energy              =     -95.09723485 Ry
     Harris-Foulkes estimate   =     -95.10045660 Ry
     estimated scf accuracy    <       0.00451319 Ry

     iteration #  7     ecut=    40.00 Ry     beta=0.70
     Davidson diagonalization with overlap
     ethr =  5.01E-05,  avg # of iterations =  2.2

     total cpu time spent up to now is      122.5 secs

     total energy              =     -95.09853223 Ry
     Harris-Foulkes estimate   =     -95.09846278 Ry
     estimated scf accuracy    <       0.00002298 Ry

     iteration #  8     ecut=    40.00 Ry     beta=0.70
     Davidson diagonalization with overlap
     ethr =  2.55E-07,  avg # of iterations =  3.0

     total cpu time spent up to now is      124.6 secs

     total energy              =     -95.09853519 Ry
     Harris-Foulkes estimate   =     -95.09855400 Ry
     estimated scf accuracy    <       0.00021733 Ry

     iteration #  9     ecut=    40.00 Ry     beta=0.70
     Davidson diagonalization with overlap
     ethr =  2.55E-07,  avg # of iterations =  1.0

     total cpu time spent up to now is      125.9 secs

     total energy              =     -95.09841498 Ry
     Harris-Foulkes estimate   =     -95.09853563 Ry
     estimated scf accuracy    <       0.00017702 Ry

     iteration # 10     ecut=    40.00 Ry     beta=0.70
     Davidson diagonalization with overlap
     ethr =  2.55E-07,  avg # of iterations =  2.3

     total cpu time spent up to now is      127.6 secs

     total energy              =     -95.09845315 Ry
     Harris-Foulkes estimate   =     -95.09845312 Ry
     estimated scf accuracy    <          8.4E-09 Ry

     iteration # 11     ecut=    40.00 Ry     beta=0.70
     Davidson diagonalization with overlap
     ethr =  9.30E-11,  avg # of iterations =  3.0

     total cpu time spent up to now is      129.5 secs

     total energy              =     -95.09845314 Ry
     Harris-Foulkes estimate   =     -95.09845317 Ry
     estimated scf accuracy    <       0.00000012 Ry

     iteration # 12     ecut=    40.00 Ry     beta=0.70
     Davidson diagonalization with overlap
     ethr =  9.30E-11,  avg # of iterations =  2.0

     total cpu time spent up to now is      131.1 secs

     total energy              =     -95.09845312 Ry
     Harris-Foulkes estimate   =     -95.09845314 Ry
     estimated scf accuracy    <       0.00000003 Ry

     iteration # 13     ecut=    40.00 Ry     beta=0.70
     Davidson diagonalization with overlap
     ethr =  9.30E-11,  avg # of iterations =  2.0

     total cpu time spent up to now is      132.7 secs

     total energy              =     -95.09845313 Ry
     Harris-Foulkes estimate   =     -95.09845312 Ry
     estimated scf accuracy    <          8.6E-09 Ry

     iteration # 14     ecut=    40.00 Ry     beta=0.70
     Davidson diagonalization with overlap
     ethr =  9.30E-11,  avg # of iterations =  1.0

     total cpu time spent up to now is      134.1 secs

     total energy              =     -95.09845313 Ry
     Harris-Foulkes estimate   =     -95.09845313 Ry
     estimated scf accuracy    <          1.2E-10 Ry

     iteration # 15     ecut=    40.00 Ry     beta=0.70
     Davidson diagonalization with overlap
     ethr =  1.29E-12,  avg # of iterations =  1.6

     total cpu time spent up to now is      135.5 secs

     total energy              =     -95.09845313 Ry
     Harris-Foulkes estimate   =     -95.09845313 Ry
     estimated scf accuracy    <          4.0E-11 Ry

     iteration # 16     ecut=    40.00 Ry     beta=0.70
     Davidson diagonalization with overlap
     ethr =  4.40E-13,  avg # of iterations =  2.0

     total cpu time spent up to now is      137.1 secs

     total energy              =     -95.09845313 Ry
     Harris-Foulkes estimate   =     -95.09845313 Ry
     estimated scf accuracy    <          2.1E-10 Ry

     iteration # 17     ecut=    40.00 Ry     beta=0.70
     Davidson diagonalization with overlap
     ethr =  4.40E-13,  avg # of iterations =  2.0

     total cpu time spent up to now is      138.7 secs

     End of self-consistent calculation

     Number of k-points >= 100: set verbosity='high' to print the bands.

     the Fermi energy is     2.9473 ev

!    total energy              =     -95.09845313 Ry
     Harris-Foulkes estimate   =     -95.09845313 Ry
     estimated scf accuracy    <          1.5E-13 Ry

     The total energy is the sum of the following terms:

     one-electron contribution =     -81.85538139 Ry
     hartree contribution      =      41.79257782 Ry
     xc contribution           =     -14.30813045 Ry
     ewald contribution        =     -40.72748157 Ry
     smearing contrib. (-TS)   =      -0.00003754 Ry

     convergence has been achieved in  17 iterations

     Forces acting on atoms (cartesian axes, Ry/au):

     atom    1 type  1   force =     0.00000000    0.00000000    0.00000000

     Total force =     0.000000     Total SCF correction =     0.000000


     Computing stress (Cartesian axis) and pressure

          total   stress  (Ry/bohr**3)                   (kbar)     P=   33.93
   0.00023062  -0.00000000   0.00000000         33.93     -0.00      0.00
   0.00000000   0.00023062  -0.00000000          0.00     33.93     -0.00
  -0.00000000  -0.00000000   0.00023062         -0.00     -0.00     33.93


     number of scf cycles    =   5
     number of bfgs steps    =   4

     enthalpy old            =     -95.0633807771 Ry
     enthalpy new            =     -95.0662406884 Ry

     CASE: enthalpy_new < enthalpy_old

     new trust radius        =       0.0432283268 bohr
     new conv_thr            =            1.0E-12 Ry

     new unit-cell volume =    198.61260 a.u.^3 (    29.43135 Ang^3 )
     density =      1.29711 g/cm^3

CELL_PARAMETERS (alat=  8.00000000)
  -0.578853879   0.000000000   0.578853879
  -0.000000000   0.578853879   0.578853879
  -0.578853879   0.578853879   0.000000000

ATOMIC_POSITIONS (crystal)
Na       0.000000000   0.000000000   0.000000000



     Writing output data file na.fcc.save
     NEW-OLD atomic charge density approx. for the potential
     extrapolated charge    9.41063, renormalised to    9.00000

     total cpu time spent up to now is      142.2 secs

     per-process dynamical memory:    14.0 Mb

     Self-consistent Calculation

     iteration #  1     ecut=    40.00 Ry     beta=0.70
     Davidson diagonalization with overlap
     ethr =  1.00E-06,  avg # of iterations =  4.0

     total cpu time spent up to now is      145.1 secs

     total energy              =     -94.97068953 Ry
     Harris-Foulkes estimate   =     -92.07741748 Ry
     estimated scf accuracy    <       0.07221257 Ry

     iteration #  2     ecut=    40.00 Ry     beta=0.70
     Davidson diagonalization with overlap
     ethr =  8.02E-04,  avg # of iterations =  2.9

     total cpu time spent up to now is      147.2 secs

     total energy              =     -95.10476537 Ry
     Harris-Foulkes estimate   =     -95.15772898 Ry
     estimated scf accuracy    <       0.12045635 Ry

     iteration #  3     ecut=    40.00 Ry     beta=0.70
     Davidson diagonalization with overlap
     ethr =  8.02E-04,  avg # of iterations =  1.2

     total cpu time spent up to now is      148.5 secs

     total energy              =     -95.10318587 Ry
     Harris-Foulkes estimate   =     -95.11198747 Ry
     estimated scf accuracy    <       0.02554544 Ry

     iteration #  4     ecut=    40.00 Ry     beta=0.70
     Davidson diagonalization with overlap
     ethr =  2.84E-04,  avg # of iterations =  1.0

     total cpu time spent up to now is      149.8 secs

     total energy              =     -95.10140172 Ry
     Harris-Foulkes estimate   =     -95.10426958 Ry
     estimated scf accuracy    <       0.00847067 Ry

     iteration #  5     ecut=    40.00 Ry     beta=0.70
     Davidson diagonalization with overlap
     ethr =  9.41E-05,  avg # of iterations =  1.0

     total cpu time spent up to now is      151.0 secs

     total energy              =     -95.10023900 Ry
     Harris-Foulkes estimate   =     -95.10171440 Ry
     estimated scf accuracy    <       0.00299132 Ry

     iteration #  6     ecut=    40.00 Ry     beta=0.70
     Davidson diagonalization with overlap
     ethr =  3.32E-05,  avg # of iterations =  1.1

     total cpu time spent up to now is      152.4 secs

     total energy              =     -95.10024045 Ry
     Harris-Foulkes estimate   =     -95.10048700 Ry
     estimated scf accuracy    <       0.00040590 Ry

     iteration #  7     ecut=    40.00 Ry     beta=0.70
     Davidson diagonalization with overlap
     ethr =  4.51E-06,  avg # of iterations =  2.2

     total cpu time spent up to now is      154.1 secs

     total energy              =     -95.10031533 Ry
     Harris-Foulkes estimate   =     -95.10031199 Ry
     estimated scf accuracy    <       0.00000954 Ry

     iteration #  8     ecut=    40.00 Ry     beta=0.70
     Davidson diagonalization with overlap
     ethr =  1.06E-07,  avg # of iterations =  1.0

     total cpu time spent up to now is      155.4 secs

     total energy              =     -95.10030217 Ry
     Harris-Foulkes estimate   =     -95.10031567 Ry
     estimated scf accuracy    <       0.00001711 Ry

     iteration #  9     ecut=    40.00 Ry     beta=0.70
     Davidson diagonalization with overlap
     ethr =  1.06E-07,  avg # of iterations =  2.0

     total cpu time spent up to now is      157.0 secs

     total energy              =     -95.10030729 Ry
     Harris-Foulkes estimate   =     -95.10030853 Ry
     estimated scf accuracy    <       0.00000181 Ry

     iteration # 10     ecut=    40.00 Ry     beta=0.70
     Davidson diagonalization with overlap
     ethr =  2.01E-08,  avg # of iterations =  2.0

     total cpu time spent up to now is      158.6 secs

     total energy              =     -95.10030770 Ry
     Harris-Foulkes estimate   =     -95.10030770 Ry
     estimated scf accuracy    <          3.1E-09 Ry

     iteration # 11     ecut=    40.00 Ry     beta=0.70
     Davidson diagonalization with overlap
     ethr =  3.44E-11,  avg # of iterations =  1.7

     total cpu time spent up to now is      160.0 secs

     total energy              =     -95.10030770 Ry
     Harris-Foulkes estimate   =     -95.10030770 Ry
     estimated scf accuracy    <          7.4E-10 Ry

     iteration # 12     ecut=    40.00 Ry     beta=0.70
     Davidson diagonalization with overlap
     ethr =  8.20E-12,  avg # of iterations =  1.0

     total cpu time spent up to now is      161.4 secs

     total energy              =     -95.10030770 Ry
     Harris-Foulkes estimate   =     -95.10030770 Ry
     estimated scf accuracy    <          2.0E-10 Ry

     iteration # 13     ecut=    40.00 Ry     beta=0.70
     Davidson diagonalization with overlap
     ethr =  2.28E-12,  avg # of iterations =  1.4

     total cpu time spent up to now is      162.8 secs

     total energy              =     -95.10030770 Ry
     Harris-Foulkes estimate   =     -95.10030770 Ry
     estimated scf accuracy    <          1.6E-11 Ry

     iteration # 14     ecut=    40.00 Ry     beta=0.70
     Davidson diagonalization with overlap
     ethr =  1.80E-13,  avg # of iterations =  2.0

     total cpu time spent up to now is      164.5 secs

     total energy              =     -95.10030770 Ry
     Harris-Foulkes estimate   =     -95.10030770 Ry
     estimated scf accuracy    <          3.7E-11 Ry

     iteration # 15     ecut=    40.00 Ry     beta=0.70
     Davidson diagonalization with overlap
     ethr =  1.80E-13,  avg # of iterations =  2.0

     total cpu time spent up to now is      166.0 secs

     total energy              =     -95.10030770 Ry
     Harris-Foulkes estimate   =     -95.10030770 Ry
     estimated scf accuracy    <          2.8E-12 Ry

     iteration # 16     ecut=    40.00 Ry     beta=0.70
     Davidson diagonalization with overlap
     ethr =  1.00E-13,  avg # of iterations =  1.0

     total cpu time spent up to now is      167.3 secs

     End of self-consistent calculation

     Number of k-points >= 100: set verbosity='high' to print the bands.

     the Fermi energy is     2.6911 ev

!    total energy              =     -95.10030770 Ry
     Harris-Foulkes estimate   =     -95.10030770 Ry
     estimated scf accuracy    <          1.5E-14 Ry

     The total energy is the sum of the following terms:

     one-electron contribution =     -82.95224005 Ry
     hartree contribution      =      42.25109927 Ry
     xc contribution           =     -14.30116018 Ry
     ewald contribution        =     -40.09796787 Ry
     smearing contrib. (-TS)   =      -0.00003888 Ry

     convergence has been achieved in  16 iterations

     Forces acting on atoms (cartesian axes, Ry/au):

     atom    1 type  1   force =     0.00000000    0.00000000    0.00000000

     Total force =     0.000000     Total SCF correction =     0.000000


     Computing stress (Cartesian axis) and pressure

          total   stress  (Ry/bohr**3)                   (kbar)     P=   26.44
   0.00017971  -0.00000000  -0.00000000         26.44     -0.00     -0.00
  -0.00000000   0.00017971   0.00000000         -0.00     26.44      0.00
  -0.00000000   0.00000000   0.00017971         -0.00      0.00     26.44


     number of scf cycles    =   6
     number of bfgs steps    =   5

     enthalpy old            =     -95.0662406884 Ry
     enthalpy new            =     -95.0665541711 Ry

     CASE: enthalpy_new < enthalpy_old

     new trust radius        =       0.0086756407 bohr
     new conv_thr            =            1.0E-12 Ry

     new unit-cell volume =    200.45224 a.u.^3 (    29.70396 Ang^3 )
     density =      1.28521 g/cm^3

CELL_PARAMETERS (alat=  8.00000000)
  -0.580635590   0.000000000   0.580635590
  -0.000000000   0.580635590   0.580635590
  -0.580635590   0.580635590   0.000000000

ATOMIC_POSITIONS (crystal)
Na       0.000000000   0.000000000   0.000000000



     Writing output data file na.fcc.save
     NEW-OLD atomic charge density approx. for the potential
     extrapolated charge    9.08254, renormalised to    9.00000

     total cpu time spent up to now is      171.0 secs

     per-process dynamical memory:    14.0 Mb

     Self-consistent Calculation

     iteration #  1     ecut=    40.00 Ry     beta=0.70
     Davidson diagonalization with overlap
     ethr =  1.00E-06,  avg # of iterations =  2.9

     total cpu time spent up to now is      173.6 secs

     total energy              =     -95.09607673 Ry
     Harris-Foulkes estimate   =     -94.49359582 Ry
     estimated scf accuracy    <       0.00254152 Ry

     iteration #  2     ecut=    40.00 Ry     beta=0.70
     Davidson diagonalization with overlap
     ethr =  2.82E-05,  avg # of iterations =  2.8

     total cpu time spent up to now is      175.7 secs

     total energy              =     -95.10072960 Ry
     Harris-Foulkes estimate   =     -95.10259929 Ry
     estimated scf accuracy    <       0.00425794 Ry

     iteration #  3     ecut=    40.00 Ry     beta=0.70
     Davidson diagonalization with overlap
     ethr =  2.82E-05,  avg # of iterations =  1.5

     total cpu time spent up to now is      177.1 secs

     total energy              =     -95.10073177 Ry
     Harris-Foulkes estimate   =     -95.10100606 Ry
     estimated scf accuracy    <       0.00083753 Ry

     iteration #  4     ecut=    40.00 Ry     beta=0.70
     Davidson diagonalization with overlap
     ethr =  9.31E-06,  avg # of iterations =  1.0

     total cpu time spent up to now is      178.4 secs

     total energy              =     -95.10066054 Ry
     Harris-Foulkes estimate   =     -95.10076496 Ry
     estimated scf accuracy    <       0.00029367 Ry

     iteration #  5     ecut=    40.00 Ry     beta=0.70
     Davidson diagonalization with overlap
     ethr =  3.26E-06,  avg # of iterations =  1.0

     total cpu time spent up to now is      179.6 secs

     total energy              =     -95.10064345 Ry
     Harris-Foulkes estimate   =     -95.10067285 Ry
     estimated scf accuracy    <       0.00009363 Ry

     iteration #  6     ecut=    40.00 Ry     beta=0.70
     Davidson diagonalization with overlap
     ethr =  1.04E-06,  avg # of iterations =  1.0

     total cpu time spent up to now is      180.9 secs

     total energy              =     -95.10062692 Ry
     Harris-Foulkes estimate   =     -95.10064644 Ry
     estimated scf accuracy    <       0.00003630 Ry

     iteration #  7     ecut=    40.00 Ry     beta=0.70
     Davidson diagonalization with overlap
     ethr =  4.03E-07,  avg # of iterations =  1.5

     total cpu time spent up to now is      182.4 secs

     total energy              =     -95.10062879 Ry
     Harris-Foulkes estimate   =     -95.10063078 Ry
     estimated scf accuracy    <       0.00000295 Ry

     iteration #  8     ecut=    40.00 Ry     beta=0.70
     Davidson diagonalization with overlap
     ethr =  3.28E-08,  avg # of iterations =  2.0

     total cpu time spent up to now is      184.0 secs

     total energy              =     -95.10062953 Ry
     Harris-Foulkes estimate   =     -95.10062953 Ry
     estimated scf accuracy    <          7.5E-11 Ry

     iteration #  9     ecut=    40.00 Ry     beta=0.70
     Davidson diagonalization with overlap
     ethr =  8.32E-13,  avg # of iterations =  3.1

     total cpu time spent up to now is      186.0 secs

     total energy              =     -95.10062953 Ry
     Harris-Foulkes estimate   =     -95.10062953 Ry
     estimated scf accuracy    <          3.2E-09 Ry

     iteration # 10     ecut=    40.00 Ry     beta=0.70
     Davidson diagonalization with overlap
     ethr =  8.32E-13,  avg # of iterations =  3.0

     total cpu time spent up to now is      188.0 secs

     total energy              =     -95.10062953 Ry
     Harris-Foulkes estimate   =     -95.10062953 Ry
     estimated scf accuracy    <          6.7E-11 Ry

     iteration # 11     ecut=    40.00 Ry     beta=0.70
     Davidson diagonalization with overlap
     ethr =  7.40E-13,  avg # of iterations =  2.0

     total cpu time spent up to now is      189.6 secs

     total energy              =     -95.10062953 Ry
     Harris-Foulkes estimate   =     -95.10062953 Ry
     estimated scf accuracy    <          1.5E-11 Ry

     iteration # 12     ecut=    40.00 Ry     beta=0.70
     Davidson diagonalization with overlap
     ethr =  1.70E-13,  avg # of iterations =  1.0

     total cpu time spent up to now is      190.9 secs

     total energy              =     -95.10062953 Ry
     Harris-Foulkes estimate   =     -95.10062953 Ry
     estimated scf accuracy    <          1.3E-11 Ry

     iteration # 13     ecut=    40.00 Ry     beta=0.70
     Davidson diagonalization with overlap
     ethr =  1.40E-13,  avg # of iterations =  2.0

     total cpu time spent up to now is      192.5 secs

     total energy              =     -95.10062953 Ry
     Harris-Foulkes estimate   =     -95.10062953 Ry
     estimated scf accuracy    <          6.1E-12 Ry

     iteration # 14     ecut=    40.00 Ry     beta=0.70
     Davidson diagonalization with overlap
     ethr =  1.00E-13,  avg # of iterations =  2.0

     total cpu time spent up to now is      194.1 secs

     End of self-consistent calculation

     Number of k-points >= 100: set verbosity='high' to print the bands.

     the Fermi energy is     2.6421 ev

!    total energy              =     -95.10062953 Ry
     Harris-Foulkes estimate   =     -95.10062953 Ry
     estimated scf accuracy    <          6.7E-14 Ry

     The total energy is the sum of the following terms:

     one-electron contribution =     -83.16680686 Ry
     hartree contribution      =      42.34094325 Ry
     xc contribution           =     -14.29980158 Ry
     ewald contribution        =     -39.97492518 Ry
     smearing contrib. (-TS)   =      -0.00003916 Ry

     convergence has been achieved in  14 iterations

     Forces acting on atoms (cartesian axes, Ry/au):

     atom    1 type  1   force =     0.00000000    0.00000000    0.00000000

     Total force =     0.000000     Total SCF correction =     0.000000


     Computing stress (Cartesian axis) and pressure

          total   stress  (Ry/bohr**3)                   (kbar)     P=   25.04
   0.00017020   0.00000000   0.00000000         25.04      0.00      0.00
   0.00000000   0.00017020  -0.00000000          0.00     25.04     -0.00
   0.00000000  -0.00000000   0.00017020          0.00     -0.00     25.04


     bfgs converged in   7 scf cycles and   6 bfgs steps
     (criteria: energy <  1.0E-04 Ry, force <  1.0E-03Ry/Bohr, cell <  5.0E-02kbar)

     End of BFGS Geometry Optimization

     Final enthalpy =     -95.0665633576 Ry
Begin final coordinates
     new unit-cell volume =    200.45224 a.u.^3 (    29.70396 Ang^3 )
     density =      1.28521 g/cm^3

CELL_PARAMETERS (alat=  8.00000000)
  -0.580635590   0.000000000   0.580635590
  -0.000000000   0.580635590   0.580635590
  -0.580635590   0.580635590   0.000000000

ATOMIC_POSITIONS (crystal)
Na       0.000000000   0.000000000   0.000000000
End final coordinates



     A final scf calculation at the relaxed structure.
     The G-vectors are recalculated for the final unit cell
     Results may differ from those at the preceding step.

     Parallelization info
     --------------------
     sticks:   dense  smooth     PW     G-vecs:    dense   smooth      PW
     Min          59      29     10                 1221      427      84
     Max          60      30     11                 1225      430      86
     Sum         955     475    163                19579     6855    1363



     bravais-lattice index     =            2
     lattice parameter (alat)  =       8.0000  a.u.
     unit-cell volume          =     200.4522 (a.u.)^3
     number of atoms/cell      =            1
     number of atomic types    =            1
     number of electrons       =         9.00
     number of Kohn-Sham states=            9
     kinetic-energy cutoff     =      40.0000  Ry
     charge density cutoff     =     320.0000  Ry
     convergence threshold     =      1.0E-12
     mixing beta               =       0.7000
     number of iterations used =            8  plain     mixing
     Exchange-correlation      = SLA  PW   PBE  PBE ( 1  4  3  4 0 0)

     celldm(1)=   8.000000  celldm(2)=   0.000000  celldm(3)=   0.000000
     celldm(4)=   0.000000  celldm(5)=   0.000000  celldm(6)=   0.000000

     crystal axes: (cart. coord. in units of alat)
               a(1) = (  -0.580636   0.000000   0.580636 )  
               a(2) = (  -0.000000   0.580636   0.580636 )  
               a(3) = (  -0.580636   0.580636   0.000000 )  

     reciprocal axes: (cart. coord. in units 2 pi/alat)
               b(1) = ( -0.861125 -0.861125  0.861125 )  
               b(2) = (  0.861125  0.861125  0.861125 )  
               b(3) = ( -0.861125  0.861125 -0.861125 )  


     PseudoPot. # 1 for Na read from file:
     /home/s1333534/quantum_espresso/qe-6.1/pseudo/Na_pbe_v1.uspp.F.UPF
     MD5 check sum: 76a99c7e9422403d3e93cbc85ab7bccb
     Pseudo is Ultrasoft, Zval =  9.0
     Generated by new atomic code, or converted to UPF format
     Using radial grid of  819 points,  5 beta functions with: 
                l(1) =   0
                l(2) =   0
                l(3) =   1
                l(4) =   1
                l(5) =   2
     Q(r) pseudized with  8 coefficients,  rinner =    1.250   1.250   1.250
                                                       1.250   1.250

     atomic species   valence    mass     pseudopotential
        Na             9.00    22.99000     Na( 1.00)

     48 Sym. Ops., with inversion, found



   Cartesian axes

     site n.     atom                  positions (alat units)
         1           Na  tau(   1) = (  -0.0000000   0.0000000   0.0000000  )

     number of k points=   770  Marzari-Vanderbilt smearing, width (Ry)=  0.0200

     Number of k-points >= 100: set verbosity='high' to print them.

     Dense  grid:    19579 G-vectors     FFT dimensions: (  40,  40,  40)

     Smooth grid:     6855 G-vectors     FFT dimensions: (  27,  27,  27)

     Estimated max dynamical RAM per process >       2.34MB

     Estimated total allocated dynamical RAM >     149.52MB

     Initial potential from superposition of free atoms

     starting charge    8.99371, renormalised to    9.00000
     Starting wfc are    5 randomized atomic wfcs +    4 random wfc

     Writing output data file na.fcc.save

     total cpu time spent up to now is      198.3 secs

     per-process dynamical memory:    14.8 Mb

     Self-consistent Calculation

     iteration #  1     ecut=    40.00 Ry     beta=0.70
     Davidson diagonalization with overlap
     c_bands:  1 eigenvalues not converged
     ethr =  1.00E-06,  avg # of iterations = 10.8

     total cpu time spent up to now is      205.0 secs

     total energy              =     -95.10279054 Ry
     Harris-Foulkes estimate   =     -95.10312195 Ry
     estimated scf accuracy    <       0.00104527 Ry

     iteration #  2     ecut=    40.00 Ry     beta=0.70
     Davidson diagonalization with overlap
     ethr =  1.16E-05,  avg # of iterations =  2.0

     total cpu time spent up to now is      207.0 secs

     total energy              =     -95.10292302 Ry
     Harris-Foulkes estimate   =     -95.10295336 Ry
     estimated scf accuracy    <       0.00011901 Ry

     iteration #  3     ecut=    40.00 Ry     beta=0.70
     Davidson diagonalization with overlap
     ethr =  1.32E-06,  avg # of iterations =  2.0

     total cpu time spent up to now is      209.1 secs

     total energy              =     -95.10293654 Ry
     Harris-Foulkes estimate   =     -95.10293789 Ry
     estimated scf accuracy    <       0.00000722 Ry

     iteration #  4     ecut=    40.00 Ry     beta=0.70
     Davidson diagonalization with overlap
     ethr =  8.02E-08,  avg # of iterations =  1.0

     total cpu time spent up to now is      210.9 secs

     total energy              =     -95.10293719 Ry
     Harris-Foulkes estimate   =     -95.10293713 Ry
     estimated scf accuracy    <          8.2E-09 Ry

     iteration #  5     ecut=    40.00 Ry     beta=0.70
     Davidson diagonalization with overlap
     ethr =  9.10E-11,  avg # of iterations =  3.0

     total cpu time spent up to now is      213.5 secs

     total energy              =     -95.10293722 Ry
     Harris-Foulkes estimate   =     -95.10293722 Ry
     estimated scf accuracy    <          1.4E-09 Ry

     iteration #  6     ecut=    40.00 Ry     beta=0.70
     Davidson diagonalization with overlap
     ethr =  1.57E-11,  avg # of iterations =  1.6

     total cpu time spent up to now is      215.4 secs

     total energy              =     -95.10293723 Ry
     Harris-Foulkes estimate   =     -95.10293722 Ry
     estimated scf accuracy    <          2.8E-11 Ry

     iteration #  7     ecut=    40.00 Ry     beta=0.70
     Davidson diagonalization with overlap
     ethr =  3.15E-13,  avg # of iterations =  2.0

     total cpu time spent up to now is      217.6 secs

     total energy              =     -95.10293723 Ry
     Harris-Foulkes estimate   =     -95.10293723 Ry
     estimated scf accuracy    <          4.1E-12 Ry

     iteration #  8     ecut=    40.00 Ry     beta=0.70
     Davidson diagonalization with overlap
     ethr =  1.00E-13,  avg # of iterations =  1.0

     total cpu time spent up to now is      219.4 secs

     End of self-consistent calculation

     Number of k-points >= 100: set verbosity='high' to print the bands.

     the Fermi energy is     2.6442 ev

!    total energy              =     -95.10293723 Ry
     Harris-Foulkes estimate   =     -95.10293723 Ry
     estimated scf accuracy    <          1.2E-14 Ry

     The total energy is the sum of the following terms:

     one-electron contribution =     -83.16538202 Ry
     hartree contribution      =      42.33649759 Ry
     xc contribution           =     -14.29908846 Ry
     ewald contribution        =     -39.97492517 Ry
     smearing contrib. (-TS)   =      -0.00003917 Ry

     convergence has been achieved in   8 iterations

     Forces acting on atoms (cartesian axes, Ry/au):

     atom    1 type  1   force =     0.00000000    0.00000000    0.00000000

     Total force =     0.000000     Total SCF correction =     0.000000


     Computing stress (Cartesian axis) and pressure

          total   stress  (Ry/bohr**3)                   (kbar)     P=   22.31
   0.00015164   0.00000000   0.00000000         22.31      0.00      0.00
   0.00000000   0.00015164  -0.00000000          0.00     22.31     -0.00
   0.00000000  -0.00000000   0.00015164          0.00     -0.00     22.31


     Writing output data file na.fcc.save

     init_run     :      1.45s CPU      1.55s WALL (       2 calls)
     electrons    :    174.32s CPU    193.14s WALL (       8 calls)
     update_pot   :      0.64s CPU      0.67s WALL (       6 calls)
     forces       :      0.97s CPU      1.01s WALL (       8 calls)
     stress       :      2.57s CPU      2.64s WALL (       8 calls)

     Called by init_run:
     wfcinit      :      0.91s CPU      0.98s WALL (       2 calls)
     potinit      :      0.09s CPU      0.09s WALL (       2 calls)

     Called by electrons:
     c_bands      :    149.49s CPU    166.24s WALL (     114 calls)
     sum_band     :     22.78s CPU     24.75s WALL (     114 calls)
     v_of_rho     :      0.97s CPU      1.01s WALL (     121 calls)
     newd         :      0.70s CPU      0.71s WALL (     121 calls)
     mix_rho      :      0.16s CPU      0.17s WALL (     114 calls)

     Called by c_bands:
     init_us_2    :      2.15s CPU      2.35s WALL (   47478 calls)
     cegterg      :    135.18s CPU    151.22s WALL (   22002 calls)

     Called by sum_band:
     sum_band:bec :      0.23s CPU      0.25s WALL (   22002 calls)
     addusdens    :      0.72s CPU      0.74s WALL (     114 calls)

     Called by *egterg:
     h_psi        :     91.93s CPU    100.68s WALL (   66140 calls)
     s_psi        :      1.05s CPU      1.17s WALL (   66140 calls)
     g_psi        :      0.25s CPU      0.32s WALL (   43752 calls)
     cdiaghg      :     23.30s CPU     26.49s WALL (   64403 calls)

     Called by h_psi:
     h_psi:pot    :     91.48s CPU    100.16s WALL (   66140 calls)
     h_psi:calbec :      4.90s CPU      5.29s WALL (   66140 calls)
     vloc_psi     :     84.85s CPU     92.99s WALL (   66140 calls)
     add_vuspsi   :      1.12s CPU      1.22s WALL (   66140 calls)

     General routines
     calbec       :      6.66s CPU      7.21s WALL (   95862 calls)
     fft          :      0.93s CPU      0.97s WALL (    1978 calls)
     ffts         :      0.04s CPU      0.04s WALL (     235 calls)
     fftw         :     90.56s CPU     99.15s WALL ( 1167072 calls)
     interpolate  :      0.13s CPU      0.14s WALL (     235 calls)
     davcio       :      0.00s CPU      0.04s WALL (     386 calls)

     Parallel routines
     fft_scatter  :     43.20s CPU     47.34s WALL ( 1169285 calls)

     PWSCF        :  3m22.79s CPU     3m42.79s WALL


   This run was terminated on:  22:53: 8  28Jan2018            

=------------------------------------------------------------------------------=
   JOB DONE.
=------------------------------------------------------------------------------=
