
     Program PWSCF v.6.1 (svn rev. 13369) starts on 28Jan2018 at 22:44:33 

     This program is part of the open-source Quantum ESPRESSO suite
     for quantum simulation of materials; please cite
         "P. Giannozzi et al., J. Phys.:Condens. Matter 21 395502 (2009);
          URL http://www.quantum-espresso.org", 
     in publications or presentations arising from this work. More details at
     http://www.quantum-espresso.org/quote

     Parallel version (MPI), running on    64 processors
     K-points division:     npool     =       4
     R & G space division:  proc/nbgrp/npool/nimage =      16
     Waiting for input...
     Reading input from standard input

     Current dimensions of program PWSCF are:
     Max number of different atomic species (ntypx) = 10
     Max number of k-points (npk) =  80000
     Max angular momentum in pseudopotentials (lmaxx) =  3

     Subspace diagonalization in iterative solution of the eigenvalue problem:
     a serial algorithm will be used


     Parallelization info
     --------------------
     sticks:   dense  smooth     PW     G-vecs:    dense   smooth      PW
     Min          43      22      7                  771      273      57
     Max          44      23      8                  772      274      61
     Sum         703     361    121                12339     4381     941



     bravais-lattice index     =            2
     lattice parameter (alat)  =       8.0000  a.u.
     unit-cell volume          =     128.0000 (a.u.)^3
     number of atoms/cell      =            1
     number of atomic types    =            1
     number of electrons       =         9.00
     number of Kohn-Sham states=            9
     kinetic-energy cutoff     =      40.0000  Ry
     charge density cutoff     =     320.0000  Ry
     convergence threshold     =      1.0E-10
     mixing beta               =       0.7000
     number of iterations used =            8  plain     mixing
     Exchange-correlation      = SLA  PW   PBE  PBE ( 1  4  3  4 0 0)
     nstep                     =           50


     celldm(1)=   8.000000  celldm(2)=   0.000000  celldm(3)=   0.000000
     celldm(4)=   0.000000  celldm(5)=   0.000000  celldm(6)=   0.000000

     crystal axes: (cart. coord. in units of alat)
               a(1) = (  -0.500000   0.000000   0.500000 )  
               a(2) = (   0.000000   0.500000   0.500000 )  
               a(3) = (  -0.500000   0.500000   0.000000 )  

     reciprocal axes: (cart. coord. in units 2 pi/alat)
               b(1) = ( -1.000000 -1.000000  1.000000 )  
               b(2) = (  1.000000  1.000000  1.000000 )  
               b(3) = ( -1.000000  1.000000 -1.000000 )  


     PseudoPot. # 1 for Na read from file:
     /home/s1333534/quantum_espresso/qe-6.1/pseudo/Na_pbe_v1.uspp.F.UPF
     MD5 check sum: 76a99c7e9422403d3e93cbc85ab7bccb
     Pseudo is Ultrasoft, Zval =  9.0
     Generated by new atomic code, or converted to UPF format
     Using radial grid of  819 points,  5 beta functions with: 
                l(1) =   0
                l(2) =   0
                l(3) =   1
                l(4) =   1
                l(5) =   2
     Q(r) pseudized with  8 coefficients,  rinner =    1.250   1.250   1.250
                                                       1.250   1.250

     atomic species   valence    mass     pseudopotential
        Na             9.00    22.99000     Na( 1.00)

     48 Sym. Ops., with inversion, found



   Cartesian axes

     site n.     atom                  positions (alat units)
         1           Na  tau(   1) = (   0.0000000   0.0000000   0.0000000  )

     number of k points=   770  Marzari-Vanderbilt smearing, width (Ry)=  0.0200

     Number of k-points >= 100: set verbosity='high' to print them.

     Dense  grid:    12339 G-vectors     FFT dimensions: (  36,  36,  36)

     Smooth grid:     4381 G-vectors     FFT dimensions: (  24,  24,  24)

     Estimated max dynamical RAM per process >       1.56MB

     Estimated total allocated dynamical RAM >     100.07MB

     Initial potential from superposition of free atoms

     starting charge    8.99371, renormalised to    9.00000
     Starting wfc are    5 randomized atomic wfcs +    4 random wfc

     total cpu time spent up to now is        0.9 secs

     per-process dynamical memory:     9.1 Mb

     Self-consistent Calculation

     iteration #  1     ecut=    40.00 Ry     beta=0.70
     Davidson diagonalization with overlap
     ethr =  1.00E-02,  avg # of iterations =  5.1

     Threshold (ethr) on eigenvalues was too large:
     Diagonalizing with lowered threshold

     Davidson diagonalization with overlap
     ethr =  2.47E-05,  avg # of iterations =  2.5

     total cpu time spent up to now is        5.8 secs

     total energy              =     -95.06263714 Ry
     Harris-Foulkes estimate   =     -95.06346382 Ry
     estimated scf accuracy    <       0.00221913 Ry

     iteration #  2     ecut=    40.00 Ry     beta=0.70
     Davidson diagonalization with overlap
     ethr =  2.47E-05,  avg # of iterations =  2.0

     total cpu time spent up to now is        7.3 secs

     total energy              =     -95.06293325 Ry
     Harris-Foulkes estimate   =     -95.06299962 Ry
     estimated scf accuracy    <       0.00025025 Ry

     iteration #  3     ecut=    40.00 Ry     beta=0.70
     Davidson diagonalization with overlap
     ethr =  2.78E-06,  avg # of iterations =  2.2

     total cpu time spent up to now is        9.0 secs

     total energy              =     -95.06296601 Ry
     Harris-Foulkes estimate   =     -95.06296754 Ry
     estimated scf accuracy    <       0.00001446 Ry

     iteration #  4     ecut=    40.00 Ry     beta=0.70
     Davidson diagonalization with overlap
     ethr =  1.61E-07,  avg # of iterations =  1.0

     total cpu time spent up to now is       10.2 secs

     total energy              =     -95.06296732 Ry
     Harris-Foulkes estimate   =     -95.06296725 Ry
     estimated scf accuracy    <       0.00000002 Ry

     iteration #  5     ecut=    40.00 Ry     beta=0.70
     Davidson diagonalization with overlap
     ethr =  2.20E-10,  avg # of iterations =  3.0

     total cpu time spent up to now is       12.2 secs

     total energy              =     -95.06296737 Ry
     Harris-Foulkes estimate   =     -95.06296737 Ry
     estimated scf accuracy    <          2.7E-09 Ry

     iteration #  6     ecut=    40.00 Ry     beta=0.70
     Davidson diagonalization with overlap
     ethr =  3.00E-11,  avg # of iterations =  1.6

     total cpu time spent up to now is       13.8 secs

     total energy              =     -95.06296737 Ry
     Harris-Foulkes estimate   =     -95.06296737 Ry
     estimated scf accuracy    <          1.1E-10 Ry

     iteration #  7     ecut=    40.00 Ry     beta=0.70
     Davidson diagonalization with overlap
     ethr =  1.24E-12,  avg # of iterations =  2.0

     total cpu time spent up to now is       15.4 secs

     End of self-consistent calculation

     Number of k-points >= 100: set verbosity='high' to print the bands.

     the Fermi energy is     5.7097 ev

!    total energy              =     -95.06296737 Ry
     Harris-Foulkes estimate   =     -95.06296737 Ry
     estimated scf accuracy    <          1.9E-12 Ry

     The total energy is the sum of the following terms:

     one-electron contribution =     -72.01875287 Ry
     hartree contribution      =      37.75488636 Ry
     xc contribution           =     -14.37734087 Ry
     ewald contribution        =     -46.42172850 Ry
     smearing contrib. (-TS)   =      -0.00003149 Ry

     convergence has been achieved in   7 iterations

     Forces acting on atoms (cartesian axes, Ry/au):

     atom    1 type  1   force =     0.00000000    0.00000000    0.00000000

     Total force =     0.000000     Total SCF correction =     0.000000


     Computing stress (Cartesian axis) and pressure

          total   stress  (Ry/bohr**3)                   (kbar)     P=  175.71
   0.00119447   0.00000000   0.00000000        175.71      0.00      0.00
   0.00000000   0.00119447   0.00000000          0.00    175.71      0.00
   0.00000000   0.00000000   0.00119447          0.00      0.00    175.71


     BFGS Geometry Optimization

     number of scf cycles    =   1
     number of bfgs steps    =   0

     enthalpy new            =     -95.0716686350 Ry

     new trust radius        =       0.0714148796 bohr
     new conv_thr            =            1.0E-10 Ry

     new unit-cell volume =    140.50604 a.u.^3 (    20.82085 Ang^3 )
     density =      1.83354 g/cm^3

CELL_PARAMETERS (alat=  8.00000000)
  -0.515780608  -0.000000000   0.515780608
   0.000000000   0.515780608   0.515780608
  -0.515780608   0.515780608  -0.000000000

ATOMIC_POSITIONS (crystal)
Na       0.000000000   0.000000000   0.000000000



     Writing output data file na.fcc.save
     NEW-OLD atomic charge density approx. for the potential
     extrapolated charge    9.80050, renormalised to    9.00000

     total cpu time spent up to now is       18.9 secs

     per-process dynamical memory:    14.0 Mb

     Self-consistent Calculation

     iteration #  1     ecut=    40.00 Ry     beta=0.70
     Davidson diagonalization with overlap
     ethr =  1.00E-06,  avg # of iterations =  4.6

     total cpu time spent up to now is       21.9 secs

     total energy              =     -94.50947619 Ry
     Harris-Foulkes estimate   =     -89.82278463 Ry
     estimated scf accuracy    <       0.31879673 Ry

     iteration #  2     ecut=    40.00 Ry     beta=0.70
     Davidson diagonalization with overlap
     ethr =  3.54E-03,  avg # of iterations =  2.9

     total cpu time spent up to now is       23.9 secs

     total energy              =     -95.10306851 Ry
     Harris-Foulkes estimate   =     -95.33401393 Ry
     estimated scf accuracy    <       0.52231161 Ry

     iteration #  3     ecut=    40.00 Ry     beta=0.70
     Davidson diagonalization with overlap
     ethr =  3.54E-03,  avg # of iterations =  1.0

     total cpu time spent up to now is       25.2 secs

     total energy              =     -95.08807077 Ry
     Harris-Foulkes estimate   =     -95.13155042 Ry
     estimated scf accuracy    <       0.11998547 Ry

     iteration #  4     ecut=    40.00 Ry     beta=0.70
     Davidson diagonalization with overlap
     ethr =  1.33E-03,  avg # of iterations =  1.0

     total cpu time spent up to now is       26.5 secs

     total energy              =     -95.08710715 Ry
     Harris-Foulkes estimate   =     -95.09348054 Ry
     estimated scf accuracy    <       0.03771025 Ry

     iteration #  5     ecut=    40.00 Ry     beta=0.70
     Davidson diagonalization with overlap
     ethr =  4.19E-04,  avg # of iterations =  1.0

     total cpu time spent up to now is       27.7 secs

     total energy              =     -95.08105755 Ry
     Harris-Foulkes estimate   =     -95.08758644 Ry
     estimated scf accuracy    <       0.02535197 Ry

     iteration #  6     ecut=    40.00 Ry     beta=0.70
     Davidson diagonalization with overlap
     ethr =  2.82E-04,  avg # of iterations =  1.0

     total cpu time spent up to now is       29.0 secs

     total energy              =     -95.07336833 Ry
     Harris-Foulkes estimate   =     -95.08151426 Ry
     estimated scf accuracy    <       0.01271570 Ry

     iteration #  7     ecut=    40.00 Ry     beta=0.70
     Davidson diagonalization with overlap
     ethr =  1.41E-04,  avg # of iterations =  2.0

     total cpu time spent up to now is       30.6 secs

     total energy              =     -95.07558449 Ry
     Harris-Foulkes estimate   =     -95.07561039 Ry
     estimated scf accuracy    <       0.00014224 Ry

     iteration #  8     ecut=    40.00 Ry     beta=0.70
     Davidson diagonalization with overlap
     ethr =  1.58E-06,  avg # of iterations =  2.4

     total cpu time spent up to now is       32.5 secs

     total energy              =     -95.07552251 Ry
     Harris-Foulkes estimate   =     -95.07558925 Ry
     estimated scf accuracy    <       0.00008467 Ry

     iteration #  9     ecut=    40.00 Ry     beta=0.70
     Davidson diagonalization with overlap
     ethr =  9.41E-07,  avg # of iterations =  2.0

     total cpu time spent up to now is       34.1 secs

     total energy              =     -95.07556951 Ry
     Harris-Foulkes estimate   =     -95.07556786 Ry
     estimated scf accuracy    <       0.00004614 Ry

     iteration # 10     ecut=    40.00 Ry     beta=0.70
     Davidson diagonalization with overlap
     ethr =  5.13E-07,  avg # of iterations =  1.0

     total cpu time spent up to now is       35.4 secs

     total energy              =     -95.07554217 Ry
     Harris-Foulkes estimate   =     -95.07556958 Ry
     estimated scf accuracy    <       0.00004680 Ry

     iteration # 11     ecut=    40.00 Ry     beta=0.70
     Davidson diagonalization with overlap
     ethr =  5.13E-07,  avg # of iterations =  2.0

     total cpu time spent up to now is       37.0 secs

     total energy              =     -95.07555070 Ry
     Harris-Foulkes estimate   =     -95.07555065 Ry
     estimated scf accuracy    <          6.3E-09 Ry

     iteration # 12     ecut=    40.00 Ry     beta=0.70
     Davidson diagonalization with overlap
     ethr =  7.00E-11,  avg # of iterations =  3.0

     total cpu time spent up to now is       39.1 secs

     total energy              =     -95.07555058 Ry
     Harris-Foulkes estimate   =     -95.07555076 Ry
     estimated scf accuracy    <       0.00000032 Ry

     iteration # 13     ecut=    40.00 Ry     beta=0.70
     Davidson diagonalization with overlap
     ethr =  7.00E-11,  avg # of iterations =  3.0

     total cpu time spent up to now is       41.2 secs

     total energy              =     -95.07555066 Ry
     Harris-Foulkes estimate   =     -95.07555067 Ry
     estimated scf accuracy    <       0.00000003 Ry

     iteration # 14     ecut=    40.00 Ry     beta=0.70
     Davidson diagonalization with overlap
     ethr =  7.00E-11,  avg # of iterations =  1.0

     total cpu time spent up to now is       42.5 secs

     total energy              =     -95.07555065 Ry
     Harris-Foulkes estimate   =     -95.07555067 Ry
     estimated scf accuracy    <       0.00000002 Ry

     iteration # 15     ecut=    40.00 Ry     beta=0.70
     Davidson diagonalization with overlap
     ethr =  7.00E-11,  avg # of iterations =  2.0

     total cpu time spent up to now is       44.4 secs

     End of self-consistent calculation

     Number of k-points >= 100: set verbosity='high' to print the bands.

     the Fermi energy is     4.9417 ev

!    total energy              =     -95.07555066 Ry
     Harris-Foulkes estimate   =     -95.07555066 Ry
     estimated scf accuracy    <          4.5E-12 Ry

     The total energy is the sum of the following terms:

     one-electron contribution =     -74.45754794 Ry
     hartree contribution      =      38.74227450 Ry
     xc contribution           =     -14.35881659 Ry
     ewald contribution        =     -45.00142867 Ry
     smearing contrib. (-TS)   =      -0.00003195 Ry

     convergence has been achieved in  15 iterations

     Forces acting on atoms (cartesian axes, Ry/au):

     atom    1 type  1   force =     0.00000000    0.00000000    0.00000000

     Total force =     0.000000     Total SCF correction =     0.000000


     Computing stress (Cartesian axis) and pressure

          total   stress  (Ry/bohr**3)                   (kbar)     P=  123.56
   0.00083995  -0.00000000   0.00000000        123.56     -0.00      0.00
  -0.00000000   0.00083995   0.00000000         -0.00    123.56      0.00
   0.00000000   0.00000000   0.00083995          0.00      0.00    123.56


     number of scf cycles    =   2
     number of bfgs steps    =   1

     enthalpy old            =     -95.0716686350 Ry
     enthalpy new            =     -95.0851020650 Ry

     CASE: enthalpy_new < enthalpy_old

     new trust radius        =       0.0797864048 bohr
     new conv_thr            =            1.0E-12 Ry

     new unit-cell volume =    155.17509 a.u.^3 (    22.99457 Ang^3 )
     density =      1.66021 g/cm^3

CELL_PARAMETERS (alat=  8.00000000)
  -0.533139277  -0.000000000   0.533139277
   0.000000000   0.533139277   0.533139277
  -0.533139277   0.533139277  -0.000000000

ATOMIC_POSITIONS (crystal)
Na       0.000000000   0.000000000   0.000000000



     Writing output data file na.fcc.save
     NEW-OLD atomic charge density approx. for the potential
     extrapolated charge    9.85020, renormalised to    9.00000

     total cpu time spent up to now is       47.9 secs

     per-process dynamical memory:    14.0 Mb

     Self-consistent Calculation

     iteration #  1     ecut=    40.00 Ry     beta=0.70
     Davidson diagonalization with overlap
     ethr =  1.00E-06,  avg # of iterations =  4.7

     total cpu time spent up to now is       50.9 secs

     total energy              =     -94.41409620 Ry
     Harris-Foulkes estimate   =     -89.30750210 Ry
     estimated scf accuracy    <       0.37887542 Ry

     iteration #  2     ecut=    40.00 Ry     beta=0.70
     Davidson diagonalization with overlap
     ethr =  4.21E-03,  avg # of iterations =  3.0

     total cpu time spent up to now is       52.9 secs

     total energy              =     -95.11981201 Ry
     Harris-Foulkes estimate   =     -95.39316948 Ry
     estimated scf accuracy    <       0.61699323 Ry

     iteration #  3     ecut=    40.00 Ry     beta=0.70
     Davidson diagonalization with overlap
     ethr =  4.21E-03,  avg # of iterations =  1.0

     total cpu time spent up to now is       54.3 secs

     total energy              =     -95.10039129 Ry
     Harris-Foulkes estimate   =     -95.15298470 Ry
     estimated scf accuracy    <       0.14325199 Ry

     iteration #  4     ecut=    40.00 Ry     beta=0.70
     Davidson diagonalization with overlap
     ethr =  1.59E-03,  avg # of iterations =  1.0

     total cpu time spent up to now is       55.5 secs

     total energy              =     -95.09840452 Ry
     Harris-Foulkes estimate   =     -95.10691322 Ry
     estimated scf accuracy    <       0.04448922 Ry

     iteration #  5     ecut=    40.00 Ry     beta=0.70
     Davidson diagonalization with overlap
     ethr =  4.94E-04,  avg # of iterations =  1.0

     total cpu time spent up to now is       56.8 secs

     total energy              =     -95.09000365 Ry
     Harris-Foulkes estimate   =     -95.09905224 Ry
     estimated scf accuracy    <       0.02784926 Ry

     iteration #  6     ecut=    40.00 Ry     beta=0.70
     Davidson diagonalization with overlap
     ethr =  3.09E-04,  avg # of iterations =  1.0

     total cpu time spent up to now is       58.0 secs

     total energy              =     -95.08342560 Ry
     Harris-Foulkes estimate   =     -95.09080265 Ry
     estimated scf accuracy    <       0.01093557 Ry

     iteration #  7     ecut=    40.00 Ry     beta=0.70
     Davidson diagonalization with overlap
     ethr =  1.22E-04,  avg # of iterations =  2.0

     total cpu time spent up to now is       59.6 secs

     total energy              =     -95.08569242 Ry
     Harris-Foulkes estimate   =     -95.08569308 Ry
     estimated scf accuracy    <       0.00001920 Ry

     iteration #  8     ecut=    40.00 Ry     beta=0.70
     Davidson diagonalization with overlap
     ethr =  2.13E-07,  avg # of iterations =  2.8

     total cpu time spent up to now is       61.8 secs

     total energy              =     -95.08568872 Ry
     Harris-Foulkes estimate   =     -95.08570293 Ry
     estimated scf accuracy    <       0.00004856 Ry

     iteration #  9     ecut=    40.00 Ry     beta=0.70
     Davidson diagonalization with overlap
     ethr =  2.13E-07,  avg # of iterations =  1.0

     total cpu time spent up to now is       63.0 secs

     total energy              =     -95.08569155 Ry
     Harris-Foulkes estimate   =     -95.08569041 Ry
     estimated scf accuracy    <       0.00000297 Ry

     iteration # 10     ecut=    40.00 Ry     beta=0.70
     Davidson diagonalization with overlap
     ethr =  3.30E-08,  avg # of iterations =  1.1

     total cpu time spent up to now is       64.3 secs

     total energy              =     -95.08568798 Ry
     Harris-Foulkes estimate   =     -95.08569168 Ry
     estimated scf accuracy    <       0.00000461 Ry

     iteration # 11     ecut=    40.00 Ry     beta=0.70
     Davidson diagonalization with overlap
     ethr =  3.30E-08,  avg # of iterations =  2.0

     total cpu time spent up to now is       66.0 secs

     total energy              =     -95.08568967 Ry
     Harris-Foulkes estimate   =     -95.08568974 Ry
     estimated scf accuracy    <       0.00000061 Ry

     iteration # 12     ecut=    40.00 Ry     beta=0.70
     Davidson diagonalization with overlap
     ethr =  6.76E-09,  avg # of iterations =  1.0

     total cpu time spent up to now is       67.3 secs

     total energy              =     -95.08568941 Ry
     Harris-Foulkes estimate   =     -95.08568968 Ry
     estimated scf accuracy    <       0.00000049 Ry

     iteration # 13     ecut=    40.00 Ry     beta=0.70
     Davidson diagonalization with overlap
     ethr =  5.45E-09,  avg # of iterations =  2.0

     total cpu time spent up to now is       68.9 secs

     total energy              =     -95.08568948 Ry
     Harris-Foulkes estimate   =     -95.08568948 Ry
     estimated scf accuracy    <       0.00000002 Ry

     iteration # 14     ecut=    40.00 Ry     beta=0.70
     Davidson diagonalization with overlap
     ethr =  1.79E-10,  avg # of iterations =  1.0

     total cpu time spent up to now is       70.1 secs

     total energy              =     -95.08568946 Ry
     Harris-Foulkes estimate   =     -95.08568948 Ry
     estimated scf accuracy    <       0.00000003 Ry

     iteration # 15     ecut=    40.00 Ry     beta=0.70
     Davidson diagonalization with overlap
     ethr =  1.79E-10,  avg # of iterations =  2.0

     total cpu time spent up to now is       71.8 secs

     total energy              =     -95.08568947 Ry
     Harris-Foulkes estimate   =     -95.08568947 Ry
     estimated scf accuracy    <          5.5E-11 Ry

     iteration # 16     ecut=    40.00 Ry     beta=0.70
     Davidson diagonalization with overlap
     ethr =  6.16E-13,  avg # of iterations =  1.0

     total cpu time spent up to now is       73.2 secs

     total energy              =     -95.08568947 Ry
     Harris-Foulkes estimate   =     -95.08568947 Ry
     estimated scf accuracy    <          4.2E-11 Ry

     iteration # 17     ecut=    40.00 Ry     beta=0.70
     Davidson diagonalization with overlap
     ethr =  4.67E-13,  avg # of iterations =  1.0

     total cpu time spent up to now is       74.5 secs

     total energy              =     -95.08568947 Ry
     Harris-Foulkes estimate   =     -95.08568947 Ry
     estimated scf accuracy    <          8.9E-12 Ry

     iteration # 18     ecut=    40.00 Ry     beta=0.70
     Davidson diagonalization with overlap
     ethr =  1.00E-13,  avg # of iterations =  1.6

     total cpu time spent up to now is       75.9 secs

     End of self-consistent calculation

     Number of k-points >= 100: set verbosity='high' to print the bands.

     the Fermi energy is     4.2059 ev

!    total energy              =     -95.08568947 Ry
     Harris-Foulkes estimate   =     -95.08568947 Ry
     estimated scf accuracy    <          2.3E-14 Ry

     The total energy is the sum of the following terms:

     one-electron contribution =     -76.98363781 Ry
     hartree contribution      =      39.77479881 Ry
     xc contribution           =     -14.34060594 Ry
     ewald contribution        =     -43.53621135 Ry
     smearing contrib. (-TS)   =      -0.00003317 Ry

     convergence has been achieved in  18 iterations

     Forces acting on atoms (cartesian axes, Ry/au):

     atom    1 type  1   force =     0.00000000    0.00000000    0.00000000

     Total force =     0.000000     Total SCF correction =     0.000000


     Computing stress (Cartesian axis) and pressure

          total   stress  (Ry/bohr**3)                   (kbar)     P=   82.77
   0.00056265   0.00000000   0.00000000         82.77      0.00      0.00
   0.00000000   0.00056265  -0.00000000          0.00     82.77     -0.00
   0.00000000  -0.00000000   0.00056265          0.00     -0.00     82.77


     number of scf cycles    =   3
     number of bfgs steps    =   2

     enthalpy old            =     -95.0851020650 Ry
     enthalpy new            =     -95.0962380606 Ry

     CASE: enthalpy_new < enthalpy_old

     new trust radius        =       0.1216768589 bohr
     new conv_thr            =            1.0E-12 Ry

     new unit-cell volume =    179.03936 a.u.^3 (    26.53090 Ang^3 )
     density =      1.43892 g/cm^3

CELL_PARAMETERS (alat=  8.00000000)
  -0.559177281  -0.000000000   0.559177281
   0.000000000   0.559177281   0.559177281
  -0.559177281   0.559177281  -0.000000000

ATOMIC_POSITIONS (crystal)
Na       0.000000000   0.000000000   0.000000000



     Writing output data file na.fcc.save
     NEW-OLD atomic charge density approx. for the potential
     extrapolated charge   10.19878, renormalised to    9.00000

     total cpu time spent up to now is       79.4 secs

     per-process dynamical memory:    14.0 Mb

     Self-consistent Calculation

     iteration #  1     ecut=    40.00 Ry     beta=0.70
     Davidson diagonalization with overlap
     ethr =  1.00E-06,  avg # of iterations =  5.1

     total cpu time spent up to now is       82.7 secs

     total energy              =     -93.34764563 Ry
     Harris-Foulkes estimate   =     -86.59103040 Ry
     estimated scf accuracy    <       1.01029956 Ry

     iteration #  2     ecut=    40.00 Ry     beta=0.70
     Davidson diagonalization with overlap
     ethr =  1.00E-02,  avg # of iterations =  3.0

     total cpu time spent up to now is       84.6 secs

     total energy              =     -95.20990037 Ry
     Harris-Foulkes estimate   =     -95.91225687 Ry
     estimated scf accuracy    <       1.55851829 Ry

     iteration #  3     ecut=    40.00 Ry     beta=0.70
     Davidson diagonalization with overlap
     ethr =  1.00E-02,  avg # of iterations =  1.0

     total cpu time spent up to now is       85.9 secs

     total energy              =     -95.13255794 Ry
     Harris-Foulkes estimate   =     -95.28597624 Ry
     estimated scf accuracy    <       0.38656291 Ry

     iteration #  4     ecut=    40.00 Ry     beta=0.70
     Davidson diagonalization with overlap
     ethr =  4.30E-03,  avg # of iterations =  1.0

     total cpu time spent up to now is       87.2 secs

     total energy              =     -95.12531192 Ry
     Harris-Foulkes estimate   =     -95.15065746 Ry
     estimated scf accuracy    <       0.11254602 Ry

     iteration #  5     ecut=    40.00 Ry     beta=0.70
     Davidson diagonalization with overlap
     ethr =  1.25E-03,  avg # of iterations =  1.0

     total cpu time spent up to now is       88.5 secs

     total energy              =     -95.10060468 Ry
     Harris-Foulkes estimate   =     -95.12723543 Ry
     estimated scf accuracy    <       0.06379294 Ry

     iteration #  6     ecut=    40.00 Ry     beta=0.70
     Davidson diagonalization with overlap
     ethr =  7.09E-04,  avg # of iterations =  1.0

     total cpu time spent up to now is       89.7 secs

     total energy              =     -95.09162859 Ry
     Harris-Foulkes estimate   =     -95.10364642 Ry
     estimated scf accuracy    <       0.01691641 Ry

     iteration #  7     ecut=    40.00 Ry     beta=0.70
     Davidson diagonalization with overlap
     ethr =  1.88E-04,  avg # of iterations =  2.1

     total cpu time spent up to now is       91.4 secs

     total energy              =     -95.09565985 Ry
     Harris-Foulkes estimate   =     -95.09567959 Ry
     estimated scf accuracy    <       0.00003308 Ry

     iteration #  8     ecut=    40.00 Ry     beta=0.70
     Davidson diagonalization with overlap
     ethr =  3.68E-07,  avg # of iterations =  3.5

     total cpu time spent up to now is       93.8 secs

     total energy              =     -95.09568140 Ry
     Harris-Foulkes estimate   =     -95.09566782 Ry
     estimated scf accuracy    <       0.00000224 Ry

     iteration #  9     ecut=    40.00 Ry     beta=0.70
     Davidson diagonalization with overlap
     ethr =  2.49E-08,  avg # of iterations =  3.0

     total cpu time spent up to now is       95.8 secs

     total energy              =     -95.09566855 Ry
     Harris-Foulkes estimate   =     -95.09569344 Ry
     estimated scf accuracy    <       0.00005387 Ry

     iteration # 10     ecut=    40.00 Ry     beta=0.70
     Davidson diagonalization with overlap
     ethr =  2.49E-08,  avg # of iterations =  2.4

     total cpu time spent up to now is       97.6 secs

     total energy              =     -95.09566648 Ry
     Harris-Foulkes estimate   =     -95.09567223 Ry
     estimated scf accuracy    <       0.00000944 Ry

     iteration # 11     ecut=    40.00 Ry     beta=0.70
     Davidson diagonalization with overlap
     ethr =  2.49E-08,  avg # of iterations =  2.0

     total cpu time spent up to now is       99.5 secs

     total energy              =     -95.09566778 Ry
     Harris-Foulkes estimate   =     -95.09566791 Ry
     estimated scf accuracy    <       0.00000025 Ry

     iteration # 12     ecut=    40.00 Ry     beta=0.70
     Davidson diagonalization with overlap
     ethr =  2.75E-09,  avg # of iterations =  1.7

     total cpu time spent up to now is      100.9 secs

     total energy              =     -95.09566780 Ry
     Harris-Foulkes estimate   =     -95.09566781 Ry
     estimated scf accuracy    <       0.00000002 Ry

     iteration # 13     ecut=    40.00 Ry     beta=0.70
     Davidson diagonalization with overlap
     ethr =  1.96E-10,  avg # of iterations =  2.0

     total cpu time spent up to now is      102.5 secs

     total energy              =     -95.09566780 Ry
     Harris-Foulkes estimate   =     -95.09566780 Ry
     estimated scf accuracy    <          3.1E-10 Ry

     iteration # 14     ecut=    40.00 Ry     beta=0.70
     Davidson diagonalization with overlap
     ethr =  3.46E-12,  avg # of iterations =  1.0

     total cpu time spent up to now is      104.0 secs

     total energy              =     -95.09566780 Ry
     Harris-Foulkes estimate   =     -95.09566780 Ry
     estimated scf accuracy    <          3.7E-10 Ry

     iteration # 15     ecut=    40.00 Ry     beta=0.70
     Davidson diagonalization with overlap
     ethr =  3.46E-12,  avg # of iterations =  2.0

     total cpu time spent up to now is      105.6 secs

     End of self-consistent calculation

     Number of k-points >= 100: set verbosity='high' to print the bands.

     the Fermi energy is     3.2782 ev

!    total energy              =     -95.09566780 Ry
     Harris-Foulkes estimate   =     -95.09566780 Ry
     estimated scf accuracy    <          1.6E-13 Ry

     The total energy is the sum of the following terms:

     one-electron contribution =     -80.49612692 Ry
     hartree contribution      =      41.22634263 Ry
     xc contribution           =     -14.31689304 Ry
     ewald contribution        =     -41.50895441 Ry
     smearing contrib. (-TS)   =      -0.00003606 Ry

     convergence has been achieved in  15 iterations

     Forces acting on atoms (cartesian axes, Ry/au):

     atom    1 type  1   force =     0.00000000    0.00000000    0.00000000

     Total force =     0.000000     Total SCF correction =     0.000000


     Computing stress (Cartesian axis) and pressure

          total   stress  (Ry/bohr**3)                   (kbar)     P=   44.50
   0.00030252   0.00000000  -0.00000000         44.50      0.00     -0.00
   0.00000000   0.00030252   0.00000000          0.00     44.50      0.00
  -0.00000000   0.00000000   0.00030252         -0.00      0.00     44.50


     number of scf cycles    =   4
     number of bfgs steps    =   3

     enthalpy old            =     -95.0962380606 Ry
     enthalpy new            =     -95.1078386508 Ry

     CASE: enthalpy_new < enthalpy_old

     new trust radius        =       0.1869190944 bohr
     new conv_thr            =            1.0E-12 Ry

     new unit-cell volume =    219.23700 a.u.^3 (    32.48757 Ang^3 )
     density =      1.17509 g/cm^3

CELL_PARAMETERS (alat=  8.00000000)
  -0.598234286  -0.000000000   0.598234286
   0.000000000   0.598234286   0.598234286
  -0.598234286   0.598234286  -0.000000000

ATOMIC_POSITIONS (crystal)
Na       0.000000000   0.000000000   0.000000000



     Writing output data file na.fcc.save
     NEW-OLD atomic charge density approx. for the potential
     extrapolated charge   10.64902, renormalised to    9.00000

     total cpu time spent up to now is      109.0 secs

     per-process dynamical memory:    14.0 Mb

     Self-consistent Calculation

     iteration #  1     ecut=    40.00 Ry     beta=0.70
     Davidson diagonalization with overlap
     ethr =  1.00E-06,  avg # of iterations =  5.7

     total cpu time spent up to now is      112.6 secs

     total energy              =     -89.46504579 Ry
     Harris-Foulkes estimate   =     -82.87853158 Ry
     estimated scf accuracy    <       3.50990104 Ry

     iteration #  2     ecut=    40.00 Ry     beta=0.70
     Davidson diagonalization with overlap
     ethr =  1.00E-02,  avg # of iterations =  3.0

     total cpu time spent up to now is      114.9 secs

     total energy              =     -95.59838443 Ry
     Harris-Foulkes estimate   =     -97.80618085 Ry
     estimated scf accuracy    <       4.68180275 Ry

     iteration #  3     ecut=    40.00 Ry     beta=0.70
     Davidson diagonalization with overlap
     ethr =  1.00E-02,  avg # of iterations =  2.0

     total cpu time spent up to now is      116.6 secs

     total energy              =     -95.21523812 Ry
     Harris-Foulkes estimate   =     -95.79163802 Ry
     estimated scf accuracy    <       1.26303889 Ry

     iteration #  4     ecut=    40.00 Ry     beta=0.70
     Davidson diagonalization with overlap
     ethr =  1.00E-02,  avg # of iterations =  1.0

     total cpu time spent up to now is      117.8 secs

     total energy              =     -95.17598934 Ry
     Harris-Foulkes estimate   =     -95.27442196 Ry
     estimated scf accuracy    <       0.33085236 Ry

     iteration #  5     ecut=    40.00 Ry     beta=0.70
     Davidson diagonalization with overlap
     ethr =  3.68E-03,  avg # of iterations =  1.0

     total cpu time spent up to now is      119.1 secs

     total energy              =     -95.12182141 Ry
     Harris-Foulkes estimate   =     -95.18333262 Ry
     estimated scf accuracy    <       0.15552179 Ry

     iteration #  6     ecut=    40.00 Ry     beta=0.70
     Davidson diagonalization with overlap
     ethr =  1.73E-03,  avg # of iterations =  1.1

     total cpu time spent up to now is      120.4 secs

     total energy              =     -95.09711623 Ry
     Harris-Foulkes estimate   =     -95.12785760 Ry
     estimated scf accuracy    <       0.04961740 Ry

     iteration #  7     ecut=    40.00 Ry     beta=0.70
     Davidson diagonalization with overlap
     ethr =  5.51E-04,  avg # of iterations =  2.3

     total cpu time spent up to now is      122.2 secs

     total energy              =     -95.10551949 Ry
     Harris-Foulkes estimate   =     -95.10395315 Ry
     estimated scf accuracy    <       0.00202322 Ry

     iteration #  8     ecut=    40.00 Ry     beta=0.70
     Davidson diagonalization with overlap
     ethr =  2.25E-05,  avg # of iterations =  3.1

     total cpu time spent up to now is      124.1 secs

     total energy              =     -95.10320773 Ry
     Harris-Foulkes estimate   =     -95.10571647 Ry
     estimated scf accuracy    <       0.00547711 Ry

     iteration #  9     ecut=    40.00 Ry     beta=0.70
     Davidson diagonalization with overlap
     ethr =  2.25E-05,  avg # of iterations =  2.0

     total cpu time spent up to now is      125.8 secs

     total energy              =     -95.10318983 Ry
     Harris-Foulkes estimate   =     -95.10354608 Ry
     estimated scf accuracy    <       0.00115635 Ry

     iteration # 10     ecut=    40.00 Ry     beta=0.70
     Davidson diagonalization with overlap
     ethr =  1.28E-05,  avg # of iterations =  1.0

     total cpu time spent up to now is      127.0 secs

     total energy              =     -95.10283556 Ry
     Harris-Foulkes estimate   =     -95.10321839 Ry
     estimated scf accuracy    <       0.00050405 Ry

     iteration # 11     ecut=    40.00 Ry     beta=0.70
     Davidson diagonalization with overlap
     ethr =  5.60E-06,  avg # of iterations =  2.1

     total cpu time spent up to now is      128.7 secs

     total energy              =     -95.10297190 Ry
     Harris-Foulkes estimate   =     -95.10297507 Ry
     estimated scf accuracy    <       0.00000865 Ry

     iteration # 12     ecut=    40.00 Ry     beta=0.70
     Davidson diagonalization with overlap
     ethr =  9.62E-08,  avg # of iterations =  1.2

     total cpu time spent up to now is      130.1 secs

     total energy              =     -95.10297099 Ry
     Harris-Foulkes estimate   =     -95.10297240 Ry
     estimated scf accuracy    <       0.00000292 Ry

     iteration # 13     ecut=    40.00 Ry     beta=0.70
     Davidson diagonalization with overlap
     ethr =  3.25E-08,  avg # of iterations =  1.1

     total cpu time spent up to now is      131.4 secs

     total energy              =     -95.10297110 Ry
     Harris-Foulkes estimate   =     -95.10297126 Ry
     estimated scf accuracy    <       0.00000037 Ry

     iteration # 14     ecut=    40.00 Ry     beta=0.70
     Davidson diagonalization with overlap
     ethr =  4.12E-09,  avg # of iterations =  1.9

     total cpu time spent up to now is      133.1 secs

     total energy              =     -95.10297115 Ry
     Harris-Foulkes estimate   =     -95.10297115 Ry
     estimated scf accuracy    <       0.00000002 Ry

     iteration # 15     ecut=    40.00 Ry     beta=0.70
     Davidson diagonalization with overlap
     ethr =  2.11E-10,  avg # of iterations =  1.6

     total cpu time spent up to now is      134.5 secs

     total energy              =     -95.10297114 Ry
     Harris-Foulkes estimate   =     -95.10297115 Ry
     estimated scf accuracy    <          6.6E-09 Ry

     iteration # 16     ecut=    40.00 Ry     beta=0.70
     Davidson diagonalization with overlap
     ethr =  7.28E-11,  avg # of iterations =  2.0

     total cpu time spent up to now is      136.1 secs

     total energy              =     -95.10297115 Ry
     Harris-Foulkes estimate   =     -95.10297115 Ry
     estimated scf accuracy    <          1.6E-09 Ry

     iteration # 17     ecut=    40.00 Ry     beta=0.70
     Davidson diagonalization with overlap
     ethr =  1.77E-11,  avg # of iterations =  2.0

     total cpu time spent up to now is      137.7 secs

     total energy              =     -95.10297115 Ry
     Harris-Foulkes estimate   =     -95.10297115 Ry
     estimated scf accuracy    <          3.8E-10 Ry

     iteration # 18     ecut=    40.00 Ry     beta=0.70
     Davidson diagonalization with overlap
     ethr =  4.21E-12,  avg # of iterations =  1.6

     total cpu time spent up to now is      139.2 secs

     total energy              =     -95.10297115 Ry
     Harris-Foulkes estimate   =     -95.10297115 Ry
     estimated scf accuracy    <          2.9E-11 Ry

     iteration # 19     ecut=    40.00 Ry     beta=0.70
     Davidson diagonalization with overlap
     ethr =  3.19E-13,  avg # of iterations =  1.3

     total cpu time spent up to now is      140.6 secs

     total energy              =     -95.10297115 Ry
     Harris-Foulkes estimate   =     -95.10297115 Ry
     estimated scf accuracy    <          1.1E-11 Ry

     iteration # 20     ecut=    40.00 Ry     beta=0.70
     Davidson diagonalization with overlap
     ethr =  1.20E-13,  avg # of iterations =  1.0

     total cpu time spent up to now is      141.9 secs

     End of self-consistent calculation

     Number of k-points >= 100: set verbosity='high' to print the bands.

     the Fermi energy is     2.1906 ev

!    total energy              =     -95.10297115 Ry
     Harris-Foulkes estimate   =     -95.10297115 Ry
     estimated scf accuracy    <          6.7E-13 Ry

     The total energy is the sum of the following terms:

     one-electron contribution =     -85.21986571 Ry
     hartree contribution      =      43.20263136 Ry
     xc contribution           =     -14.28674118 Ry
     ewald contribution        =     -38.79895355 Ry
     smearing contrib. (-TS)   =      -0.00004206 Ry

     convergence has been achieved in  20 iterations

     Forces acting on atoms (cartesian axes, Ry/au):

     atom    1 type  1   force =     0.00000000    0.00000000    0.00000000

     Total force =     0.000000     Total SCF correction =     0.000000


     Computing stress (Cartesian axis) and pressure

          total   stress  (Ry/bohr**3)                   (kbar)     P=   11.81
   0.00008029  -0.00000000   0.00000000         11.81     -0.00      0.00
   0.00000000   0.00008029   0.00000000          0.00     11.81      0.00
  -0.00000000   0.00000000   0.00008029         -0.00      0.00     11.81


     number of scf cycles    =   5
     number of bfgs steps    =   4

     enthalpy old            =     -95.1078386508 Ry
     enthalpy new            =     -95.1178745773 Ry

     CASE: enthalpy_new < enthalpy_old

     new trust radius        =       0.1634135646 bohr
     new conv_thr            =            1.0E-12 Ry

     new unit-cell volume =    257.57076 a.u.^3 (    38.16805 Ang^3 )
     density =      1.00020 g/cm^3

CELL_PARAMETERS (alat=  8.00000000)
  -0.631246335  -0.000000000   0.631246335
   0.000000000   0.631246335   0.631246335
  -0.631246335   0.631246335  -0.000000000

ATOMIC_POSITIONS (crystal)
Na       0.000000000   0.000000000   0.000000000



     Writing output data file na.fcc.save
     NEW-OLD atomic charge density approx. for the potential
     extrapolated charge   10.33852, renormalised to    9.00000

     total cpu time spent up to now is      145.3 secs

     per-process dynamical memory:    14.0 Mb

     Self-consistent Calculation

     iteration #  1     ecut=    40.00 Ry     beta=0.70
     Davidson diagonalization with overlap
     ethr =  1.00E-06,  avg # of iterations =  5.6

     total cpu time spent up to now is      148.9 secs

     total energy              =     -92.32330089 Ry
     Harris-Foulkes estimate   =     -84.57444728 Ry
     estimated scf accuracy    <       1.64243660 Ry

     iteration #  2     ecut=    40.00 Ry     beta=0.70
     Davidson diagonalization with overlap
     ethr =  1.00E-02,  avg # of iterations =  3.0

     total cpu time spent up to now is      151.0 secs

     total energy              =     -95.30541790 Ry
     Harris-Foulkes estimate   =     -96.39256650 Ry
     estimated scf accuracy    <       2.35841494 Ry

     iteration #  3     ecut=    40.00 Ry     beta=0.70
     Davidson diagonalization with overlap
     ethr =  1.00E-02,  avg # of iterations =  2.0

     total cpu time spent up to now is      152.6 secs

     total energy              =     -95.15950984 Ry
     Harris-Foulkes estimate   =     -95.41444034 Ry
     estimated scf accuracy    <       0.60095058 Ry

     iteration #  4     ecut=    40.00 Ry     beta=0.70
     Davidson diagonalization with overlap
     ethr =  6.68E-03,  avg # of iterations =  1.0

     total cpu time spent up to now is      153.9 secs

     total energy              =     -95.13124371 Ry
     Harris-Foulkes estimate   =     -95.18682256 Ry
     estimated scf accuracy    <       0.16827203 Ry

     iteration #  5     ecut=    40.00 Ry     beta=0.70
     Davidson diagonalization with overlap
     ethr =  1.87E-03,  avg # of iterations =  1.0

     total cpu time spent up to now is      155.2 secs

     total energy              =     -95.10433988 Ry
     Harris-Foulkes estimate   =     -95.13625396 Ry
     estimated scf accuracy    <       0.06778120 Ry

     iteration #  6     ecut=    40.00 Ry     beta=0.70
     Davidson diagonalization with overlap
     ethr =  7.53E-04,  avg # of iterations =  1.1

     total cpu time spent up to now is      156.5 secs

     total energy              =     -95.10169822 Ry
     Harris-Foulkes estimate   =     -95.10871505 Ry
     estimated scf accuracy    <       0.01335715 Ry

     iteration #  7     ecut=    40.00 Ry     beta=0.70
     Davidson diagonalization with overlap
     ethr =  1.48E-04,  avg # of iterations =  1.8

     total cpu time spent up to now is      158.1 secs

     total energy              =     -95.10266574 Ry
     Harris-Foulkes estimate   =     -95.10301292 Ry
     estimated scf accuracy    <       0.00156287 Ry

     iteration #  8     ecut=    40.00 Ry     beta=0.70
     Davidson diagonalization with overlap
     ethr =  1.74E-05,  avg # of iterations =  2.7

     total cpu time spent up to now is      160.2 secs

     total energy              =     -95.10253932 Ry
     Harris-Foulkes estimate   =     -95.10271528 Ry
     estimated scf accuracy    <       0.00092925 Ry

     iteration #  9     ecut=    40.00 Ry     beta=0.70
     Davidson diagonalization with overlap
     ethr =  1.03E-05,  avg # of iterations =  1.0

     total cpu time spent up to now is      161.5 secs

     total energy              =     -95.10209911 Ry
     Harris-Foulkes estimate   =     -95.10254887 Ry
     estimated scf accuracy    <       0.00058142 Ry

     iteration # 10     ecut=    40.00 Ry     beta=0.70
     Davidson diagonalization with overlap
     ethr =  6.46E-06,  avg # of iterations =  2.1

     total cpu time spent up to now is      163.2 secs

     total energy              =     -95.10226247 Ry
     Harris-Foulkes estimate   =     -95.10227726 Ry
     estimated scf accuracy    <       0.00002121 Ry

     iteration # 11     ecut=    40.00 Ry     beta=0.70
     Davidson diagonalization with overlap
     ethr =  2.36E-07,  avg # of iterations =  2.1

     total cpu time spent up to now is      165.2 secs

     total energy              =     -95.10226712 Ry
     Harris-Foulkes estimate   =     -95.10226712 Ry
     estimated scf accuracy    <       0.00000003 Ry

     iteration # 12     ecut=    40.00 Ry     beta=0.70
     Davidson diagonalization with overlap
     ethr =  3.02E-10,  avg # of iterations =  1.7

     total cpu time spent up to now is      166.6 secs

     total energy              =     -95.10226712 Ry
     Harris-Foulkes estimate   =     -95.10226712 Ry
     estimated scf accuracy    <       0.00000002 Ry

     iteration # 13     ecut=    40.00 Ry     beta=0.70
     Davidson diagonalization with overlap
     ethr =  1.73E-10,  avg # of iterations =  1.0

     total cpu time spent up to now is      167.9 secs

     total energy              =     -95.10226712 Ry
     Harris-Foulkes estimate   =     -95.10226712 Ry
     estimated scf accuracy    <          7.0E-09 Ry

     iteration # 14     ecut=    40.00 Ry     beta=0.70
     Davidson diagonalization with overlap
     ethr =  7.78E-11,  avg # of iterations =  1.0

     total cpu time spent up to now is      169.2 secs

     total energy              =     -95.10226712 Ry
     Harris-Foulkes estimate   =     -95.10226712 Ry
     estimated scf accuracy    <          5.1E-10 Ry

     iteration # 15     ecut=    40.00 Ry     beta=0.70
     Davidson diagonalization with overlap
     ethr =  5.67E-12,  avg # of iterations =  1.0

     total cpu time spent up to now is      170.4 secs

     total energy              =     -95.10226712 Ry
     Harris-Foulkes estimate   =     -95.10226712 Ry
     estimated scf accuracy    <          4.9E-10 Ry

     iteration # 16     ecut=    40.00 Ry     beta=0.70
     Davidson diagonalization with overlap
     ethr =  5.46E-12,  avg # of iterations =  1.0

     total cpu time spent up to now is      171.7 secs

     total energy              =     -95.10226712 Ry
     Harris-Foulkes estimate   =     -95.10226712 Ry
     estimated scf accuracy    <          9.2E-12 Ry

     iteration # 17     ecut=    40.00 Ry     beta=0.70
     Davidson diagonalization with overlap
     ethr =  1.03E-13,  avg # of iterations =  2.0

     total cpu time spent up to now is      173.3 secs

     total energy              =     -95.10226712 Ry
     Harris-Foulkes estimate   =     -95.10226712 Ry
     estimated scf accuracy    <          1.2E-11 Ry

     iteration # 18     ecut=    40.00 Ry     beta=0.70
     Davidson diagonalization with overlap
     ethr =  1.03E-13,  avg # of iterations =  1.0

     total cpu time spent up to now is      174.6 secs

     total energy              =     -95.10226712 Ry
     Harris-Foulkes estimate   =     -95.10226712 Ry
     estimated scf accuracy    <          5.5E-12 Ry

     iteration # 19     ecut=    40.00 Ry     beta=0.70
     Davidson diagonalization with overlap
     ethr =  1.00E-13,  avg # of iterations =  1.0

     total cpu time spent up to now is      175.9 secs

     total energy              =     -95.10226712 Ry
     Harris-Foulkes estimate   =     -95.10226712 Ry
     estimated scf accuracy    <          1.4E-12 Ry

     iteration # 20     ecut=    40.00 Ry     beta=0.70
     Davidson diagonalization with overlap
     ethr =  1.00E-13,  avg # of iterations =  1.0

     total cpu time spent up to now is      177.1 secs

     End of self-consistent calculation

     Number of k-points >= 100: set verbosity='high' to print the bands.

     the Fermi energy is     1.4804 ev

!    total energy              =     -95.10226712 Ry
     Harris-Foulkes estimate   =     -95.10226712 Ry
     estimated scf accuracy    <          4.9E-14 Ry

     The total energy is the sum of the following terms:

     one-electron contribution =     -88.76387347 Ry
     hartree contribution      =      44.69370010 Ry
     xc contribution           =     -14.26214576 Ry
     ewald contribution        =     -36.76989975 Ry
     smearing contrib. (-TS)   =      -0.00004825 Ry

     convergence has been achieved in  20 iterations

     Forces acting on atoms (cartesian axes, Ry/au):

     atom    1 type  1   force =     0.00000000    0.00000000    0.00000000

     Total force =     0.000000     Total SCF correction =     0.000000


     Computing stress (Cartesian axis) and pressure

          total   stress  (Ry/bohr**3)                   (kbar)     P=  -19.14
  -0.00013008   0.00000000   0.00000000        -19.14      0.00      0.00
   0.00000000  -0.00013008  -0.00000000          0.00    -19.14     -0.00
   0.00000000  -0.00000000  -0.00013008          0.00     -0.00    -19.14


     number of scf cycles    =   6
     number of bfgs steps    =   5

     enthalpy old            =     -95.1178745773 Ry
     enthalpy new            =     -95.1197764270 Ry

     CASE: enthalpy_new < enthalpy_old

     new trust radius        =       0.0533854714 bohr
     new conv_thr            =            1.0E-12 Ry

     new unit-cell volume =    244.93157 a.u.^3 (    36.29511 Ang^3 )
     density =      1.05182 g/cm^3

CELL_PARAMETERS (alat=  8.00000000)
  -0.620747438  -0.000000000   0.620747438
   0.000000000   0.620747438   0.620747438
  -0.620747438   0.620747438  -0.000000000

ATOMIC_POSITIONS (crystal)
Na       0.000000000   0.000000000   0.000000000



     Writing output data file na.fcc.save
     NEW-OLD atomic charge density approx. for the potential
     extrapolated charge    8.53590, renormalised to    9.00000

     total cpu time spent up to now is      180.6 secs

     per-process dynamical memory:    14.0 Mb

     Self-consistent Calculation

     iteration #  1     ecut=    40.00 Ry     beta=0.70
     Davidson diagonalization with overlap
     ethr =  1.00E-06,  avg # of iterations =  4.6

     total cpu time spent up to now is      183.6 secs

     total energy              =     -94.98304519 Ry
     Harris-Foulkes estimate   =     -98.67308689 Ry
     estimated scf accuracy    <       0.06850411 Ry

     iteration #  2     ecut=    40.00 Ry     beta=0.70
     Davidson diagonalization with overlap
     ethr =  7.61E-04,  avg # of iterations =  2.3

     total cpu time spent up to now is      185.7 secs

     total energy              =     -95.10353282 Ry
     Harris-Foulkes estimate   =     -95.15241302 Ry
     estimated scf accuracy    <       0.10997685 Ry

     iteration #  3     ecut=    40.00 Ry     beta=0.70
     Davidson diagonalization with overlap
     ethr =  7.61E-04,  avg # of iterations =  2.0

     total cpu time spent up to now is      187.3 secs

     total energy              =     -95.10364543 Ry
     Harris-Foulkes estimate   =     -95.11175324 Ry
     estimated scf accuracy    <       0.01851363 Ry

     iteration #  4     ecut=    40.00 Ry     beta=0.70
     Davidson diagonalization with overlap
     ethr =  2.06E-04,  avg # of iterations =  1.0

     total cpu time spent up to now is      188.6 secs

     total energy              =     -95.10486987 Ry
     Harris-Foulkes estimate   =     -95.10493146 Ry
     estimated scf accuracy    <       0.00347311 Ry

     iteration #  5     ecut=    40.00 Ry     beta=0.70
     Davidson diagonalization with overlap
     ethr =  3.86E-05,  avg # of iterations =  1.0

     total cpu time spent up to now is      189.9 secs

     total energy              =     -95.10325089 Ry
     Harris-Foulkes estimate   =     -95.10490445 Ry
     estimated scf accuracy    <       0.00336940 Ry

     iteration #  6     ecut=    40.00 Ry     beta=0.70
     Davidson diagonalization with overlap
     ethr =  3.74E-05,  avg # of iterations =  1.4

     total cpu time spent up to now is      191.3 secs

     total energy              =     -95.10333430 Ry
     Harris-Foulkes estimate   =     -95.10357589 Ry
     estimated scf accuracy    <       0.00039046 Ry

     iteration #  7     ecut=    40.00 Ry     beta=0.70
     Davidson diagonalization with overlap
     ethr =  4.34E-06,  avg # of iterations =  2.4

     total cpu time spent up to now is      193.3 secs

     total energy              =     -95.10340079 Ry
     Harris-Foulkes estimate   =     -95.10340491 Ry
     estimated scf accuracy    <       0.00000495 Ry

     iteration #  8     ecut=    40.00 Ry     beta=0.70
     Davidson diagonalization with overlap
     ethr =  5.50E-08,  avg # of iterations =  2.1

     total cpu time spent up to now is      194.9 secs

     total energy              =     -95.10340115 Ry
     Harris-Foulkes estimate   =     -95.10340554 Ry
     estimated scf accuracy    <       0.00000686 Ry

     iteration #  9     ecut=    40.00 Ry     beta=0.70
     Davidson diagonalization with overlap
     ethr =  5.50E-08,  avg # of iterations =  2.0

     total cpu time spent up to now is      196.5 secs

     total energy              =     -95.10340266 Ry
     Harris-Foulkes estimate   =     -95.10340268 Ry
     estimated scf accuracy    <       0.00000027 Ry

     iteration # 10     ecut=    40.00 Ry     beta=0.70
     Davidson diagonalization with overlap
     ethr =  3.02E-09,  avg # of iterations =  1.0

     total cpu time spent up to now is      197.8 secs

     total energy              =     -95.10340266 Ry
     Harris-Foulkes estimate   =     -95.10340266 Ry
     estimated scf accuracy    <       0.00000025 Ry

     iteration # 11     ecut=    40.00 Ry     beta=0.70
     Davidson diagonalization with overlap
     ethr =  2.78E-09,  avg # of iterations =  1.0

     total cpu time spent up to now is      199.1 secs

     total energy              =     -95.10340266 Ry
     Harris-Foulkes estimate   =     -95.10340266 Ry
     estimated scf accuracy    <       0.00000025 Ry

     iteration # 12     ecut=    40.00 Ry     beta=0.70
     Davidson diagonalization with overlap
     ethr =  2.77E-09,  avg # of iterations =  1.0

     total cpu time spent up to now is      200.3 secs

     total energy              =     -95.10340267 Ry
     Harris-Foulkes estimate   =     -95.10340266 Ry
     estimated scf accuracy    <       0.00000024 Ry

     iteration # 13     ecut=    40.00 Ry     beta=0.70
     Davidson diagonalization with overlap
     ethr =  2.71E-09,  avg # of iterations =  1.0

     total cpu time spent up to now is      201.6 secs

     total energy              =     -95.10340261 Ry
     Harris-Foulkes estimate   =     -95.10340267 Ry
     estimated scf accuracy    <       0.00000032 Ry

     iteration # 14     ecut=    40.00 Ry     beta=0.70
     Davidson diagonalization with overlap
     ethr =  2.71E-09,  avg # of iterations =  1.6

     total cpu time spent up to now is      203.1 secs

     total energy              =     -95.10340262 Ry
     Harris-Foulkes estimate   =     -95.10340262 Ry
     estimated scf accuracy    <          7.6E-09 Ry

     iteration # 15     ecut=    40.00 Ry     beta=0.70
     Davidson diagonalization with overlap
     ethr =  8.39E-11,  avg # of iterations =  2.0

     total cpu time spent up to now is      204.7 secs

     total energy              =     -95.10340262 Ry
     Harris-Foulkes estimate   =     -95.10340262 Ry
     estimated scf accuracy    <          2.1E-10 Ry

     iteration # 16     ecut=    40.00 Ry     beta=0.70
     Davidson diagonalization with overlap
     ethr =  2.32E-12,  avg # of iterations =  2.0

     total cpu time spent up to now is      206.2 secs

     total energy              =     -95.10340262 Ry
     Harris-Foulkes estimate   =     -95.10340262 Ry
     estimated scf accuracy    <          2.5E-12 Ry

     iteration # 17     ecut=    40.00 Ry     beta=0.70
     Davidson diagonalization with overlap
     ethr =  1.00E-13,  avg # of iterations =  1.0

     total cpu time spent up to now is      207.5 secs

     total energy              =     -95.10340262 Ry
     Harris-Foulkes estimate   =     -95.10340262 Ry
     estimated scf accuracy    <          3.9E-12 Ry

     iteration # 18     ecut=    40.00 Ry     beta=0.70
     Davidson diagonalization with overlap
     ethr =  1.00E-13,  avg # of iterations =  2.0

     total cpu time spent up to now is      209.1 secs

     total energy              =     -95.10340262 Ry
     Harris-Foulkes estimate   =     -95.10340262 Ry
     estimated scf accuracy    <          2.0E-12 Ry

     iteration # 19     ecut=    40.00 Ry     beta=0.70
     Davidson diagonalization with overlap
     ethr =  1.00E-13,  avg # of iterations =  1.0

     total cpu time spent up to now is      210.3 secs

     End of self-consistent calculation

     Number of k-points >= 100: set verbosity='high' to print the bands.

     the Fermi energy is     1.6892 ev

!    total energy              =     -95.10340262 Ry
     Harris-Foulkes estimate   =     -95.10340262 Ry
     estimated scf accuracy    <          2.3E-13 Ry

     The total energy is the sum of the following terms:

     one-electron contribution =     -87.67864638 Ry
     hartree contribution      =      44.23729045 Ry
     xc contribution           =     -14.27020001 Ry
     ewald contribution        =     -37.39180049 Ry
     smearing contrib. (-TS)   =      -0.00004618 Ry

     convergence has been achieved in  19 iterations

     Forces acting on atoms (cartesian axes, Ry/au):

     atom    1 type  1   force =     0.00000000    0.00000000    0.00000000

     Total force =     0.000000     Total SCF correction =     0.000000


     Computing stress (Cartesian axis) and pressure

          total   stress  (Ry/bohr**3)                   (kbar)     P=   -7.57
  -0.00005146  -0.00000000  -0.00000000         -7.57     -0.00     -0.00
  -0.00000000  -0.00005146   0.00000000         -0.00     -7.57      0.00
  -0.00000000   0.00000000  -0.00005146         -0.00      0.00     -7.57


     number of scf cycles    =   7
     number of bfgs steps    =   6

     enthalpy old            =     -95.1197764270 Ry
     enthalpy new            =     -95.1200527297 Ry

     CASE: enthalpy_new < enthalpy_old

     new trust radius        =       0.0108334387 bohr
     new conv_thr            =            1.0E-12 Ry

     new unit-cell volume =    247.48358 a.u.^3 (    36.67328 Ang^3 )
     density =      1.04097 g/cm^3

CELL_PARAMETERS (alat=  8.00000000)
  -0.622895906  -0.000000000   0.622895906
   0.000000000   0.622895906   0.622895906
  -0.622895906   0.622895906  -0.000000000

ATOMIC_POSITIONS (crystal)
Na       0.000000000   0.000000000   0.000000000



     Writing output data file na.fcc.save
     NEW-OLD atomic charge density approx. for the potential
     extrapolated charge    9.09274, renormalised to    9.00000

     total cpu time spent up to now is      213.8 secs

     per-process dynamical memory:    14.0 Mb

     Self-consistent Calculation

     iteration #  1     ecut=    40.00 Ry     beta=0.70
     Davidson diagonalization with overlap
     ethr =  1.00E-06,  avg # of iterations =  3.2

     total cpu time spent up to now is      216.2 secs

     total energy              =     -95.09738831 Ry
     Harris-Foulkes estimate   =     -94.37946403 Ry
     estimated scf accuracy    <       0.00327175 Ry

     iteration #  2     ecut=    40.00 Ry     beta=0.70
     Davidson diagonalization with overlap
     ethr =  3.64E-05,  avg # of iterations =  2.6

     total cpu time spent up to now is      218.3 secs

     total energy              =     -95.10338245 Ry
     Harris-Foulkes estimate   =     -95.10575166 Ry
     estimated scf accuracy    <       0.00536595 Ry

     iteration #  3     ecut=    40.00 Ry     beta=0.70
     Davidson diagonalization with overlap
     ethr =  3.64E-05,  avg # of iterations =  1.6

     total cpu time spent up to now is      220.1 secs

     total energy              =     -95.10339298 Ry
     Harris-Foulkes estimate   =     -95.10373109 Ry
     estimated scf accuracy    <       0.00105307 Ry

     iteration #  4     ecut=    40.00 Ry     beta=0.70
     Davidson diagonalization with overlap
     ethr =  1.17E-05,  avg # of iterations =  1.0

     total cpu time spent up to now is      221.4 secs

     total energy              =     -95.10325521 Ry
     Harris-Foulkes estimate   =     -95.10343173 Ry
     estimated scf accuracy    <       0.00038588 Ry

     iteration #  5     ecut=    40.00 Ry     beta=0.70
     Davidson diagonalization with overlap
     ethr =  4.29E-06,  avg # of iterations =  1.0

     total cpu time spent up to now is      222.7 secs

     total energy              =     -95.10326831 Ry
     Harris-Foulkes estimate   =     -95.10328297 Ry
     estimated scf accuracy    <       0.00006768 Ry

     iteration #  6     ecut=    40.00 Ry     beta=0.70
     Davidson diagonalization with overlap
     ethr =  7.52E-07,  avg # of iterations =  1.0

     total cpu time spent up to now is      224.2 secs

     total energy              =     -95.10326778 Ry
     Harris-Foulkes estimate   =     -95.10326995 Ry
     estimated scf accuracy    <       0.00003772 Ry

     iteration #  7     ecut=    40.00 Ry     beta=0.70
     Davidson diagonalization with overlap
     ethr =  4.19E-07,  avg # of iterations =  1.0

     total cpu time spent up to now is      225.5 secs

     total energy              =     -95.10324566 Ry
     Harris-Foulkes estimate   =     -95.10326783 Ry
     estimated scf accuracy    <       0.00003369 Ry

     iteration #  8     ecut=    40.00 Ry     beta=0.70
     Davidson diagonalization with overlap
     ethr =  3.74E-07,  avg # of iterations =  2.0

     total cpu time spent up to now is      227.1 secs

     total energy              =     -95.10325220 Ry
     Harris-Foulkes estimate   =     -95.10325226 Ry
     estimated scf accuracy    <       0.00000007 Ry

     iteration #  9     ecut=    40.00 Ry     beta=0.70
     Davidson diagonalization with overlap
     ethr =  7.95E-10,  avg # of iterations =  2.0

     total cpu time spent up to now is      228.7 secs

     total energy              =     -95.10325224 Ry
     Harris-Foulkes estimate   =     -95.10325224 Ry
     estimated scf accuracy    <       0.00000004 Ry

     iteration # 10     ecut=    40.00 Ry     beta=0.70
     Davidson diagonalization with overlap
     ethr =  4.03E-10,  avg # of iterations =  1.0

     total cpu time spent up to now is      230.0 secs

     total energy              =     -95.10325223 Ry
     Harris-Foulkes estimate   =     -95.10325224 Ry
     estimated scf accuracy    <       0.00000003 Ry

     iteration # 11     ecut=    40.00 Ry     beta=0.70
     Davidson diagonalization with overlap
     ethr =  3.54E-10,  avg # of iterations =  1.0

     total cpu time spent up to now is      231.3 secs

     total energy              =     -95.10325223 Ry
     Harris-Foulkes estimate   =     -95.10325223 Ry
     estimated scf accuracy    <          3.9E-09 Ry

     iteration # 12     ecut=    40.00 Ry     beta=0.70
     Davidson diagonalization with overlap
     ethr =  4.29E-11,  avg # of iterations =  2.0

     total cpu time spent up to now is      233.0 secs

     total energy              =     -95.10325223 Ry
     Harris-Foulkes estimate   =     -95.10325223 Ry
     estimated scf accuracy    <          1.2E-10 Ry

     iteration # 13     ecut=    40.00 Ry     beta=0.70
     Davidson diagonalization with overlap
     ethr =  1.31E-12,  avg # of iterations =  1.0

     total cpu time spent up to now is      234.3 secs

     total energy              =     -95.10325223 Ry
     Harris-Foulkes estimate   =     -95.10325223 Ry
     estimated scf accuracy    <          2.5E-11 Ry

     iteration # 14     ecut=    40.00 Ry     beta=0.70
     Davidson diagonalization with overlap
     ethr =  2.80E-13,  avg # of iterations =  1.0

     total cpu time spent up to now is      235.5 secs

     total energy              =     -95.10325223 Ry
     Harris-Foulkes estimate   =     -95.10325223 Ry
     estimated scf accuracy    <          7.7E-12 Ry

     iteration # 15     ecut=    40.00 Ry     beta=0.70
     Davidson diagonalization with overlap
     ethr =  1.00E-13,  avg # of iterations =  1.6

     total cpu time spent up to now is      237.0 secs

     End of self-consistent calculation

     Number of k-points >= 100: set verbosity='high' to print the bands.

     the Fermi energy is     1.6452 ev

!    total energy              =     -95.10325223 Ry
     Harris-Foulkes estimate   =     -95.10325223 Ry
     estimated scf accuracy    <          9.6E-15 Ry

     The total energy is the sum of the following terms:

     one-electron contribution =     -87.90384339 Ry
     hartree contribution      =      44.33204794 Ry
     xc contribution           =     -14.26857999 Ry
     ewald contribution        =     -37.26283019 Ry
     smearing contrib. (-TS)   =      -0.00004660 Ry

     convergence has been achieved in  15 iterations

     Forces acting on atoms (cartesian axes, Ry/au):

     atom    1 type  1   force =     0.00000000    0.00000000    0.00000000

     Total force =     0.000000     Total SCF correction =     0.000000


     Computing stress (Cartesian axis) and pressure

          total   stress  (Ry/bohr**3)                   (kbar)     P=   -9.78
  -0.00006646  -0.00000000   0.00000000         -9.78     -0.00      0.00
  -0.00000000  -0.00006646   0.00000000         -0.00     -9.78      0.00
   0.00000000   0.00000000  -0.00006646          0.00      0.00     -9.78


     number of scf cycles    =   8
     number of bfgs steps    =   7

     enthalpy old            =     -95.1200527297 Ry
     enthalpy new            =     -95.1200758230 Ry

     CASE: enthalpy_new < enthalpy_old

     new trust radius        =       0.0011105045 bohr
     new conv_thr            =            1.0E-12 Ry

     new unit-cell volume =    247.74572 a.u.^3 (    36.71213 Ang^3 )
     density =      1.03987 g/cm^3

CELL_PARAMETERS (alat=  8.00000000)
  -0.623115759  -0.000000000   0.623115759
   0.000000000   0.623115759   0.623115759
  -0.623115759   0.623115759  -0.000000000

ATOMIC_POSITIONS (crystal)
Na       0.000000000   0.000000000   0.000000000



     Writing output data file na.fcc.save
     NEW-OLD atomic charge density approx. for the potential
     extrapolated charge    9.00952, renormalised to    9.00000

     total cpu time spent up to now is      240.5 secs

     per-process dynamical memory:    14.0 Mb

     Self-consistent Calculation

     iteration #  1     ecut=    40.00 Ry     beta=0.70
     Davidson diagonalization with overlap
     ethr =  1.00E-06,  avg # of iterations =  2.0

     total cpu time spent up to now is      242.3 secs

     total energy              =     -95.10317487 Ry
     Harris-Foulkes estimate   =     -95.02905060 Ry
     estimated scf accuracy    <       0.00003338 Ry

     iteration #  2     ecut=    40.00 Ry     beta=0.70
     Davidson diagonalization with overlap
     ethr =  3.71E-07,  avg # of iterations =  2.5

     total cpu time spent up to now is      244.1 secs

     total energy              =     -95.10323574 Ry
     Harris-Foulkes estimate   =     -95.10325989 Ry
     estimated scf accuracy    <       0.00005468 Ry

     iteration #  3     ecut=    40.00 Ry     beta=0.70
     Davidson diagonalization with overlap
     ethr =  3.71E-07,  avg # of iterations =  1.7

     total cpu time spent up to now is      245.6 secs

     total energy              =     -95.10323616 Ry
     Harris-Foulkes estimate   =     -95.10323935 Ry
     estimated scf accuracy    <       0.00001056 Ry

     iteration #  4     ecut=    40.00 Ry     beta=0.70
     Davidson diagonalization with overlap
     ethr =  1.17E-07,  avg # of iterations =  1.0

     total cpu time spent up to now is      246.9 secs

     total energy              =     -95.10323488 Ry
     Harris-Foulkes estimate   =     -95.10323654 Ry
     estimated scf accuracy    <       0.00000415 Ry

     iteration #  5     ecut=    40.00 Ry     beta=0.70
     Davidson diagonalization with overlap
     ethr =  4.61E-08,  avg # of iterations =  1.0

     total cpu time spent up to now is      248.3 secs

     total energy              =     -95.10323490 Ry
     Harris-Foulkes estimate   =     -95.10323509 Ry
     estimated scf accuracy    <       0.00000107 Ry

     iteration #  6     ecut=    40.00 Ry     beta=0.70
     Davidson diagonalization with overlap
     ethr =  1.19E-08,  avg # of iterations =  1.0

     total cpu time spent up to now is      249.5 secs

     total energy              =     -95.10323488 Ry
     Harris-Foulkes estimate   =     -95.10323492 Ry
     estimated scf accuracy    <       0.00000067 Ry

     iteration #  7     ecut=    40.00 Ry     beta=0.70
     Davidson diagonalization with overlap
     ethr =  7.41E-09,  avg # of iterations =  1.0

     total cpu time spent up to now is      250.8 secs

     total energy              =     -95.10323449 Ry
     Harris-Foulkes estimate   =     -95.10323488 Ry
     estimated scf accuracy    <       0.00000059 Ry

     iteration #  8     ecut=    40.00 Ry     beta=0.70
     Davidson diagonalization with overlap
     ethr =  6.55E-09,  avg # of iterations =  2.0

     total cpu time spent up to now is      252.4 secs

     total energy              =     -95.10323460 Ry
     Harris-Foulkes estimate   =     -95.10323460 Ry
     estimated scf accuracy    <          8.4E-10 Ry

     iteration #  9     ecut=    40.00 Ry     beta=0.70
     Davidson diagonalization with overlap
     ethr =  9.38E-12,  avg # of iterations =  2.0

     total cpu time spent up to now is      254.1 secs

     total energy              =     -95.10323460 Ry
     Harris-Foulkes estimate   =     -95.10323460 Ry
     estimated scf accuracy    <          2.3E-10 Ry

     iteration # 10     ecut=    40.00 Ry     beta=0.70
     Davidson diagonalization with overlap
     ethr =  2.54E-12,  avg # of iterations =  1.0

     total cpu time spent up to now is      255.4 secs

     total energy              =     -95.10323460 Ry
     Harris-Foulkes estimate   =     -95.10323460 Ry
     estimated scf accuracy    <          1.4E-10 Ry

     iteration # 11     ecut=    40.00 Ry     beta=0.70
     Davidson diagonalization with overlap
     ethr =  1.53E-12,  avg # of iterations =  1.0

     total cpu time spent up to now is      256.7 secs

     total energy              =     -95.10323460 Ry
     Harris-Foulkes estimate   =     -95.10323460 Ry
     estimated scf accuracy    <          2.1E-10 Ry

     iteration # 12     ecut=    40.00 Ry     beta=0.70
     Davidson diagonalization with overlap
     ethr =  1.53E-12,  avg # of iterations =  1.6

     total cpu time spent up to now is      258.1 secs

     total energy              =     -95.10323460 Ry
     Harris-Foulkes estimate   =     -95.10323460 Ry
     estimated scf accuracy    <          9.0E-12 Ry

     iteration # 13     ecut=    40.00 Ry     beta=0.70
     Davidson diagonalization with overlap
     ethr =  1.00E-13,  avg # of iterations =  1.0

     total cpu time spent up to now is      259.4 secs

     End of self-consistent calculation

     Number of k-points >= 100: set verbosity='high' to print the bands.

     the Fermi energy is     1.6408 ev

!    total energy              =     -95.10323460 Ry
     Harris-Foulkes estimate   =     -95.10323460 Ry
     estimated scf accuracy    <          2.7E-13 Ry

     The total energy is the sum of the following terms:

     one-electron contribution =     -87.92679950 Ry
     hartree contribution      =      44.34170844 Ry
     xc contribution           =     -14.26841410 Ry
     ewald contribution        =     -37.24968280 Ry
     smearing contrib. (-TS)   =      -0.00004664 Ry

     convergence has been achieved in  13 iterations

     Forces acting on atoms (cartesian axes, Ry/au):

     atom    1 type  1   force =     0.00000000    0.00000000    0.00000000

     Total force =     0.000000     Total SCF correction =     0.000000


     Computing stress (Cartesian axis) and pressure

          total   stress  (Ry/bohr**3)                   (kbar)     P=  -10.00
  -0.00006799   0.00000000   0.00000000        -10.00      0.00      0.00
   0.00000000  -0.00006799  -0.00000000          0.00    -10.00     -0.00
   0.00000000  -0.00000000  -0.00006799          0.00     -0.00    -10.00


     bfgs converged in   9 scf cycles and   8 bfgs steps
     (criteria: energy <  1.0E-04 Ry, force <  1.0E-03Ry/Bohr, cell <  5.0E-02kbar)

     End of BFGS Geometry Optimization

     Final enthalpy =     -95.1200760185 Ry
Begin final coordinates
     new unit-cell volume =    247.74572 a.u.^3 (    36.71213 Ang^3 )
     density =      1.03987 g/cm^3

CELL_PARAMETERS (alat=  8.00000000)
  -0.623115759  -0.000000000   0.623115759
   0.000000000   0.623115759   0.623115759
  -0.623115759   0.623115759  -0.000000000

ATOMIC_POSITIONS (crystal)
Na       0.000000000   0.000000000   0.000000000
End final coordinates



     A final scf calculation at the relaxed structure.
     The G-vectors are recalculated for the final unit cell
     Results may differ from those at the preceding step.

     Parallelization info
     --------------------
     sticks:   dense  smooth     PW     G-vecs:    dense   smooth      PW
     Min          68      34     11                 1497      523     101
     Max          69      35     12                 1499      526     103
     Sum        1099     547    187                23973     8393    1639



     bravais-lattice index     =            2
     lattice parameter (alat)  =       8.0000  a.u.
     unit-cell volume          =     247.7457 (a.u.)^3
     number of atoms/cell      =            1
     number of atomic types    =            1
     number of electrons       =         9.00
     number of Kohn-Sham states=            9
     kinetic-energy cutoff     =      40.0000  Ry
     charge density cutoff     =     320.0000  Ry
     convergence threshold     =      1.0E-12
     mixing beta               =       0.7000
     number of iterations used =            8  plain     mixing
     Exchange-correlation      = SLA  PW   PBE  PBE ( 1  4  3  4 0 0)

     celldm(1)=   8.000000  celldm(2)=   0.000000  celldm(3)=   0.000000
     celldm(4)=   0.000000  celldm(5)=   0.000000  celldm(6)=   0.000000

     crystal axes: (cart. coord. in units of alat)
               a(1) = (  -0.623116  -0.000000   0.623116 )  
               a(2) = (   0.000000   0.623116   0.623116 )  
               a(3) = (  -0.623116   0.623116  -0.000000 )  

     reciprocal axes: (cart. coord. in units 2 pi/alat)
               b(1) = ( -0.802419 -0.802419  0.802419 )  
               b(2) = (  0.802419  0.802419  0.802419 )  
               b(3) = ( -0.802419  0.802419 -0.802419 )  


     PseudoPot. # 1 for Na read from file:
     /home/s1333534/quantum_espresso/qe-6.1/pseudo/Na_pbe_v1.uspp.F.UPF
     MD5 check sum: 76a99c7e9422403d3e93cbc85ab7bccb
     Pseudo is Ultrasoft, Zval =  9.0
     Generated by new atomic code, or converted to UPF format
     Using radial grid of  819 points,  5 beta functions with: 
                l(1) =   0
                l(2) =   0
                l(3) =   1
                l(4) =   1
                l(5) =   2
     Q(r) pseudized with  8 coefficients,  rinner =    1.250   1.250   1.250
                                                       1.250   1.250

     atomic species   valence    mass     pseudopotential
        Na             9.00    22.99000     Na( 1.00)

     48 Sym. Ops., with inversion, found



   Cartesian axes

     site n.     atom                  positions (alat units)
         1           Na  tau(   1) = (   0.0000000   0.0000000   0.0000000  )

     number of k points=   770  Marzari-Vanderbilt smearing, width (Ry)=  0.0200

     Number of k-points >= 100: set verbosity='high' to print them.

     Dense  grid:    23973 G-vectors     FFT dimensions: (  45,  45,  45)

     Smooth grid:     8393 G-vectors     FFT dimensions: (  30,  30,  30)

     Estimated max dynamical RAM per process >       2.90MB

     Estimated total allocated dynamical RAM >     185.28MB

     Initial potential from superposition of free atoms

     starting charge    8.99371, renormalised to    9.00000
     Starting wfc are    5 randomized atomic wfcs +    4 random wfc

     Writing output data file na.fcc.save

     total cpu time spent up to now is      263.7 secs

     per-process dynamical memory:    15.5 Mb

     Self-consistent Calculation

     iteration #  1     ecut=    40.00 Ry     beta=0.70
     Davidson diagonalization with overlap
     c_bands:  1 eigenvalues not converged
     c_bands:  1 eigenvalues not converged
     c_bands:  1 eigenvalues not converged
     c_bands:  1 eigenvalues not converged
     c_bands:  1 eigenvalues not converged
     c_bands:  1 eigenvalues not converged
     c_bands:  1 eigenvalues not converged
     c_bands:  1 eigenvalues not converged
     c_bands:  1 eigenvalues not converged
     ethr =  1.00E-06,  avg # of iterations = 11.5

     total cpu time spent up to now is      271.0 secs

     total energy              =     -95.10646301 Ry
     Harris-Foulkes estimate   =     -95.10667297 Ry
     estimated scf accuracy    <       0.00088682 Ry

     iteration #  2     ecut=    40.00 Ry     beta=0.70
     Davidson diagonalization with overlap
     ethr =  9.85E-06,  avg # of iterations =  2.0

     total cpu time spent up to now is      273.4 secs

     total energy              =     -95.10656473 Ry
     Harris-Foulkes estimate   =     -95.10658728 Ry
     estimated scf accuracy    <       0.00009920 Ry

     iteration #  3     ecut=    40.00 Ry     beta=0.70
     Davidson diagonalization with overlap
     ethr =  1.10E-06,  avg # of iterations =  2.0

     total cpu time spent up to now is      275.7 secs

     total energy              =     -95.10657589 Ry
     Harris-Foulkes estimate   =     -95.10657710 Ry
     estimated scf accuracy    <       0.00000618 Ry

     iteration #  4     ecut=    40.00 Ry     beta=0.70
     Davidson diagonalization with overlap
     ethr =  6.87E-08,  avg # of iterations =  1.0

     total cpu time spent up to now is      277.6 secs

     total energy              =     -95.10657647 Ry
     Harris-Foulkes estimate   =     -95.10657643 Ry
     estimated scf accuracy    <          9.1E-09 Ry

     iteration #  5     ecut=    40.00 Ry     beta=0.70
     Davidson diagonalization with overlap
     ethr =  1.01E-10,  avg # of iterations =  3.0

     total cpu time spent up to now is      280.7 secs

     total energy              =     -95.10657651 Ry
     Harris-Foulkes estimate   =     -95.10657650 Ry
     estimated scf accuracy    <          1.7E-09 Ry

     iteration #  6     ecut=    40.00 Ry     beta=0.70
     Davidson diagonalization with overlap
     ethr =  1.85E-11,  avg # of iterations =  1.6

     total cpu time spent up to now is      282.8 secs

     total energy              =     -95.10657651 Ry
     Harris-Foulkes estimate   =     -95.10657651 Ry
     estimated scf accuracy    <          4.0E-11 Ry

     iteration #  7     ecut=    40.00 Ry     beta=0.70
     Davidson diagonalization with overlap
     ethr =  4.47E-13,  avg # of iterations =  1.8

     total cpu time spent up to now is      285.3 secs

     total energy              =     -95.10657651 Ry
     Harris-Foulkes estimate   =     -95.10657651 Ry
     estimated scf accuracy    <          3.5E-12 Ry

     iteration #  8     ecut=    40.00 Ry     beta=0.70
     Davidson diagonalization with overlap
     ethr =  1.00E-13,  avg # of iterations =  1.3

     total cpu time spent up to now is      287.3 secs

     End of self-consistent calculation

     Number of k-points >= 100: set verbosity='high' to print the bands.

     the Fermi energy is     1.6444 ev

!    total energy              =     -95.10657651 Ry
     Harris-Foulkes estimate   =     -95.10657651 Ry
     estimated scf accuracy    <          1.2E-13 Ry

     The total energy is the sum of the following terms:

     one-electron contribution =     -87.93382459 Ry
     hartree contribution      =      44.34674173 Ry
     xc contribution           =     -14.26976438 Ry
     ewald contribution        =     -37.24968259 Ry
     smearing contrib. (-TS)   =      -0.00004668 Ry

     convergence has been achieved in   8 iterations

     Forces acting on atoms (cartesian axes, Ry/au):

     atom    1 type  1   force =     0.00000000    0.00000000    0.00000000

     Total force =     0.000000     Total SCF correction =     0.000000


     Computing stress (Cartesian axis) and pressure

          total   stress  (Ry/bohr**3)                   (kbar)     P=   -2.06
  -0.00001398   0.00000000   0.00000000         -2.06      0.00      0.00
   0.00000000  -0.00001398   0.00000000          0.00     -2.06      0.00
   0.00000000   0.00000000  -0.00001398          0.00      0.00     -2.06


     Writing output data file na.fcc.save

     init_run     :      1.51s CPU      1.63s WALL (       2 calls)
     electrons    :    229.90s CPU    254.40s WALL (      10 calls)
     update_pot   :      0.84s CPU      0.86s WALL (       8 calls)
     forces       :      1.13s CPU      1.18s WALL (      10 calls)
     stress       :      3.08s CPU      3.14s WALL (      10 calls)

     Called by init_run:
     wfcinit      :      0.98s CPU      1.05s WALL (       2 calls)
     potinit      :      0.07s CPU      0.08s WALL (       2 calls)

     Called by electrons:
     c_bands      :    196.16s CPU    217.99s WALL (     151 calls)
     sum_band     :     30.88s CPU     33.46s WALL (     151 calls)
     v_of_rho     :      1.31s CPU      1.35s WALL (     160 calls)
     newd         :      0.94s CPU      0.95s WALL (     160 calls)
     mix_rho      :      0.22s CPU      0.23s WALL (     151 calls)

     Called by c_bands:
     init_us_2    :      2.92s CPU      3.17s WALL (   62532 calls)
     cegterg      :    178.73s CPU    199.79s WALL (   29143 calls)

     Called by sum_band:
     sum_band:bec :      0.30s CPU      0.33s WALL (   29143 calls)
     addusdens    :      0.92s CPU      0.97s WALL (     151 calls)

     Called by *egterg:
     h_psi        :    122.22s CPU    133.65s WALL (   85346 calls)
     s_psi        :      1.38s CPU      1.54s WALL (   85346 calls)
     g_psi        :      0.33s CPU      0.41s WALL (   55817 calls)
     cdiaghg      :     30.01s CPU     34.14s WALL (   83223 calls)

     Called by h_psi:
     h_psi:pot    :    121.63s CPU    132.97s WALL (   85346 calls)
     h_psi:calbec :      6.42s CPU      7.04s WALL (   85346 calls)
     vloc_psi     :    112.97s CPU    123.49s WALL (   85346 calls)
     add_vuspsi   :      1.46s CPU      1.62s WALL (   85346 calls)

     General routines
     calbec       :      8.70s CPU      9.50s WALL (  124139 calls)
     fft          :      1.07s CPU      1.12s WALL (    2612 calls)
     ffts         :      0.05s CPU      0.05s WALL (     311 calls)
     fftw         :    120.36s CPU    131.34s WALL ( 1527155 calls)
     interpolate  :      0.16s CPU      0.17s WALL (     311 calls)
     davcio       :      0.00s CPU      0.03s WALL (     386 calls)

     Parallel routines
     fft_scatter  :     56.60s CPU     61.76s WALL ( 1530078 calls)

     PWSCF        :  4m24.87s CPU     4m50.88s WALL


   This run was terminated on:  22:49:24  28Jan2018            

=------------------------------------------------------------------------------=
   JOB DONE.
=------------------------------------------------------------------------------=
