
     Program PHONON v.6.1 (svn rev. 13369) starts on  1Feb2018 at 10:53:40 

     This program is part of the open-source Quantum ESPRESSO suite
     for quantum simulation of materials; please cite
         "P. Giannozzi et al., J. Phys.:Condens. Matter 21 395502 (2009);
          URL http://www.quantum-espresso.org", 
     in publications or presentations arising from this work. More details at
     http://www.quantum-espresso.org/quote

     Parallel version (MPI), running on    64 processors
     K-points division:     npool     =       4
     R & G space division:  proc/nbgrp/npool/nimage =      16

     Reading data from directory:
     ./na.fcc.save

   Info: using nr1, nr2, nr3 values from input

   Info: using nr1, nr2, nr3 values from input

     IMPORTANT: XC functional enforced from input :
     Exchange-correlation      = SLA  PW   PBE  PBE ( 1  4  3  4 0 0)
     Any further DFT definition will be discarded
     Please, verify this is what you really want


     Parallelization info
     --------------------
     sticks:   dense  smooth     PW     G-vecs:    dense   smooth      PW
     Min          74      37     12                 1706      597     113
     Max          75      38     13                 1709      600     116
     Sum        1189     595    199                27317     9577    1837



     Dynamical matrices for ( 6, 6, 6)  uniform grid of q-points
     (  16q-points):
       N         xq(1)         xq(2)         xq(3) 
       1   0.000000000   0.000000000   0.000000000
       2  -0.166666667   0.166666667  -0.166666667
       3  -0.333333333   0.333333333  -0.333333333
       4   0.500000000  -0.500000000   0.500000000
       5   0.000000000   0.333333333   0.000000000
       6  -0.166666667   0.500000000  -0.166666667
       7   0.666666667  -0.333333333   0.666666667
       8   0.500000000  -0.166666667   0.500000000
       9   0.333333333   0.000000000   0.333333333
      10   0.000000000   0.666666667   0.000000000
      11   0.833333333  -0.166666667   0.833333333
      12   0.666666667  -0.000000000   0.666666667
      13   0.000000000  -1.000000000   0.000000000
      14   0.666666667  -0.333333333   1.000000000
      15   0.500000000  -0.166666667   0.833333333
      16  -0.333333333  -1.000000000   0.000000000

     Calculation of q =    0.0000000   0.0000000   0.0000000

                                                                                

     bravais-lattice index     =            2
     lattice parameter (alat)  =      10.4000  a.u.
     unit-cell volume          =     281.2160 (a.u.)^3
     number of atoms/cell      =            1
     number of atomic types    =            1
     kinetic-energy cut-off    =      40.0000  Ry
     charge density cut-off    =     320.0000  Ry
     convergence threshold     =      1.0E-16
     beta                      =       0.7000
     number of iterations used =            4
     Exchange-correlation      = SLA  PW   PBE  PBE ( 1  4  3  4 0 0)


     celldm(1)=   10.40000  celldm(2)=    0.00000  celldm(3)=    0.00000
     celldm(4)=    0.00000  celldm(5)=    0.00000  celldm(6)=    0.00000

     crystal axes: (cart. coord. in units of alat)
               a(1) = ( -0.5000  0.0000  0.5000 )  
               a(2) = (  0.0000  0.5000  0.5000 )  
               a(3) = ( -0.5000  0.5000  0.0000 )  

     reciprocal axes: (cart. coord. in units 2 pi/alat)
               b(1) = ( -1.0000 -1.0000  1.0000 )  
               b(2) = (  1.0000  1.0000  1.0000 )  
               b(3) = ( -1.0000  1.0000 -1.0000 )  


     Atoms inside the unit cell: 

     Cartesian axes

     site n.  atom      mass           positions (alat units)
        1     Na  22.9900   tau(    1) = (    0.00000    0.00000    0.00000  )

     Computing dynamical matrix for 
                    q = (   0.0000000   0.0000000   0.0000000 )

     49 Sym.Ops. (with q -> -q+G )


     G cutoff =  876.7119  (   1709 G-vectors)     FFT grid: ( 45, 45, 45)
     G cutoff =  438.3560  (    600 G-vectors)  smooth grid: ( 30, 30, 30)

     number of k points=   770  Marzari-Vanderbilt smearing, width (Ry)=  0.0200

     PseudoPot. # 1 for Na read from file:
     /home/s1333534/quantum_espresso/qe-6.1/pseudo/Na_pbe_v1.uspp.F.UPF
     MD5 check sum: 76a99c7e9422403d3e93cbc85ab7bccb
     Pseudo is Ultrasoft, Zval =  9.0
     Generated by new atomic code, or converted to UPF format
     Using radial grid of  819 points,  5 beta functions with: 
                l(1) =   0
                l(2) =   0
                l(3) =   1
                l(4) =   1
                l(5) =   2
     Q(r) pseudized with  8 coefficients,  rinner =    1.250   1.250   1.250
                                                       1.250   1.250

     Mode symmetry, O_h (m-3m)  point group:


     Atomic displacements:
     There are   1 irreducible representations

     Representation     1      3 modes -T_1u G_15  G_4-  To be done



     Alpha used in Ewald sum =   2.8000
     PHONON       :     7.63s CPU         8.17s WALL



     Representation #  1 modes #   1  2  3

     Self-consistent Calculation

     Pert. #  1: Fermi energy shift (Ry) =     6.0531E-25    -1.8808E-37
     Pert. #  2: Fermi energy shift (Ry) =    -1.7018E-25     1.7241E-37
     Pert. #  3: Fermi energy shift (Ry) =     2.4988E-25     6.5828E-37

      iter #   1 total cpu time :    19.3 secs   av.it.:   5.3
      thresh= 1.000E-02 alpha_mix =  0.700 |ddv_scf|^2 =  8.051E-07

     Pert. #  1: Fermi energy shift (Ry) =     1.0771E-27    -6.1224E-41
     Pert. #  2: Fermi energy shift (Ry) =     8.6165E-27    -6.1224E-41
     Pert. #  3: Fermi energy shift (Ry) =     1.3463E-27     9.1835E-41

      iter #   2 total cpu time :    32.8 secs   av.it.:   8.4
      thresh= 8.973E-05 alpha_mix =  0.700 |ddv_scf|^2 =  1.501E-08

     Pert. #  1: Fermi energy shift (Ry) =    -8.1856E-26     0.0000E+00
     Pert. #  2: Fermi energy shift (Ry) =     3.2312E-27     1.9132E-41
     Pert. #  3: Fermi energy shift (Ry) =     2.0464E-26     7.6530E-42

      iter #   3 total cpu time :    46.7 secs   av.it.:   8.6
      thresh= 1.225E-05 alpha_mix =  0.700 |ddv_scf|^2 =  3.697E-10

     Pert. #  1: Fermi energy shift (Ry) =     0.0000E+00     0.0000E+00
     Pert. #  2: Fermi energy shift (Ry) =     0.0000E+00     2.2959E-41
     Pert. #  3: Fermi energy shift (Ry) =    -2.9081E-26     2.4872E-41

      iter #   4 total cpu time :    60.0 secs   av.it.:   8.1
      thresh= 1.923E-06 alpha_mix =  0.700 |ddv_scf|^2 =  1.314E-12

     Pert. #  1: Fermi energy shift (Ry) =     3.2312E-26     1.9132E-42
     Pert. #  2: Fermi energy shift (Ry) =     3.2312E-27    -2.3915E-42
     Pert. #  3: Fermi energy shift (Ry) =    -2.5311E-26     4.7831E-43

      iter #   5 total cpu time :    73.5 secs   av.it.:   8.5
      thresh= 1.146E-07 alpha_mix =  0.700 |ddv_scf|^2 =  2.318E-15

     Pert. #  1: Fermi energy shift (Ry) =    -2.5849E-26     0.0000E+00
     Pert. #  2: Fermi energy shift (Ry) =     2.9081E-26    -1.9132E-42
     Pert. #  3: Fermi energy shift (Ry) =     4.5775E-26     9.3270E-42

      iter #   6 total cpu time :    85.8 secs   av.it.:   7.7
      thresh= 4.815E-09 alpha_mix =  0.700 |ddv_scf|^2 =  6.971E-17

     End of self-consistent calculation

     Convergence has been achieved 

     Number of q in the star =    1
     List of q in the star:
          1   0.000000000   0.000000000   0.000000000

     Diagonalizing the dynamical matrix

     q = (    0.000000000   0.000000000   0.000000000 ) 

 **************************************************************************
     freq (    1) =      -0.458812 [THz] =     -15.304311 [cm-1]
     freq (    2) =      -0.458812 [THz] =     -15.304311 [cm-1]
     freq (    3) =      -0.458812 [THz] =     -15.304311 [cm-1]
 **************************************************************************

     Mode symmetry, O_h (m-3m)  point group:

     freq (  1 -  3) =        -15.3  [cm-1]   --> T_1u G_15  G_4- I  

     Calculation of q =   -0.1666667   0.1666667  -0.1666667

   Info: using nr1, nr2, nr3 values from input

   Info: using nr1, nr2, nr3 values from input

     Parallelization info
     --------------------
     sticks:   dense  smooth     PW     G-vecs:    dense   smooth      PW
     Min          74      37     12                 1706      597     118
     Max          75      38     13                 1709      600     122
     Sum        1189     595    199                27317     9577    1917



     bravais-lattice index     =            2
     lattice parameter (alat)  =      10.4000  a.u.
     unit-cell volume          =     281.2160 (a.u.)^3
     number of atoms/cell      =            1
     number of atomic types    =            1
     number of electrons       =         9.00
     number of Kohn-Sham states=            9
     kinetic-energy cutoff     =      40.0000  Ry
     charge density cutoff     =     320.0000  Ry
     Exchange-correlation      = SLA  PW   PBE  PBE ( 1  4  3  4 0 0)

     celldm(1)=  10.400000  celldm(2)=   0.000000  celldm(3)=   0.000000
     celldm(4)=   0.000000  celldm(5)=   0.000000  celldm(6)=   0.000000

     crystal axes: (cart. coord. in units of alat)
               a(1) = (  -0.500000   0.000000   0.500000 )  
               a(2) = (   0.000000   0.500000   0.500000 )  
               a(3) = (  -0.500000   0.500000   0.000000 )  

     reciprocal axes: (cart. coord. in units 2 pi/alat)
               b(1) = ( -1.000000 -1.000000  1.000000 )  
               b(2) = (  1.000000  1.000000  1.000000 )  
               b(3) = ( -1.000000  1.000000 -1.000000 )  


     PseudoPot. # 1 for Na read from file:
     /home/s1333534/quantum_espresso/qe-6.1/pseudo/Na_pbe_v1.uspp.F.UPF
     MD5 check sum: 76a99c7e9422403d3e93cbc85ab7bccb
     Pseudo is Ultrasoft, Zval =  9.0
     Generated by new atomic code, or converted to UPF format
     Using radial grid of  819 points,  5 beta functions with: 
                l(1) =   0
                l(2) =   0
                l(3) =   1
                l(4) =   1
                l(5) =   2
     Q(r) pseudized with  8 coefficients,  rinner =    1.250   1.250   1.250
                                                       1.250   1.250

     atomic species   valence    mass     pseudopotential
        Na             9.00    22.99000     Na( 1.00)

     48 Sym. Ops., with inversion, found



   Cartesian axes

     site n.     atom                  positions (alat units)
         1           Na  tau(   1) = (   0.0000000   0.0000000   0.0000000  )

     number of k points= 11480  Marzari-Vanderbilt smearing, width (Ry)=  0.0200

     Number of k-points >= 100: set verbosity='high' to print them.

     Dense  grid:    27317 G-vectors     FFT dimensions: (  45,  45,  45)

     Smooth grid:     9577 G-vectors     FFT dimensions: (  30,  30,  30)

     Estimated max dynamical RAM per process >       0.94MB

     Estimated total allocated dynamical RAM >      60.02MB

     The potential is recalculated from file :
     ./_ph0/na.fcc.save/charge-density.dat

     Starting wfc are    5 atomic +    4 random wfc

     Band Structure Calculation
     Davidson diagonalization with overlap

     ethr =  1.11E-10,  avg # of iterations = 21.1

     total cpu time spent up to now is      211.1 secs

     End of band structure calculation

     Number of k-points >= 100: set verbosity='high' to print the bands.

     the Fermi energy is     1.1469 ev

     Writing output data file na.fcc.save

                                                                                

     bravais-lattice index     =            2
     lattice parameter (alat)  =      10.4000  a.u.
     unit-cell volume          =     281.2160 (a.u.)^3
     number of atoms/cell      =            1
     number of atomic types    =            1
     kinetic-energy cut-off    =      40.0000  Ry
     charge density cut-off    =     320.0000  Ry
     convergence threshold     =      1.0E-16
     beta                      =       0.7000
     number of iterations used =            4
     Exchange-correlation      = SLA  PW   PBE  PBE ( 1  4  3  4 0 0)


     celldm(1)=   10.40000  celldm(2)=    0.00000  celldm(3)=    0.00000
     celldm(4)=    0.00000  celldm(5)=    0.00000  celldm(6)=    0.00000

     crystal axes: (cart. coord. in units of alat)
               a(1) = ( -0.5000  0.0000  0.5000 )  
               a(2) = (  0.0000  0.5000  0.5000 )  
               a(3) = ( -0.5000  0.5000  0.0000 )  

     reciprocal axes: (cart. coord. in units 2 pi/alat)
               b(1) = ( -1.0000 -1.0000  1.0000 )  
               b(2) = (  1.0000  1.0000  1.0000 )  
               b(3) = ( -1.0000  1.0000 -1.0000 )  


     Atoms inside the unit cell: 

     Cartesian axes

     site n.  atom      mass           positions (alat units)
        1     Na  22.9900   tau(    1) = (    0.00000    0.00000    0.00000  )

     Computing dynamical matrix for 
                    q = (  -0.1666667   0.1666667  -0.1666667 )

      6 Sym.Ops. (no q -> -q+G )


     G cutoff =  876.7119  (   1709 G-vectors)     FFT grid: ( 45, 45, 45)
     G cutoff =  438.3560  (    600 G-vectors)  smooth grid: ( 30, 30, 30)

     number of k points= 11480  Marzari-Vanderbilt smearing, width (Ry)=  0.0200

     PseudoPot. # 1 for Na read from file:
     /home/s1333534/quantum_espresso/qe-6.1/pseudo/Na_pbe_v1.uspp.F.UPF
     MD5 check sum: 76a99c7e9422403d3e93cbc85ab7bccb
     Pseudo is Ultrasoft, Zval =  9.0
     Generated by new atomic code, or converted to UPF format
     Using radial grid of  819 points,  5 beta functions with: 
                l(1) =   0
                l(2) =   0
                l(3) =   1
                l(4) =   1
                l(5) =   2
     Q(r) pseudized with  8 coefficients,  rinner =    1.250   1.250   1.250
                                                       1.250   1.250

     Mode symmetry, C_3v (3m)   point group:


     Atomic displacements:
     There are   2 irreducible representations

     Representation     1      1 modes -A_1  L_1  To be done

     Representation     2      2 modes -E    L_3  To be done



     Alpha used in Ewald sum =   2.8000
     PHONON       :  5m23.08s CPU     5m40.74s WALL



     Representation #  1 mode #   1

     Self-consistent Calculation

      iter #   1 total cpu time :   366.2 secs   av.it.:   5.7
      thresh= 1.000E-02 alpha_mix =  0.700 |ddv_scf|^2 =  2.143E-02

      iter #   2 total cpu time :   390.0 secs   av.it.:   6.3
      thresh= 1.000E-02 alpha_mix =  0.700 |ddv_scf|^2 =  3.788E+00

      iter #   3 total cpu time :   414.0 secs   av.it.:   6.3
      thresh= 1.000E-02 alpha_mix =  0.700 |ddv_scf|^2 =  2.127E-07

      iter #   4 total cpu time :   442.7 secs   av.it.:   8.3
      thresh= 4.612E-05 alpha_mix =  0.700 |ddv_scf|^2 =  2.826E-08

      iter #   5 total cpu time :   470.8 secs   av.it.:   7.7
      thresh= 1.681E-05 alpha_mix =  0.700 |ddv_scf|^2 =  3.010E-09

      iter #   6 total cpu time :   498.2 secs   av.it.:   7.6
      thresh= 5.486E-06 alpha_mix =  0.700 |ddv_scf|^2 =  6.261E-08

      iter #   7 total cpu time :   516.2 secs   av.it.:   4.3
      thresh= 2.502E-05 alpha_mix =  0.700 |ddv_scf|^2 =  9.117E-11

      iter #   8 total cpu time :   544.1 secs   av.it.:   8.1
      thresh= 9.548E-07 alpha_mix =  0.700 |ddv_scf|^2 =  1.271E-11

      iter #   9 total cpu time :   570.1 secs   av.it.:   7.5
      thresh= 3.564E-07 alpha_mix =  0.700 |ddv_scf|^2 =  1.175E-12

      iter #  10 total cpu time :   595.8 secs   av.it.:   7.4
      thresh= 1.084E-07 alpha_mix =  0.700 |ddv_scf|^2 =  1.601E-13

      iter #  11 total cpu time :   621.2 secs   av.it.:   7.3
      thresh= 4.001E-08 alpha_mix =  0.700 |ddv_scf|^2 =  4.175E-16

      iter #  12 total cpu time :   648.9 secs   av.it.:   8.0
      thresh= 2.043E-09 alpha_mix =  0.700 |ddv_scf|^2 =  1.118E-15

      iter #  13 total cpu time :   670.2 secs   av.it.:   5.5
      thresh= 3.343E-09 alpha_mix =  0.700 |ddv_scf|^2 =  1.907E-15

      iter #  14 total cpu time :   694.6 secs   av.it.:   6.6
      thresh= 4.367E-09 alpha_mix =  0.700 |ddv_scf|^2 =  1.802E-18

     End of self-consistent calculation

     Convergence has been achieved 


     Representation #  2 modes #   2  3

     Self-consistent Calculation

      iter #   1 total cpu time :   744.7 secs   av.it.:   5.5
      thresh= 1.000E-02 alpha_mix =  0.700 |ddv_scf|^2 =  1.840E-06

      iter #   2 total cpu time :   803.4 secs   av.it.:   8.5
      thresh= 1.357E-04 alpha_mix =  0.700 |ddv_scf|^2 =  3.355E-08

      iter #   3 total cpu time :   863.0 secs   av.it.:   8.6
      thresh= 1.832E-05 alpha_mix =  0.700 |ddv_scf|^2 =  9.279E-10

      iter #   4 total cpu time :   922.6 secs   av.it.:   8.5
      thresh= 3.046E-06 alpha_mix =  0.700 |ddv_scf|^2 =  3.317E-12

      iter #   5 total cpu time :   983.7 secs   av.it.:   8.6
      thresh= 1.821E-07 alpha_mix =  0.700 |ddv_scf|^2 =  5.216E-15

      iter #   6 total cpu time :  1038.5 secs   av.it.:   7.7
      thresh= 7.223E-09 alpha_mix =  0.700 |ddv_scf|^2 =  1.942E-16

      iter #   7 total cpu time :  1099.6 secs   av.it.:   8.6
      thresh= 1.394E-09 alpha_mix =  0.700 |ddv_scf|^2 =  1.475E-19

     End of self-consistent calculation

     Convergence has been achieved 

     Number of q in the star =    8
     List of q in the star:
          1  -0.166666667   0.166666667  -0.166666667
          2   0.166666667   0.166666667   0.166666667
          3  -0.166666667  -0.166666667  -0.166666667
          4   0.166666667  -0.166666667   0.166666667
          5   0.166666667  -0.166666667  -0.166666667
          6   0.166666667   0.166666667  -0.166666667
          7  -0.166666667  -0.166666667   0.166666667
          8  -0.166666667   0.166666667   0.166666667

     Diagonalizing the dynamical matrix

     q = (   -0.166666667   0.166666667  -0.166666667 ) 

 **************************************************************************
     freq (    1) =       0.751524 [THz] =      25.068139 [cm-1]
     freq (    2) =       0.751524 [THz] =      25.068139 [cm-1]
     freq (    3) =       1.699978 [THz] =      56.705150 [cm-1]
 **************************************************************************

     Mode symmetry, C_3v (3m)   point group:

     freq (  1 -  2) =         25.1  [cm-1]   --> E    L_3           
     freq (  3 -  3) =         56.7  [cm-1]   --> A_1  L_1           

     Calculation of q =   -0.3333333   0.3333333  -0.3333333

   Info: using nr1, nr2, nr3 values from input

   Info: using nr1, nr2, nr3 values from input

     Parallelization info
     --------------------
     sticks:   dense  smooth     PW     G-vecs:    dense   smooth      PW
     Min          74      37     13                 1706      597     129
     Max          75      38     14                 1709      600     132
     Sum        1189     595    211                27317     9577    2085



     bravais-lattice index     =            2
     lattice parameter (alat)  =      10.4000  a.u.
     unit-cell volume          =     281.2160 (a.u.)^3
     number of atoms/cell      =            1
     number of atomic types    =            1
     number of electrons       =         9.00
     number of Kohn-Sham states=            9
     kinetic-energy cutoff     =      40.0000  Ry
     charge density cutoff     =     320.0000  Ry
     Exchange-correlation      = SLA  PW   PBE  PBE ( 1  4  3  4 0 0)

     celldm(1)=  10.400000  celldm(2)=   0.000000  celldm(3)=   0.000000
     celldm(4)=   0.000000  celldm(5)=   0.000000  celldm(6)=   0.000000

     crystal axes: (cart. coord. in units of alat)
               a(1) = (  -0.500000   0.000000   0.500000 )  
               a(2) = (   0.000000   0.500000   0.500000 )  
               a(3) = (  -0.500000   0.500000   0.000000 )  

     reciprocal axes: (cart. coord. in units 2 pi/alat)
               b(1) = ( -1.000000 -1.000000  1.000000 )  
               b(2) = (  1.000000  1.000000  1.000000 )  
               b(3) = ( -1.000000  1.000000 -1.000000 )  


     PseudoPot. # 1 for Na read from file:
     /home/s1333534/quantum_espresso/qe-6.1/pseudo/Na_pbe_v1.uspp.F.UPF
     MD5 check sum: 76a99c7e9422403d3e93cbc85ab7bccb
     Pseudo is Ultrasoft, Zval =  9.0
     Generated by new atomic code, or converted to UPF format
     Using radial grid of  819 points,  5 beta functions with: 
                l(1) =   0
                l(2) =   0
                l(3) =   1
                l(4) =   1
                l(5) =   2
     Q(r) pseudized with  8 coefficients,  rinner =    1.250   1.250   1.250
                                                       1.250   1.250

     atomic species   valence    mass     pseudopotential
        Na             9.00    22.99000     Na( 1.00)

     48 Sym. Ops., with inversion, found



   Cartesian axes

     site n.     atom                  positions (alat units)
         1           Na  tau(   1) = (   0.0000000   0.0000000   0.0000000  )

     number of k points= 11480  Marzari-Vanderbilt smearing, width (Ry)=  0.0200

     Number of k-points >= 100: set verbosity='high' to print them.

     Dense  grid:    27317 G-vectors     FFT dimensions: (  45,  45,  45)

     Smooth grid:     9577 G-vectors     FFT dimensions: (  30,  30,  30)

     Estimated max dynamical RAM per process >       0.94MB

     Estimated total allocated dynamical RAM >      60.02MB

     The potential is recalculated from file :
     ./_ph0/na.fcc.save/charge-density.dat

     Starting wfc are    5 atomic +    4 random wfc

     Band Structure Calculation
     Davidson diagonalization with overlap

     ethr =  1.11E-10,  avg # of iterations = 21.1

     total cpu time spent up to now is      455.3 secs

     End of band structure calculation

     Number of k-points >= 100: set verbosity='high' to print the bands.

     the Fermi energy is     1.1469 ev

     Writing output data file na.fcc.save

                                                                                

     bravais-lattice index     =            2
     lattice parameter (alat)  =      10.4000  a.u.
     unit-cell volume          =     281.2160 (a.u.)^3
     number of atoms/cell      =            1
     number of atomic types    =            1
     kinetic-energy cut-off    =      40.0000  Ry
     charge density cut-off    =     320.0000  Ry
     convergence threshold     =      1.0E-16
     beta                      =       0.7000
     number of iterations used =            4
     Exchange-correlation      = SLA  PW   PBE  PBE ( 1  4  3  4 0 0)


     celldm(1)=   10.40000  celldm(2)=    0.00000  celldm(3)=    0.00000
     celldm(4)=    0.00000  celldm(5)=    0.00000  celldm(6)=    0.00000

     crystal axes: (cart. coord. in units of alat)
               a(1) = ( -0.5000  0.0000  0.5000 )  
               a(2) = (  0.0000  0.5000  0.5000 )  
               a(3) = ( -0.5000  0.5000  0.0000 )  

     reciprocal axes: (cart. coord. in units 2 pi/alat)
               b(1) = ( -1.0000 -1.0000  1.0000 )  
               b(2) = (  1.0000  1.0000  1.0000 )  
               b(3) = ( -1.0000  1.0000 -1.0000 )  


     Atoms inside the unit cell: 

     Cartesian axes

     site n.  atom      mass           positions (alat units)
        1     Na  22.9900   tau(    1) = (    0.00000    0.00000    0.00000  )

     Computing dynamical matrix for 
                    q = (  -0.3333333   0.3333333  -0.3333333 )

      6 Sym.Ops. (no q -> -q+G )


     G cutoff =  876.7119  (   1709 G-vectors)     FFT grid: ( 45, 45, 45)
     G cutoff =  438.3560  (    600 G-vectors)  smooth grid: ( 30, 30, 30)

     number of k points= 11480  Marzari-Vanderbilt smearing, width (Ry)=  0.0200

     PseudoPot. # 1 for Na read from file:
     /home/s1333534/quantum_espresso/qe-6.1/pseudo/Na_pbe_v1.uspp.F.UPF
     MD5 check sum: 76a99c7e9422403d3e93cbc85ab7bccb
     Pseudo is Ultrasoft, Zval =  9.0
     Generated by new atomic code, or converted to UPF format
     Using radial grid of  819 points,  5 beta functions with: 
                l(1) =   0
                l(2) =   0
                l(3) =   1
                l(4) =   1
                l(5) =   2
     Q(r) pseudized with  8 coefficients,  rinner =    1.250   1.250   1.250
                                                       1.250   1.250

     Mode symmetry, C_3v (3m)   point group:


     Atomic displacements:
     There are   2 irreducible representations

     Representation     1      1 modes -A_1  L_1  To be done

     Representation     2      2 modes -E    L_3  To be done



     Alpha used in Ewald sum =   2.8000
     PHONON       : 21m 6.54s CPU    22m35.59s WALL



     Representation #  1 mode #   1

     Self-consistent Calculation

      iter #   1 total cpu time :  1381.2 secs   av.it.:   5.7
      thresh= 1.000E-02 alpha_mix =  0.700 |ddv_scf|^2 =  3.577E-04

      iter #   2 total cpu time :  1406.4 secs   av.it.:   6.8
      thresh= 1.891E-03 alpha_mix =  0.700 |ddv_scf|^2 =  2.523E-03

      iter #   3 total cpu time :  1428.8 secs   av.it.:   5.7
      thresh= 5.023E-03 alpha_mix =  0.700 |ddv_scf|^2 =  3.818E-07

      iter #   4 total cpu time :  1457.2 secs   av.it.:   7.9
      thresh= 6.179E-05 alpha_mix =  0.700 |ddv_scf|^2 =  7.068E-09

      iter #   5 total cpu time :  1487.7 secs   av.it.:   8.5
      thresh= 8.407E-06 alpha_mix =  0.700 |ddv_scf|^2 =  2.348E-10

      iter #   6 total cpu time :  1516.9 secs   av.it.:   8.4
      thresh= 1.532E-06 alpha_mix =  0.700 |ddv_scf|^2 =  1.613E-11

      iter #   7 total cpu time :  1547.0 secs   av.it.:   8.1
      thresh= 4.017E-07 alpha_mix =  0.700 |ddv_scf|^2 =  5.913E-13

      iter #   8 total cpu time :  1575.6 secs   av.it.:   8.2
      thresh= 7.690E-08 alpha_mix =  0.700 |ddv_scf|^2 =  1.972E-13

      iter #   9 total cpu time :  1601.7 secs   av.it.:   7.0
      thresh= 4.441E-08 alpha_mix =  0.700 |ddv_scf|^2 =  4.067E-13

      iter #  10 total cpu time :  1627.1 secs   av.it.:   6.9
      thresh= 6.377E-08 alpha_mix =  0.700 |ddv_scf|^2 =  5.227E-15

      iter #  11 total cpu time :  1654.6 secs   av.it.:   7.8
      thresh= 7.229E-09 alpha_mix =  0.700 |ddv_scf|^2 =  4.842E-17

     End of self-consistent calculation

     Convergence has been achieved 


     Representation #  2 modes #   2  3

     Self-consistent Calculation

      iter #   1 total cpu time :  1705.9 secs   av.it.:   5.6
      thresh= 1.000E-02 alpha_mix =  0.700 |ddv_scf|^2 =  1.895E-06

      iter #   2 total cpu time :  1764.8 secs   av.it.:   8.5
      thresh= 1.377E-04 alpha_mix =  0.700 |ddv_scf|^2 =  3.326E-08

      iter #   3 total cpu time :  1826.0 secs   av.it.:   8.7
      thresh= 1.824E-05 alpha_mix =  0.700 |ddv_scf|^2 =  1.106E-09

      iter #   4 total cpu time :  1884.8 secs   av.it.:   8.5
      thresh= 3.326E-06 alpha_mix =  0.700 |ddv_scf|^2 =  3.996E-12

      iter #   5 total cpu time :  1944.7 secs   av.it.:   8.7
      thresh= 1.999E-07 alpha_mix =  0.700 |ddv_scf|^2 =  5.533E-15

      iter #   6 total cpu time :  1998.4 secs   av.it.:   7.6
      thresh= 7.439E-09 alpha_mix =  0.700 |ddv_scf|^2 =  2.576E-16

      iter #   7 total cpu time :  2059.0 secs   av.it.:   8.7
      thresh= 1.605E-09 alpha_mix =  0.700 |ddv_scf|^2 =  2.286E-19

     End of self-consistent calculation

     Convergence has been achieved 

     Number of q in the star =    8
     List of q in the star:
          1  -0.333333333   0.333333333  -0.333333333
          2   0.333333333   0.333333333   0.333333333
          3  -0.333333333  -0.333333333  -0.333333333
          4   0.333333333  -0.333333333   0.333333333
          5   0.333333333  -0.333333333  -0.333333333
          6   0.333333333   0.333333333  -0.333333333
          7  -0.333333333  -0.333333333   0.333333333
          8  -0.333333333   0.333333333   0.333333333

     Diagonalizing the dynamical matrix

     q = (   -0.333333333   0.333333333  -0.333333333 ) 

 **************************************************************************
     freq (    1) =       1.321654 [THz] =      44.085633 [cm-1]
     freq (    2) =       1.321654 [THz] =      44.085633 [cm-1]
     freq (    3) =       2.833179 [THz] =      94.504671 [cm-1]
 **************************************************************************

     Mode symmetry, C_3v (3m)   point group:

     freq (  1 -  2) =         44.1  [cm-1]   --> E    L_3           
     freq (  3 -  3) =         94.5  [cm-1]   --> A_1  L_1           

     Calculation of q =    0.5000000  -0.5000000   0.5000000

   Info: using nr1, nr2, nr3 values from input

   Info: using nr1, nr2, nr3 values from input

     Parallelization info
     --------------------
     sticks:   dense  smooth     PW     G-vecs:    dense   smooth      PW
     Min          74      37     13                 1706      597     137
     Max          75      38     14                 1709      600     142
     Sum        1189     595    223                27317     9577    2229



     bravais-lattice index     =            2
     lattice parameter (alat)  =      10.4000  a.u.
     unit-cell volume          =     281.2160 (a.u.)^3
     number of atoms/cell      =            1
     number of atomic types    =            1
     number of electrons       =         9.00
     number of Kohn-Sham states=            9
     kinetic-energy cutoff     =      40.0000  Ry
     charge density cutoff     =     320.0000  Ry
     Exchange-correlation      = SLA  PW   PBE  PBE ( 1  4  3  4 0 0)

     celldm(1)=  10.400000  celldm(2)=   0.000000  celldm(3)=   0.000000
     celldm(4)=   0.000000  celldm(5)=   0.000000  celldm(6)=   0.000000

     crystal axes: (cart. coord. in units of alat)
               a(1) = (  -0.500000   0.000000   0.500000 )  
               a(2) = (   0.000000   0.500000   0.500000 )  
               a(3) = (  -0.500000   0.500000   0.000000 )  

     reciprocal axes: (cart. coord. in units 2 pi/alat)
               b(1) = ( -1.000000 -1.000000  1.000000 )  
               b(2) = (  1.000000  1.000000  1.000000 )  
               b(3) = ( -1.000000  1.000000 -1.000000 )  


     PseudoPot. # 1 for Na read from file:
     /home/s1333534/quantum_espresso/qe-6.1/pseudo/Na_pbe_v1.uspp.F.UPF
     MD5 check sum: 76a99c7e9422403d3e93cbc85ab7bccb
     Pseudo is Ultrasoft, Zval =  9.0
     Generated by new atomic code, or converted to UPF format
     Using radial grid of  819 points,  5 beta functions with: 
                l(1) =   0
                l(2) =   0
                l(3) =   1
                l(4) =   1
                l(5) =   2
     Q(r) pseudized with  8 coefficients,  rinner =    1.250   1.250   1.250
                                                       1.250   1.250

     atomic species   valence    mass     pseudopotential
        Na             9.00    22.99000     Na( 1.00)

     48 Sym. Ops., with inversion, found



   Cartesian axes

     site n.     atom                  positions (alat units)
         1           Na  tau(   1) = (   0.0000000   0.0000000   0.0000000  )

     number of k points=  5740  Marzari-Vanderbilt smearing, width (Ry)=  0.0200

     Number of k-points >= 100: set verbosity='high' to print them.

     Dense  grid:    27317 G-vectors     FFT dimensions: (  45,  45,  45)

     Smooth grid:     9577 G-vectors     FFT dimensions: (  30,  30,  30)

     Estimated max dynamical RAM per process >       0.94MB

     Estimated total allocated dynamical RAM >      60.02MB

     The potential is recalculated from file :
     ./_ph0/na.fcc.save/charge-density.dat

     Starting wfc are    5 atomic +    4 random wfc

     Band Structure Calculation
     Davidson diagonalization with overlap

     ethr =  1.11E-10,  avg # of iterations = 21.1

     total cpu time spent up to now is      595.7 secs

     End of band structure calculation

     Number of k-points >= 100: set verbosity='high' to print the bands.

     the Fermi energy is     1.1469 ev

     Writing output data file na.fcc.save

                                                                                

     bravais-lattice index     =            2
     lattice parameter (alat)  =      10.4000  a.u.
     unit-cell volume          =     281.2160 (a.u.)^3
     number of atoms/cell      =            1
     number of atomic types    =            1
     kinetic-energy cut-off    =      40.0000  Ry
     charge density cut-off    =     320.0000  Ry
     convergence threshold     =      1.0E-16
     beta                      =       0.7000
     number of iterations used =            4
     Exchange-correlation      = SLA  PW   PBE  PBE ( 1  4  3  4 0 0)


     celldm(1)=   10.40000  celldm(2)=    0.00000  celldm(3)=    0.00000
     celldm(4)=    0.00000  celldm(5)=    0.00000  celldm(6)=    0.00000

     crystal axes: (cart. coord. in units of alat)
               a(1) = ( -0.5000  0.0000  0.5000 )  
               a(2) = (  0.0000  0.5000  0.5000 )  
               a(3) = ( -0.5000  0.5000  0.0000 )  

     reciprocal axes: (cart. coord. in units 2 pi/alat)
               b(1) = ( -1.0000 -1.0000  1.0000 )  
               b(2) = (  1.0000  1.0000  1.0000 )  
               b(3) = ( -1.0000  1.0000 -1.0000 )  


     Atoms inside the unit cell: 

     Cartesian axes

     site n.  atom      mass           positions (alat units)
        1     Na  22.9900   tau(    1) = (    0.00000    0.00000    0.00000  )

     Computing dynamical matrix for 
                    q = (   0.5000000  -0.5000000   0.5000000 )

     13 Sym.Ops. (with q -> -q+G )


     G cutoff =  876.7119  (   1709 G-vectors)     FFT grid: ( 45, 45, 45)
     G cutoff =  438.3560  (    600 G-vectors)  smooth grid: ( 30, 30, 30)

     number of k points=  5740  Marzari-Vanderbilt smearing, width (Ry)=  0.0200

     PseudoPot. # 1 for Na read from file:
     /home/s1333534/quantum_espresso/qe-6.1/pseudo/Na_pbe_v1.uspp.F.UPF
     MD5 check sum: 76a99c7e9422403d3e93cbc85ab7bccb
     Pseudo is Ultrasoft, Zval =  9.0
     Generated by new atomic code, or converted to UPF format
     Using radial grid of  819 points,  5 beta functions with: 
                l(1) =   0
                l(2) =   0
                l(3) =   1
                l(4) =   1
                l(5) =   2
     Q(r) pseudized with  8 coefficients,  rinner =    1.250   1.250   1.250
                                                       1.250   1.250

     Mode symmetry, D_3d (-3m)  point group:


     Atomic displacements:
     There are   2 irreducible representations

     Representation     1      1 modes -A_2u L_2'  To be done

     Representation     2      2 modes -E_u  L_3'  To be done



     Alpha used in Ewald sum =   2.8000
     PHONON       : 33m57.29s CPU    36m30.38s WALL



     Representation #  1 mode #   1

     Self-consistent Calculation

      iter #   1 total cpu time :  2203.6 secs   av.it.:   5.7
      thresh= 1.000E-02 alpha_mix =  0.700 |ddv_scf|^2 =  7.081E-05

      iter #   2 total cpu time :  2217.7 secs   av.it.:   6.9
      thresh= 8.415E-04 alpha_mix =  0.700 |ddv_scf|^2 =  4.520E-05

      iter #   3 total cpu time :  2230.7 secs   av.it.:   6.6
      thresh= 6.723E-04 alpha_mix =  0.700 |ddv_scf|^2 =  5.643E-08

      iter #   4 total cpu time :  2245.5 secs   av.it.:   7.9
      thresh= 2.376E-05 alpha_mix =  0.700 |ddv_scf|^2 =  2.503E-10

      iter #   5 total cpu time :  2259.1 secs   av.it.:   7.1
      thresh= 1.582E-06 alpha_mix =  0.700 |ddv_scf|^2 =  4.280E-12

      iter #   6 total cpu time :  2272.3 secs   av.it.:   6.9
      thresh= 2.069E-07 alpha_mix =  0.700 |ddv_scf|^2 =  1.615E-14

      iter #   7 total cpu time :  2286.4 secs   av.it.:   7.6
      thresh= 1.271E-08 alpha_mix =  0.700 |ddv_scf|^2 =  3.350E-17

     End of self-consistent calculation

     Convergence has been achieved 


     Representation #  2 modes #   2  3

     Self-consistent Calculation

      iter #   1 total cpu time :  2311.6 secs   av.it.:   5.4
      thresh= 1.000E-02 alpha_mix =  0.700 |ddv_scf|^2 =  1.921E-06

      iter #   2 total cpu time :  2342.0 secs   av.it.:   8.4
      thresh= 1.386E-04 alpha_mix =  0.700 |ddv_scf|^2 =  3.312E-08

      iter #   3 total cpu time :  2372.0 secs   av.it.:   8.5
      thresh= 1.820E-05 alpha_mix =  0.700 |ddv_scf|^2 =  1.177E-09

      iter #   4 total cpu time :  2400.6 secs   av.it.:   8.0
      thresh= 3.431E-06 alpha_mix =  0.700 |ddv_scf|^2 =  4.272E-12

      iter #   5 total cpu time :  2430.3 secs   av.it.:   8.3
      thresh= 2.067E-07 alpha_mix =  0.700 |ddv_scf|^2 =  5.741E-15

      iter #   6 total cpu time :  2457.5 secs   av.it.:   7.2
      thresh= 7.577E-09 alpha_mix =  0.700 |ddv_scf|^2 =  2.793E-16

      iter #   7 total cpu time :  2486.8 secs   av.it.:   8.3
      thresh= 1.671E-09 alpha_mix =  0.700 |ddv_scf|^2 =  2.152E-19

     End of self-consistent calculation

     Convergence has been achieved 

     Number of q in the star =    4
     List of q in the star:
          1   0.500000000  -0.500000000   0.500000000
          2   0.500000000   0.500000000   0.500000000
          3  -0.500000000   0.500000000   0.500000000
          4   0.500000000   0.500000000  -0.500000000

     Diagonalizing the dynamical matrix

     q = (    0.500000000  -0.500000000   0.500000000 ) 

 **************************************************************************
     freq (    1) =       1.559834 [THz] =      52.030466 [cm-1]
     freq (    2) =       1.559834 [THz] =      52.030466 [cm-1]
     freq (    3) =       3.235614 [THz] =     107.928463 [cm-1]
 **************************************************************************

     Mode symmetry, D_3d (-3m)  point group:

     freq (  1 -  2) =         52.0  [cm-1]   --> E_u  L_3'          
     freq (  3 -  3) =        107.9  [cm-1]   --> A_2u L_2'          

     Calculation of q =    0.0000000   0.3333333   0.0000000

   Info: using nr1, nr2, nr3 values from input

   Info: using nr1, nr2, nr3 values from input

     Parallelization info
     --------------------
     sticks:   dense  smooth     PW     G-vecs:    dense   smooth      PW
     Min          74      37     13                 1706      597     123
     Max          75      38     14                 1709      600     126
     Sum        1189     595    211                27317     9577    1989



     bravais-lattice index     =            2
     lattice parameter (alat)  =      10.4000  a.u.
     unit-cell volume          =     281.2160 (a.u.)^3
     number of atoms/cell      =            1
     number of atomic types    =            1
     number of electrons       =         9.00
     number of Kohn-Sham states=            9
     kinetic-energy cutoff     =      40.0000  Ry
     charge density cutoff     =     320.0000  Ry
     Exchange-correlation      = SLA  PW   PBE  PBE ( 1  4  3  4 0 0)

     celldm(1)=  10.400000  celldm(2)=   0.000000  celldm(3)=   0.000000
     celldm(4)=   0.000000  celldm(5)=   0.000000  celldm(6)=   0.000000

     crystal axes: (cart. coord. in units of alat)
               a(1) = (  -0.500000   0.000000   0.500000 )  
               a(2) = (   0.000000   0.500000   0.500000 )  
               a(3) = (  -0.500000   0.500000   0.000000 )  

     reciprocal axes: (cart. coord. in units 2 pi/alat)
               b(1) = ( -1.000000 -1.000000  1.000000 )  
               b(2) = (  1.000000  1.000000  1.000000 )  
               b(3) = ( -1.000000  1.000000 -1.000000 )  


     PseudoPot. # 1 for Na read from file:
     /home/s1333534/quantum_espresso/qe-6.1/pseudo/Na_pbe_v1.uspp.F.UPF
     MD5 check sum: 76a99c7e9422403d3e93cbc85ab7bccb
     Pseudo is Ultrasoft, Zval =  9.0
     Generated by new atomic code, or converted to UPF format
     Using radial grid of  819 points,  5 beta functions with: 
                l(1) =   0
                l(2) =   0
                l(3) =   1
                l(4) =   1
                l(5) =   2
     Q(r) pseudized with  8 coefficients,  rinner =    1.250   1.250   1.250
                                                       1.250   1.250

     atomic species   valence    mass     pseudopotential
        Na             9.00    22.99000     Na( 1.00)

     48 Sym. Ops., with inversion, found



   Cartesian axes

     site n.     atom                  positions (alat units)
         1           Na  tau(   1) = (   0.0000000   0.0000000   0.0000000  )

     number of k points=  8400  Marzari-Vanderbilt smearing, width (Ry)=  0.0200

     Number of k-points >= 100: set verbosity='high' to print them.

     Dense  grid:    27317 G-vectors     FFT dimensions: (  45,  45,  45)

     Smooth grid:     9577 G-vectors     FFT dimensions: (  30,  30,  30)

     Estimated max dynamical RAM per process >       0.94MB

     Estimated total allocated dynamical RAM >      60.02MB

     The potential is recalculated from file :
     ./_ph0/na.fcc.save/charge-density.dat

     Starting wfc are    5 atomic +    4 random wfc

     Band Structure Calculation
     Davidson diagonalization with overlap

     ethr =  1.11E-10,  avg # of iterations = 21.1

     total cpu time spent up to now is      765.1 secs

     End of band structure calculation

     Number of k-points >= 100: set verbosity='high' to print the bands.

     the Fermi energy is     1.1469 ev

     Writing output data file na.fcc.save

                                                                                

     bravais-lattice index     =            2
     lattice parameter (alat)  =      10.4000  a.u.
     unit-cell volume          =     281.2160 (a.u.)^3
     number of atoms/cell      =            1
     number of atomic types    =            1
     kinetic-energy cut-off    =      40.0000  Ry
     charge density cut-off    =     320.0000  Ry
     convergence threshold     =      1.0E-16
     beta                      =       0.7000
     number of iterations used =            4
     Exchange-correlation      = SLA  PW   PBE  PBE ( 1  4  3  4 0 0)


     celldm(1)=   10.40000  celldm(2)=    0.00000  celldm(3)=    0.00000
     celldm(4)=    0.00000  celldm(5)=    0.00000  celldm(6)=    0.00000

     crystal axes: (cart. coord. in units of alat)
               a(1) = ( -0.5000  0.0000  0.5000 )  
               a(2) = (  0.0000  0.5000  0.5000 )  
               a(3) = ( -0.5000  0.5000  0.0000 )  

     reciprocal axes: (cart. coord. in units 2 pi/alat)
               b(1) = ( -1.0000 -1.0000  1.0000 )  
               b(2) = (  1.0000  1.0000  1.0000 )  
               b(3) = ( -1.0000  1.0000 -1.0000 )  


     Atoms inside the unit cell: 

     Cartesian axes

     site n.  atom      mass           positions (alat units)
        1     Na  22.9900   tau(    1) = (    0.00000    0.00000    0.00000  )

     Computing dynamical matrix for 
                    q = (   0.0000000   0.3333333   0.0000000 )

      8 Sym.Ops. (no q -> -q+G )


     G cutoff =  876.7119  (   1709 G-vectors)     FFT grid: ( 45, 45, 45)
     G cutoff =  438.3560  (    600 G-vectors)  smooth grid: ( 30, 30, 30)

     number of k points=  8400  Marzari-Vanderbilt smearing, width (Ry)=  0.0200

     PseudoPot. # 1 for Na read from file:
     /home/s1333534/quantum_espresso/qe-6.1/pseudo/Na_pbe_v1.uspp.F.UPF
     MD5 check sum: 76a99c7e9422403d3e93cbc85ab7bccb
     Pseudo is Ultrasoft, Zval =  9.0
     Generated by new atomic code, or converted to UPF format
     Using radial grid of  819 points,  5 beta functions with: 
                l(1) =   0
                l(2) =   0
                l(3) =   1
                l(4) =   1
                l(5) =   2
     Q(r) pseudized with  8 coefficients,  rinner =    1.250   1.250   1.250
                                                       1.250   1.250

     Mode symmetry, C_4v (4mm)  point group:


     Atomic displacements:
     There are   2 irreducible representations

     Representation     1      1 modes -A_1  G_1 D_1  To be done

     Representation     2      2 modes -E    G_5 D_5  To be done



     Alpha used in Ewald sum =   2.8000
     PHONON       : 41m28.11s CPU    44m32.58s WALL



     Representation #  1 mode #   1

     Self-consistent Calculation

      iter #   1 total cpu time :  2691.5 secs   av.it.:   5.6
      thresh= 1.000E-02 alpha_mix =  0.700 |ddv_scf|^2 =  9.115E-03

      iter #   2 total cpu time :  2708.4 secs   av.it.:   6.1
      thresh= 9.547E-03 alpha_mix =  0.700 |ddv_scf|^2 =  8.702E-01

      iter #   3 total cpu time :  2726.1 secs   av.it.:   6.1
      thresh= 1.000E-02 alpha_mix =  0.700 |ddv_scf|^2 =  9.140E-07

      iter #   4 total cpu time :  2747.1 secs   av.it.:   7.6
      thresh= 9.560E-05 alpha_mix =  0.700 |ddv_scf|^2 =  3.189E-08

      iter #   5 total cpu time :  2768.3 secs   av.it.:   7.7
      thresh= 1.786E-05 alpha_mix =  0.700 |ddv_scf|^2 =  1.378E-09

      iter #   6 total cpu time :  2789.0 secs   av.it.:   7.7
      thresh= 3.713E-06 alpha_mix =  0.700 |ddv_scf|^2 =  2.955E-09

      iter #   7 total cpu time :  2804.3 secs   av.it.:   5.2
      thresh= 5.436E-06 alpha_mix =  0.700 |ddv_scf|^2 =  7.985E-10

      iter #   8 total cpu time :  2824.2 secs   av.it.:   7.0
      thresh= 2.826E-06 alpha_mix =  0.700 |ddv_scf|^2 =  2.993E-11

      iter #   9 total cpu time :  2843.1 secs   av.it.:   7.0
      thresh= 5.471E-07 alpha_mix =  0.700 |ddv_scf|^2 =  1.587E-12

      iter #  10 total cpu time :  2861.9 secs   av.it.:   6.9
      thresh= 1.260E-07 alpha_mix =  0.700 |ddv_scf|^2 =  4.307E-14

      iter #  11 total cpu time :  2881.8 secs   av.it.:   7.6
      thresh= 2.075E-08 alpha_mix =  0.700 |ddv_scf|^2 =  2.920E-16

      iter #  12 total cpu time :  2901.6 secs   av.it.:   7.7
      thresh= 1.709E-09 alpha_mix =  0.700 |ddv_scf|^2 =  9.230E-17

     End of self-consistent calculation

     Convergence has been achieved 


     Representation #  2 modes #   2  3

     Self-consistent Calculation

      iter #   1 total cpu time :  2939.2 secs   av.it.:   5.5
      thresh= 1.000E-02 alpha_mix =  0.700 |ddv_scf|^2 =  1.936E-06

      iter #   2 total cpu time :  2983.6 secs   av.it.:   8.5
      thresh= 1.391E-04 alpha_mix =  0.700 |ddv_scf|^2 =  3.257E-08

      iter #   3 total cpu time :  3028.5 secs   av.it.:   8.6
      thresh= 1.805E-05 alpha_mix =  0.700 |ddv_scf|^2 =  1.317E-09

      iter #   4 total cpu time :  3071.4 secs   av.it.:   8.4
      thresh= 3.628E-06 alpha_mix =  0.700 |ddv_scf|^2 =  4.596E-12

      iter #   5 total cpu time :  3115.5 secs   av.it.:   8.7
      thresh= 2.144E-07 alpha_mix =  0.700 |ddv_scf|^2 =  4.864E-15

      iter #   6 total cpu time :  3154.5 secs   av.it.:   7.1
      thresh= 6.974E-09 alpha_mix =  0.700 |ddv_scf|^2 =  2.395E-16

      iter #   7 total cpu time :  3198.6 secs   av.it.:   8.6
      thresh= 1.548E-09 alpha_mix =  0.700 |ddv_scf|^2 =  5.550E-20

     End of self-consistent calculation

     Convergence has been achieved 

     Number of q in the star =    6
     List of q in the star:
          1   0.000000000   0.333333333   0.000000000
          2   0.333333333   0.000000000   0.000000000
          3   0.000000000   0.000000000   0.333333333
          4   0.000000000  -0.333333333   0.000000000
          5  -0.333333333   0.000000000   0.000000000
          6   0.000000000   0.000000000  -0.333333333

     Diagonalizing the dynamical matrix

     q = (    0.000000000   0.333333333   0.000000000 ) 

 **************************************************************************
     freq (    1) =       1.285919 [THz] =      42.893650 [cm-1]
     freq (    2) =       1.285919 [THz] =      42.893650 [cm-1]
     freq (    3) =       1.539853 [THz] =      51.363972 [cm-1]
 **************************************************************************

     Mode symmetry, C_4v (4mm)  point group:

     freq (  1 -  2) =         42.9  [cm-1]   --> E    G_5 D_5       
     freq (  3 -  3) =         51.4  [cm-1]   --> A_1  G_1 D_1       

     Calculation of q =   -0.1666667   0.5000000  -0.1666667

   Info: using nr1, nr2, nr3 values from input

   Info: using nr1, nr2, nr3 values from input

     Parallelization info
     --------------------
     sticks:   dense  smooth     PW     G-vecs:    dense   smooth      PW
     Min          74      37     13                 1706      597     129
     Max          75      38     14                 1709      600     132
     Sum        1189     595    211                27317     9577    2085



     bravais-lattice index     =            2
     lattice parameter (alat)  =      10.4000  a.u.
     unit-cell volume          =     281.2160 (a.u.)^3
     number of atoms/cell      =            1
     number of atomic types    =            1
     number of electrons       =         9.00
     number of Kohn-Sham states=            9
     kinetic-energy cutoff     =      40.0000  Ry
     charge density cutoff     =     320.0000  Ry
     Exchange-correlation      = SLA  PW   PBE  PBE ( 1  4  3  4 0 0)

     celldm(1)=  10.400000  celldm(2)=   0.000000  celldm(3)=   0.000000
     celldm(4)=   0.000000  celldm(5)=   0.000000  celldm(6)=   0.000000

     crystal axes: (cart. coord. in units of alat)
               a(1) = (  -0.500000   0.000000   0.500000 )  
               a(2) = (   0.000000   0.500000   0.500000 )  
               a(3) = (  -0.500000   0.500000   0.000000 )  

     reciprocal axes: (cart. coord. in units 2 pi/alat)
               b(1) = ( -1.000000 -1.000000  1.000000 )  
               b(2) = (  1.000000  1.000000  1.000000 )  
               b(3) = ( -1.000000  1.000000 -1.000000 )  


     PseudoPot. # 1 for Na read from file:
     /home/s1333534/quantum_espresso/qe-6.1/pseudo/Na_pbe_v1.uspp.F.UPF
     MD5 check sum: 76a99c7e9422403d3e93cbc85ab7bccb
     Pseudo is Ultrasoft, Zval =  9.0
     Generated by new atomic code, or converted to UPF format
     Using radial grid of  819 points,  5 beta functions with: 
                l(1) =   0
                l(2) =   0
                l(3) =   1
                l(4) =   1
                l(5) =   2
     Q(r) pseudized with  8 coefficients,  rinner =    1.250   1.250   1.250
                                                       1.250   1.250

     atomic species   valence    mass     pseudopotential
        Na             9.00    22.99000     Na( 1.00)

     48 Sym. Ops., with inversion, found



   Cartesian axes

     site n.     atom                  positions (alat units)
         1           Na  tau(   1) = (   0.0000000   0.0000000   0.0000000  )

     number of k points= 32800  Marzari-Vanderbilt smearing, width (Ry)=  0.0200

     Number of k-points >= 100: set verbosity='high' to print them.

     Dense  grid:    27317 G-vectors     FFT dimensions: (  45,  45,  45)

     Smooth grid:     9577 G-vectors     FFT dimensions: (  30,  30,  30)

     Estimated max dynamical RAM per process >       0.94MB

     Estimated total allocated dynamical RAM >      60.02MB

     The potential is recalculated from file :
     ./_ph0/na.fcc.save/charge-density.dat

     Starting wfc are    5 atomic +    4 random wfc

     Band Structure Calculation
     Davidson diagonalization with overlap

     ethr =  1.11E-10,  avg # of iterations = 21.0

     total cpu time spent up to now is     1382.8 secs

     End of band structure calculation

     Number of k-points >= 100: set verbosity='high' to print the bands.

     the Fermi energy is     1.1469 ev

     Writing output data file na.fcc.save

                                                                                

     bravais-lattice index     =            2
     lattice parameter (alat)  =      10.4000  a.u.
     unit-cell volume          =     281.2160 (a.u.)^3
     number of atoms/cell      =            1
     number of atomic types    =            1
     kinetic-energy cut-off    =      40.0000  Ry
     charge density cut-off    =     320.0000  Ry
     convergence threshold     =      1.0E-16
     beta                      =       0.7000
     number of iterations used =            4
     Exchange-correlation      = SLA  PW   PBE  PBE ( 1  4  3  4 0 0)


     celldm(1)=   10.40000  celldm(2)=    0.00000  celldm(3)=    0.00000
     celldm(4)=    0.00000  celldm(5)=    0.00000  celldm(6)=    0.00000

     crystal axes: (cart. coord. in units of alat)
               a(1) = ( -0.5000  0.0000  0.5000 )  
               a(2) = (  0.0000  0.5000  0.5000 )  
               a(3) = ( -0.5000  0.5000  0.0000 )  

     reciprocal axes: (cart. coord. in units 2 pi/alat)
               b(1) = ( -1.0000 -1.0000  1.0000 )  
               b(2) = (  1.0000  1.0000  1.0000 )  
               b(3) = ( -1.0000  1.0000 -1.0000 )  


     Atoms inside the unit cell: 

     Cartesian axes

     site n.  atom      mass           positions (alat units)
        1     Na  22.9900   tau(    1) = (    0.00000    0.00000    0.00000  )

     Computing dynamical matrix for 
                    q = (  -0.1666667   0.5000000  -0.1666667 )

      2 Sym.Ops. (no q -> -q+G )


     G cutoff =  876.7119  (   1709 G-vectors)     FFT grid: ( 45, 45, 45)
     G cutoff =  438.3560  (    600 G-vectors)  smooth grid: ( 30, 30, 30)

     number of k points= 32800  Marzari-Vanderbilt smearing, width (Ry)=  0.0200

     PseudoPot. # 1 for Na read from file:
     /home/s1333534/quantum_espresso/qe-6.1/pseudo/Na_pbe_v1.uspp.F.UPF
     MD5 check sum: 76a99c7e9422403d3e93cbc85ab7bccb
     Pseudo is Ultrasoft, Zval =  9.0
     Generated by new atomic code, or converted to UPF format
     Using radial grid of  819 points,  5 beta functions with: 
                l(1) =   0
                l(2) =   0
                l(3) =   1
                l(4) =   1
                l(5) =   2
     Q(r) pseudized with  8 coefficients,  rinner =    1.250   1.250   1.250
                                                       1.250   1.250

     Mode symmetry, C_s (m)     point group:


     Atomic displacements:
     There are   3 irreducible representations

     Representation     1      1 modes -A'  To be done

     Representation     2      1 modes -A'  To be done

     Representation     3      1 modes -A''  To be done



     Alpha used in Ewald sum =   2.8000
     PHONON       :     1h 1m CPU        1h 5m WALL



     Representation #  1 mode #   1

     Self-consistent Calculation

      iter #   1 total cpu time :  4000.3 secs   av.it.:   5.8
      thresh= 1.000E-02 alpha_mix =  0.700 |ddv_scf|^2 =  3.996E-04

      iter #   2 total cpu time :  4076.5 secs   av.it.:   7.0
      thresh= 1.999E-03 alpha_mix =  0.700 |ddv_scf|^2 =  3.573E-03

      iter #   3 total cpu time :  4143.1 secs   av.it.:   5.6
      thresh= 5.978E-03 alpha_mix =  0.700 |ddv_scf|^2 =  4.095E-07

      iter #   4 total cpu time :  4228.4 secs   av.it.:   8.1
      thresh= 6.399E-05 alpha_mix =  0.700 |ddv_scf|^2 =  4.603E-09

      iter #   5 total cpu time :  4314.4 secs   av.it.:   8.4
      thresh= 6.784E-06 alpha_mix =  0.700 |ddv_scf|^2 =  3.638E-10

      iter #   6 total cpu time :  4401.7 secs   av.it.:   8.4
      thresh= 1.907E-06 alpha_mix =  0.700 |ddv_scf|^2 =  1.927E-11

      iter #   7 total cpu time :  4487.5 secs   av.it.:   8.2
      thresh= 4.390E-07 alpha_mix =  0.700 |ddv_scf|^2 =  2.513E-11

      iter #   8 total cpu time :  4563.9 secs   av.it.:   6.9
      thresh= 5.013E-07 alpha_mix =  0.700 |ddv_scf|^2 =  5.615E-12

      iter #   9 total cpu time :  4640.8 secs   av.it.:   7.1
      thresh= 2.370E-07 alpha_mix =  0.700 |ddv_scf|^2 =  1.610E-12

      iter #  10 total cpu time :  4715.2 secs   av.it.:   6.8
      thresh= 1.269E-07 alpha_mix =  0.700 |ddv_scf|^2 =  6.600E-15

      iter #  11 total cpu time :  4802.0 secs   av.it.:   8.5
      thresh= 8.124E-09 alpha_mix =  0.700 |ddv_scf|^2 =  3.524E-16

      iter #  12 total cpu time :  4884.1 secs   av.it.:   7.9
      thresh= 1.877E-09 alpha_mix =  0.700 |ddv_scf|^2 =  1.875E-17

     End of self-consistent calculation

     Convergence has been achieved 


     Representation #  2 mode #   2

     Self-consistent Calculation

      iter #   1 total cpu time :  4963.6 secs   av.it.:   5.7
      thresh= 1.000E-02 alpha_mix =  0.700 |ddv_scf|^2 =  6.776E-05

      iter #   2 total cpu time :  5043.9 secs   av.it.:   7.5
      thresh= 8.232E-04 alpha_mix =  0.700 |ddv_scf|^2 =  5.374E-04

      iter #   3 total cpu time :  5109.3 secs   av.it.:   5.6
      thresh= 2.318E-03 alpha_mix =  0.700 |ddv_scf|^2 =  1.874E-07

      iter #   4 total cpu time :  5195.0 secs   av.it.:   8.3
      thresh= 4.328E-05 alpha_mix =  0.700 |ddv_scf|^2 =  5.320E-09

      iter #   5 total cpu time :  5279.9 secs   av.it.:   8.3
      thresh= 7.294E-06 alpha_mix =  0.700 |ddv_scf|^2 =  1.574E-10

      iter #   6 total cpu time :  5364.9 secs   av.it.:   8.4
      thresh= 1.255E-06 alpha_mix =  0.700 |ddv_scf|^2 =  1.177E-11

      iter #   7 total cpu time :  5450.9 secs   av.it.:   8.4
      thresh= 3.431E-07 alpha_mix =  0.700 |ddv_scf|^2 =  2.376E-12

      iter #   8 total cpu time :  5530.0 secs   av.it.:   7.4
      thresh= 1.542E-07 alpha_mix =  0.700 |ddv_scf|^2 =  7.454E-12

      iter #   9 total cpu time :  5601.9 secs   av.it.:   6.6
      thresh= 2.730E-07 alpha_mix =  0.700 |ddv_scf|^2 =  1.169E-14

      iter #  10 total cpu time :  5685.8 secs   av.it.:   7.7
      thresh= 1.081E-08 alpha_mix =  0.700 |ddv_scf|^2 =  4.099E-15

      iter #  11 total cpu time :  5761.1 secs   av.it.:   7.0
      thresh= 6.402E-09 alpha_mix =  0.700 |ddv_scf|^2 =  1.382E-15

      iter #  12 total cpu time :  5840.2 secs   av.it.:   7.3
      thresh= 3.718E-09 alpha_mix =  0.700 |ddv_scf|^2 =  3.499E-18

     End of self-consistent calculation

     Convergence has been achieved 


     Representation #  3 mode #   3

     Self-consistent Calculation

      iter #   1 total cpu time :  5919.9 secs   av.it.:   5.5
      thresh= 1.000E-02 alpha_mix =  0.700 |ddv_scf|^2 =  8.167E-06

      iter #   2 total cpu time :  6003.2 secs   av.it.:   7.8
      thresh= 2.858E-04 alpha_mix =  0.700 |ddv_scf|^2 =  1.276E-07

      iter #   3 total cpu time :  6088.4 secs   av.it.:   8.1
      thresh= 3.573E-05 alpha_mix =  0.700 |ddv_scf|^2 =  6.950E-09

      iter #   4 total cpu time :  6169.8 secs   av.it.:   7.7
      thresh= 8.337E-06 alpha_mix =  0.700 |ddv_scf|^2 =  2.460E-11

      iter #   5 total cpu time :  6253.7 secs   av.it.:   8.0
      thresh= 4.960E-07 alpha_mix =  0.700 |ddv_scf|^2 =  2.109E-14

      iter #   6 total cpu time :  6330.7 secs   av.it.:   7.1
      thresh= 1.452E-08 alpha_mix =  0.700 |ddv_scf|^2 =  1.308E-15

      iter #   7 total cpu time :  6413.6 secs   av.it.:   7.9
      thresh= 3.617E-09 alpha_mix =  0.700 |ddv_scf|^2 =  1.244E-18

     End of self-consistent calculation

     Convergence has been achieved 

     Number of q in the star =   24
     List of q in the star:
          1  -0.166666667   0.500000000  -0.166666667
          2   0.166666667   0.500000000   0.166666667
          3  -0.166666667   0.500000000   0.166666667
          4   0.166666667   0.500000000  -0.166666667
          5   0.500000000  -0.166666667   0.166666667
          6   0.166666667  -0.166666667   0.500000000
          7  -0.166666667  -0.500000000  -0.166666667
          8   0.166666667  -0.500000000  -0.166666667
          9  -0.166666667  -0.500000000   0.166666667
         10   0.500000000  -0.166666667  -0.166666667
         11  -0.500000000  -0.166666667   0.166666667
         12   0.500000000   0.166666667   0.166666667
         13  -0.166666667   0.166666667  -0.500000000
         14  -0.166666667  -0.166666667   0.500000000
         15   0.166666667   0.166666667   0.500000000
         16   0.166666667  -0.166666667  -0.500000000
         17  -0.500000000   0.166666667  -0.166666667
         18  -0.500000000  -0.166666667  -0.166666667
         19   0.166666667  -0.500000000   0.166666667
         20   0.500000000   0.166666667  -0.166666667
         21   0.166666667   0.166666667  -0.500000000
         22  -0.166666667  -0.166666667  -0.500000000
         23  -0.500000000   0.166666667   0.166666667
         24  -0.166666667   0.166666667   0.500000000

     Diagonalizing the dynamical matrix

     q = (   -0.166666667   0.500000000  -0.166666667 ) 

 **************************************************************************
     freq (    1) =       1.623255 [THz] =      54.145956 [cm-1]
     freq (    2) =       1.742309 [THz] =      58.117157 [cm-1]
     freq (    3) =       2.597063 [THz] =      86.628680 [cm-1]
 **************************************************************************

     Mode symmetry, C_s (m)     point group:

     freq (  1 -  1) =         54.1  [cm-1]   --> A'                 
     freq (  2 -  2) =         58.1  [cm-1]   --> A''                
     freq (  3 -  3) =         86.6  [cm-1]   --> A'                 

     Calculation of q =    0.6666667  -0.3333333   0.6666667

   Info: using nr1, nr2, nr3 values from input

   Info: using nr1, nr2, nr3 values from input

     Parallelization info
     --------------------
     sticks:   dense  smooth     PW     G-vecs:    dense   smooth      PW
     Min          74      37     14                 1706      597     142
     Max          75      38     16                 1709      600     143
     Sum        1189     595    235                27317     9577    2277



     bravais-lattice index     =            2
     lattice parameter (alat)  =      10.4000  a.u.
     unit-cell volume          =     281.2160 (a.u.)^3
     number of atoms/cell      =            1
     number of atomic types    =            1
     number of electrons       =         9.00
     number of Kohn-Sham states=            9
     kinetic-energy cutoff     =      40.0000  Ry
     charge density cutoff     =     320.0000  Ry
     Exchange-correlation      = SLA  PW   PBE  PBE ( 1  4  3  4 0 0)

     celldm(1)=  10.400000  celldm(2)=   0.000000  celldm(3)=   0.000000
     celldm(4)=   0.000000  celldm(5)=   0.000000  celldm(6)=   0.000000

     crystal axes: (cart. coord. in units of alat)
               a(1) = (  -0.500000   0.000000   0.500000 )  
               a(2) = (   0.000000   0.500000   0.500000 )  
               a(3) = (  -0.500000   0.500000   0.000000 )  

     reciprocal axes: (cart. coord. in units 2 pi/alat)
               b(1) = ( -1.000000 -1.000000  1.000000 )  
               b(2) = (  1.000000  1.000000  1.000000 )  
               b(3) = ( -1.000000  1.000000 -1.000000 )  


     PseudoPot. # 1 for Na read from file:
     /home/s1333534/quantum_espresso/qe-6.1/pseudo/Na_pbe_v1.uspp.F.UPF
     MD5 check sum: 76a99c7e9422403d3e93cbc85ab7bccb
     Pseudo is Ultrasoft, Zval =  9.0
     Generated by new atomic code, or converted to UPF format
     Using radial grid of  819 points,  5 beta functions with: 
                l(1) =   0
                l(2) =   0
                l(3) =   1
                l(4) =   1
                l(5) =   2
     Q(r) pseudized with  8 coefficients,  rinner =    1.250   1.250   1.250
                                                       1.250   1.250

     atomic species   valence    mass     pseudopotential
        Na             9.00    22.99000     Na( 1.00)

     48 Sym. Ops., with inversion, found



   Cartesian axes

     site n.     atom                  positions (alat units)
         1           Na  tau(   1) = (   0.0000000   0.0000000   0.0000000  )

     number of k points= 32800  Marzari-Vanderbilt smearing, width (Ry)=  0.0200

     Number of k-points >= 100: set verbosity='high' to print them.

     Dense  grid:    27317 G-vectors     FFT dimensions: (  45,  45,  45)

     Smooth grid:     9577 G-vectors     FFT dimensions: (  30,  30,  30)

     Estimated max dynamical RAM per process >       0.94MB

     Estimated total allocated dynamical RAM >      60.02MB

     The potential is recalculated from file :
     ./_ph0/na.fcc.save/charge-density.dat

     Starting wfc are    5 atomic +    4 random wfc

     Band Structure Calculation
     Davidson diagonalization with overlap

     ethr =  1.11E-10,  avg # of iterations = 21.0

     total cpu time spent up to now is     2100.4 secs

     End of band structure calculation

     Number of k-points >= 100: set verbosity='high' to print the bands.

     the Fermi energy is     1.1469 ev

     Writing output data file na.fcc.save

                                                                                

     bravais-lattice index     =            2
     lattice parameter (alat)  =      10.4000  a.u.
     unit-cell volume          =     281.2160 (a.u.)^3
     number of atoms/cell      =            1
     number of atomic types    =            1
     kinetic-energy cut-off    =      40.0000  Ry
     charge density cut-off    =     320.0000  Ry
     convergence threshold     =      1.0E-16
     beta                      =       0.7000
     number of iterations used =            4
     Exchange-correlation      = SLA  PW   PBE  PBE ( 1  4  3  4 0 0)


     celldm(1)=   10.40000  celldm(2)=    0.00000  celldm(3)=    0.00000
     celldm(4)=    0.00000  celldm(5)=    0.00000  celldm(6)=    0.00000

     crystal axes: (cart. coord. in units of alat)
               a(1) = ( -0.5000  0.0000  0.5000 )  
               a(2) = (  0.0000  0.5000  0.5000 )  
               a(3) = ( -0.5000  0.5000  0.0000 )  

     reciprocal axes: (cart. coord. in units 2 pi/alat)
               b(1) = ( -1.0000 -1.0000  1.0000 )  
               b(2) = (  1.0000  1.0000  1.0000 )  
               b(3) = ( -1.0000  1.0000 -1.0000 )  


     Atoms inside the unit cell: 

     Cartesian axes

     site n.  atom      mass           positions (alat units)
        1     Na  22.9900   tau(    1) = (    0.00000    0.00000    0.00000  )

     Computing dynamical matrix for 
                    q = (   0.6666667  -0.3333333   0.6666667 )

      2 Sym.Ops. (no q -> -q+G )


     G cutoff =  876.7119  (   1709 G-vectors)     FFT grid: ( 45, 45, 45)
     G cutoff =  438.3560  (    600 G-vectors)  smooth grid: ( 30, 30, 30)

     number of k points= 32800  Marzari-Vanderbilt smearing, width (Ry)=  0.0200

     PseudoPot. # 1 for Na read from file:
     /home/s1333534/quantum_espresso/qe-6.1/pseudo/Na_pbe_v1.uspp.F.UPF
     MD5 check sum: 76a99c7e9422403d3e93cbc85ab7bccb
     Pseudo is Ultrasoft, Zval =  9.0
     Generated by new atomic code, or converted to UPF format
     Using radial grid of  819 points,  5 beta functions with: 
                l(1) =   0
                l(2) =   0
                l(3) =   1
                l(4) =   1
                l(5) =   2
     Q(r) pseudized with  8 coefficients,  rinner =    1.250   1.250   1.250
                                                       1.250   1.250

     Mode symmetry, C_s (m)     point group:


     Atomic displacements:
     There are   3 irreducible representations

     Representation     1      1 modes -A'  To be done

     Representation     2      1 modes -A'  To be done

     Representation     3      1 modes -A''  To be done



     Alpha used in Ewald sum =   2.8000
     PHONON       :     1h51m CPU        1h59m WALL



     Representation #  1 mode #   1

     Self-consistent Calculation

      iter #   1 total cpu time :  7238.4 secs   av.it.:   5.8
      thresh= 1.000E-02 alpha_mix =  0.700 |ddv_scf|^2 =  4.870E-05

      iter #   2 total cpu time :  7322.9 secs   av.it.:   7.7
      thresh= 6.978E-04 alpha_mix =  0.700 |ddv_scf|^2 =  3.763E-05

      iter #   3 total cpu time :  7403.3 secs   av.it.:   7.0
      thresh= 6.135E-04 alpha_mix =  0.700 |ddv_scf|^2 =  1.117E-07

      iter #   4 total cpu time :  7493.9 secs   av.it.:   8.3
      thresh= 3.343E-05 alpha_mix =  0.700 |ddv_scf|^2 =  8.779E-09

      iter #   5 total cpu time :  7582.2 secs   av.it.:   8.2
      thresh= 9.369E-06 alpha_mix =  0.700 |ddv_scf|^2 =  4.465E-10

      iter #   6 total cpu time :  7669.1 secs   av.it.:   8.0
      thresh= 2.113E-06 alpha_mix =  0.700 |ddv_scf|^2 =  5.307E-12

      iter #   7 total cpu time :  7758.9 secs   av.it.:   8.4
      thresh= 2.304E-07 alpha_mix =  0.700 |ddv_scf|^2 =  2.508E-13

      iter #   8 total cpu time :  7852.6 secs   av.it.:   8.6
      thresh= 5.008E-08 alpha_mix =  0.700 |ddv_scf|^2 =  2.153E-14

      iter #   9 total cpu time :  7941.9 secs   av.it.:   8.4
      thresh= 1.467E-08 alpha_mix =  0.700 |ddv_scf|^2 =  9.778E-16

      iter #  10 total cpu time :  8024.9 secs   av.it.:   7.5
      thresh= 3.127E-09 alpha_mix =  0.700 |ddv_scf|^2 =  1.052E-16

      iter #  11 total cpu time :  8109.3 secs   av.it.:   7.8
      thresh= 1.026E-09 alpha_mix =  0.700 |ddv_scf|^2 =  1.721E-18

     End of self-consistent calculation

     Convergence has been achieved 


     Representation #  2 mode #   2

     Self-consistent Calculation

      iter #   1 total cpu time :  8191.1 secs   av.it.:   5.7
      thresh= 1.000E-02 alpha_mix =  0.700 |ddv_scf|^2 =  2.548E-05

      iter #   2 total cpu time :  8278.6 secs   av.it.:   7.9
      thresh= 5.048E-04 alpha_mix =  0.700 |ddv_scf|^2 =  1.135E-05

      iter #   3 total cpu time :  8361.1 secs   av.it.:   7.3
      thresh= 3.369E-04 alpha_mix =  0.700 |ddv_scf|^2 =  3.870E-07

      iter #   4 total cpu time :  8447.2 secs   av.it.:   7.6
      thresh= 6.221E-05 alpha_mix =  0.700 |ddv_scf|^2 =  1.443E-08

      iter #   5 total cpu time :  8536.8 secs   av.it.:   8.2
      thresh= 1.201E-05 alpha_mix =  0.700 |ddv_scf|^2 =  3.818E-10

      iter #   6 total cpu time :  8626.9 secs   av.it.:   8.2
      thresh= 1.954E-06 alpha_mix =  0.700 |ddv_scf|^2 =  1.077E-11

      iter #   7 total cpu time :  8718.6 secs   av.it.:   8.6
      thresh= 3.282E-07 alpha_mix =  0.700 |ddv_scf|^2 =  7.627E-13

      iter #   8 total cpu time :  8811.3 secs   av.it.:   8.7
      thresh= 8.733E-08 alpha_mix =  0.700 |ddv_scf|^2 =  2.625E-14

      iter #   9 total cpu time :  8902.3 secs   av.it.:   8.4
      thresh= 1.620E-08 alpha_mix =  0.700 |ddv_scf|^2 =  4.652E-15

      iter #  10 total cpu time :  8987.4 secs   av.it.:   7.8
      thresh= 6.821E-09 alpha_mix =  0.700 |ddv_scf|^2 =  1.415E-16

      iter #  11 total cpu time :  9076.7 secs   av.it.:   8.2
      thresh= 1.189E-09 alpha_mix =  0.700 |ddv_scf|^2 =  6.606E-18

     End of self-consistent calculation

     Convergence has been achieved 


     Representation #  3 mode #   3

     Self-consistent Calculation

      iter #   1 total cpu time :  9158.6 secs   av.it.:   5.5
      thresh= 1.000E-02 alpha_mix =  0.700 |ddv_scf|^2 =  8.155E-06

      iter #   2 total cpu time :  9244.9 secs   av.it.:   7.8
      thresh= 2.856E-04 alpha_mix =  0.700 |ddv_scf|^2 =  1.283E-07

      iter #   3 total cpu time :  9334.4 secs   av.it.:   8.0
      thresh= 3.582E-05 alpha_mix =  0.700 |ddv_scf|^2 =  6.839E-09

      iter #   4 total cpu time :  9419.9 secs   av.it.:   7.7
      thresh= 8.270E-06 alpha_mix =  0.700 |ddv_scf|^2 =  2.487E-11

      iter #   5 total cpu time :  9508.1 secs   av.it.:   8.0
      thresh= 4.987E-07 alpha_mix =  0.700 |ddv_scf|^2 =  2.290E-14

      iter #   6 total cpu time :  9591.1 secs   av.it.:   7.2
      thresh= 1.513E-08 alpha_mix =  0.700 |ddv_scf|^2 =  1.431E-15

      iter #   7 total cpu time :  9676.2 secs   av.it.:   7.8
      thresh= 3.783E-09 alpha_mix =  0.700 |ddv_scf|^2 =  1.717E-18

     End of self-consistent calculation

     Convergence has been achieved 

     Number of q in the star =   24
     List of q in the star:
          1   0.666666667  -0.333333333   0.666666667
          2  -0.666666667  -0.333333333  -0.666666667
          3   0.666666667  -0.333333333  -0.666666667
          4  -0.666666667  -0.333333333   0.666666667
          5  -0.333333333   0.666666667  -0.666666667
          6  -0.666666667   0.666666667  -0.333333333
          7   0.666666667   0.333333333   0.666666667
          8  -0.666666667   0.333333333   0.666666667
          9   0.666666667   0.333333333  -0.666666667
         10  -0.333333333   0.666666667   0.666666667
         11   0.333333333   0.666666667  -0.666666667
         12  -0.333333333  -0.666666667  -0.666666667
         13   0.666666667  -0.666666667   0.333333333
         14   0.666666667   0.666666667  -0.333333333
         15  -0.666666667  -0.666666667  -0.333333333
         16  -0.666666667   0.666666667   0.333333333
         17   0.333333333  -0.666666667   0.666666667
         18   0.333333333   0.666666667   0.666666667
         19  -0.666666667   0.333333333  -0.666666667
         20  -0.333333333  -0.666666667   0.666666667
         21  -0.666666667  -0.666666667   0.333333333
         22   0.666666667   0.666666667   0.333333333
         23   0.333333333  -0.666666667  -0.666666667
         24   0.666666667  -0.666666667  -0.333333333

     Diagonalizing the dynamical matrix

     q = (    0.666666667  -0.333333333   0.666666667 ) 

 **************************************************************************
     freq (    1) =       1.864301 [THz] =      62.186394 [cm-1]
     freq (    2) =       2.053768 [THz] =      68.506339 [cm-1]
     freq (    3) =       3.146136 [THz] =     104.943805 [cm-1]
 **************************************************************************

     Mode symmetry, C_s (m)     point group:

     freq (  1 -  1) =         62.2  [cm-1]   --> A''                
     freq (  2 -  2) =         68.5  [cm-1]   --> A'                 
     freq (  3 -  3) =        104.9  [cm-1]   --> A'                 

     Calculation of q =    0.5000000  -0.1666667   0.5000000

   Info: using nr1, nr2, nr3 values from input

   Info: using nr1, nr2, nr3 values from input

     Parallelization info
     --------------------
     sticks:   dense  smooth     PW     G-vecs:    dense   smooth      PW
     Min          74      37     13                 1706      597     130
     Max          75      38     14                 1709      600     133
     Sum        1189     595    211                27317     9577    2109



     bravais-lattice index     =            2
     lattice parameter (alat)  =      10.4000  a.u.
     unit-cell volume          =     281.2160 (a.u.)^3
     number of atoms/cell      =            1
     number of atomic types    =            1
     number of electrons       =         9.00
     number of Kohn-Sham states=            9
     kinetic-energy cutoff     =      40.0000  Ry
     charge density cutoff     =     320.0000  Ry
     Exchange-correlation      = SLA  PW   PBE  PBE ( 1  4  3  4 0 0)

     celldm(1)=  10.400000  celldm(2)=   0.000000  celldm(3)=   0.000000
     celldm(4)=   0.000000  celldm(5)=   0.000000  celldm(6)=   0.000000

     crystal axes: (cart. coord. in units of alat)
               a(1) = (  -0.500000   0.000000   0.500000 )  
               a(2) = (   0.000000   0.500000   0.500000 )  
               a(3) = (  -0.500000   0.500000   0.000000 )  

     reciprocal axes: (cart. coord. in units 2 pi/alat)
               b(1) = ( -1.000000 -1.000000  1.000000 )  
               b(2) = (  1.000000  1.000000  1.000000 )  
               b(3) = ( -1.000000  1.000000 -1.000000 )  


     PseudoPot. # 1 for Na read from file:
     /home/s1333534/quantum_espresso/qe-6.1/pseudo/Na_pbe_v1.uspp.F.UPF
     MD5 check sum: 76a99c7e9422403d3e93cbc85ab7bccb
     Pseudo is Ultrasoft, Zval =  9.0
     Generated by new atomic code, or converted to UPF format
     Using radial grid of  819 points,  5 beta functions with: 
                l(1) =   0
                l(2) =   0
                l(3) =   1
                l(4) =   1
                l(5) =   2
     Q(r) pseudized with  8 coefficients,  rinner =    1.250   1.250   1.250
                                                       1.250   1.250

     atomic species   valence    mass     pseudopotential
        Na             9.00    22.99000     Na( 1.00)

     48 Sym. Ops., with inversion, found



   Cartesian axes

     site n.     atom                  positions (alat units)
         1           Na  tau(   1) = (   0.0000000   0.0000000   0.0000000  )

     number of k points= 32800  Marzari-Vanderbilt smearing, width (Ry)=  0.0200

     Number of k-points >= 100: set verbosity='high' to print them.

     Dense  grid:    27317 G-vectors     FFT dimensions: (  45,  45,  45)

     Smooth grid:     9577 G-vectors     FFT dimensions: (  30,  30,  30)

     Estimated max dynamical RAM per process >       0.94MB

     Estimated total allocated dynamical RAM >      60.02MB

     The potential is recalculated from file :
     ./_ph0/na.fcc.save/charge-density.dat

     Starting wfc are    5 atomic +    4 random wfc

     Band Structure Calculation
     Davidson diagonalization with overlap

     ethr =  1.11E-10,  avg # of iterations = 21.0

     total cpu time spent up to now is     2807.4 secs

     End of band structure calculation

     Number of k-points >= 100: set verbosity='high' to print the bands.

     the Fermi energy is     1.1469 ev

     Writing output data file na.fcc.save

                                                                                

     bravais-lattice index     =            2
     lattice parameter (alat)  =      10.4000  a.u.
     unit-cell volume          =     281.2160 (a.u.)^3
     number of atoms/cell      =            1
     number of atomic types    =            1
     kinetic-energy cut-off    =      40.0000  Ry
     charge density cut-off    =     320.0000  Ry
     convergence threshold     =      1.0E-16
     beta                      =       0.7000
     number of iterations used =            4
     Exchange-correlation      = SLA  PW   PBE  PBE ( 1  4  3  4 0 0)


     celldm(1)=   10.40000  celldm(2)=    0.00000  celldm(3)=    0.00000
     celldm(4)=    0.00000  celldm(5)=    0.00000  celldm(6)=    0.00000

     crystal axes: (cart. coord. in units of alat)
               a(1) = ( -0.5000  0.0000  0.5000 )  
               a(2) = (  0.0000  0.5000  0.5000 )  
               a(3) = ( -0.5000  0.5000  0.0000 )  

     reciprocal axes: (cart. coord. in units 2 pi/alat)
               b(1) = ( -1.0000 -1.0000  1.0000 )  
               b(2) = (  1.0000  1.0000  1.0000 )  
               b(3) = ( -1.0000  1.0000 -1.0000 )  


     Atoms inside the unit cell: 

     Cartesian axes

     site n.  atom      mass           positions (alat units)
        1     Na  22.9900   tau(    1) = (    0.00000    0.00000    0.00000  )

     Computing dynamical matrix for 
                    q = (   0.5000000  -0.1666667   0.5000000 )

      2 Sym.Ops. (no q -> -q+G )


     G cutoff =  876.7119  (   1709 G-vectors)     FFT grid: ( 45, 45, 45)
     G cutoff =  438.3560  (    600 G-vectors)  smooth grid: ( 30, 30, 30)

     number of k points= 32800  Marzari-Vanderbilt smearing, width (Ry)=  0.0200

     PseudoPot. # 1 for Na read from file:
     /home/s1333534/quantum_espresso/qe-6.1/pseudo/Na_pbe_v1.uspp.F.UPF
     MD5 check sum: 76a99c7e9422403d3e93cbc85ab7bccb
     Pseudo is Ultrasoft, Zval =  9.0
     Generated by new atomic code, or converted to UPF format
     Using radial grid of  819 points,  5 beta functions with: 
                l(1) =   0
                l(2) =   0
                l(3) =   1
                l(4) =   1
                l(5) =   2
     Q(r) pseudized with  8 coefficients,  rinner =    1.250   1.250   1.250
                                                       1.250   1.250

     Mode symmetry, C_s (m)     point group:


     Atomic displacements:
     There are   3 irreducible representations

     Representation     1      1 modes -A'  To be done

     Representation     2      1 modes -A'  To be done

     Representation     3      1 modes -A''  To be done



     Alpha used in Ewald sum =   2.8000
     PHONON       :     2h41m CPU        2h53m WALL



     Representation #  1 mode #   1

     Self-consistent Calculation

      iter #   1 total cpu time : 10494.9 secs   av.it.:   5.8
      thresh= 1.000E-02 alpha_mix =  0.700 |ddv_scf|^2 =  3.841E-05

      iter #   2 total cpu time : 10578.7 secs   av.it.:   7.8
[...]

      iter #   4 total cpu time : 25285.2 secs   av.it.:   8.3
      thresh= 1.608E-05 alpha_mix =  0.700 |ddv_scf|^2 =  9.778E-10

      iter #   5 total cpu time : 25369.0 secs   av.it.:   7.8
      thresh= 3.127E-06 alpha_mix =  0.700 |ddv_scf|^2 =  2.618E-11

      iter #   6 total cpu time : 25450.8 secs   av.it.:   7.5
      thresh= 5.117E-07 alpha_mix =  0.700 |ddv_scf|^2 =  5.182E-14

      iter #   7 total cpu time : 25536.1 secs   av.it.:   8.0
      thresh= 2.276E-08 alpha_mix =  0.700 |ddv_scf|^2 =  3.935E-15

      iter #   8 total cpu time : 25621.3 secs   av.it.:   8.0
      thresh= 6.273E-09 alpha_mix =  0.700 |ddv_scf|^2 =  1.140E-17

     End of self-consistent calculation

     Convergence has been achieved 

     Number of q in the star =   24
     List of q in the star:
          1   0.500000000  -0.166666667   0.833333333
          2   0.833333333   0.166666667   0.500000000
          3   0.500000000   0.166666667   0.833333333
          4  -0.833333333  -0.166666667   0.500000000
          5  -0.833333333  -0.166666667  -0.500000000
          6  -0.500000000  -0.166666667  -0.833333333
          7   0.833333333  -0.166666667   0.500000000
          8  -0.500000000  -0.166666667   0.833333333
          9  -0.833333333   0.166666667   0.500000000
         10   0.833333333   0.166666667  -0.500000000
         11   0.833333333  -0.166666667  -0.500000000
         12   0.500000000   0.166666667  -0.833333333
         13  -0.500000000   0.166666667   0.833333333
         14  -0.500000000   0.166666667  -0.833333333
         15  -0.833333333   0.166666667  -0.500000000
         16   0.833333333  -0.500000000   0.166666667
         17   0.833333333   0.500000000  -0.166666667
         18  -0.833333333  -0.500000000  -0.166666667
         19  -0.833333333   0.500000000   0.166666667
         20   0.166666667  -0.500000000   0.833333333
         21  -0.166666667   0.500000000   0.833333333
         22   0.166666667   0.500000000  -0.833333333
         23  -0.166666667  -0.500000000  -0.833333333
         24  -0.500000000   0.833333333   0.166666667

     Diagonalizing the dynamical matrix

     q = (    0.500000000  -0.166666667   0.833333333 ) 

 **************************************************************************
     freq (    1) =       2.075515 [THz] =      69.231740 [cm-1]
     freq (    2) =       2.669809 [THz] =      89.055257 [cm-1]
     freq (    3) =       3.056395 [THz] =     101.950373 [cm-1]
 **************************************************************************

     Mode symmetry, C_2  (2)    point group:

     freq (  1 -  1) =         69.2  [cm-1]   --> B                  
     freq (  2 -  2) =         89.1  [cm-1]   --> A                  
     freq (  3 -  3) =        102.0  [cm-1]   --> B                  

     Calculation of q =   -0.3333333  -1.0000000   0.0000000

   Info: using nr1, nr2, nr3 values from input

   Info: using nr1, nr2, nr3 values from input

     Parallelization info
     --------------------
     sticks:   dense  smooth     PW     G-vecs:    dense   smooth      PW
     Min          74      37     14                 1706      597     142
     Max          75      38     16                 1709      600     143
     Sum        1189     595    235                27317     9577    2277



     bravais-lattice index     =            2
     lattice parameter (alat)  =      10.4000  a.u.
     unit-cell volume          =     281.2160 (a.u.)^3
     number of atoms/cell      =            1
     number of atomic types    =            1
     number of electrons       =         9.00
     number of Kohn-Sham states=            9
     kinetic-energy cutoff     =      40.0000  Ry
     charge density cutoff     =     320.0000  Ry
     Exchange-correlation      = SLA  PW   PBE  PBE ( 1  4  3  4 0 0)

     celldm(1)=  10.400000  celldm(2)=   0.000000  celldm(3)=   0.000000
     celldm(4)=   0.000000  celldm(5)=   0.000000  celldm(6)=   0.000000

     crystal axes: (cart. coord. in units of alat)
               a(1) = (  -0.500000   0.000000   0.500000 )  
               a(2) = (   0.000000   0.500000   0.500000 )  
               a(3) = (  -0.500000   0.500000   0.000000 )  

     reciprocal axes: (cart. coord. in units 2 pi/alat)
               b(1) = ( -1.000000 -1.000000  1.000000 )  
               b(2) = (  1.000000  1.000000  1.000000 )  
               b(3) = ( -1.000000  1.000000 -1.000000 )  


     PseudoPot. # 1 for Na read from file:
     /home/s1333534/quantum_espresso/qe-6.1/pseudo/Na_pbe_v1.uspp.F.UPF
     MD5 check sum: 76a99c7e9422403d3e93cbc85ab7bccb
     Pseudo is Ultrasoft, Zval =  9.0
     Generated by new atomic code, or converted to UPF format
     Using radial grid of  819 points,  5 beta functions with: 
                l(1) =   0
                l(2) =   0
                l(3) =   1
                l(4) =   1
                l(5) =   2
     Q(r) pseudized with  8 coefficients,  rinner =    1.250   1.250   1.250
                                                       1.250   1.250

     atomic species   valence    mass     pseudopotential
        Na             9.00    22.99000     Na( 1.00)

     48 Sym. Ops., with inversion, found



   Cartesian axes

     site n.     atom                  positions (alat units)
         1           Na  tau(   1) = (   0.0000000   0.0000000   0.0000000  )

     number of k points= 16000  Marzari-Vanderbilt smearing, width (Ry)=  0.0200

     Number of k-points >= 100: set verbosity='high' to print them.

     Dense  grid:    27317 G-vectors     FFT dimensions: (  45,  45,  45)

     Smooth grid:     9577 G-vectors     FFT dimensions: (  30,  30,  30)

     Estimated max dynamical RAM per process >       0.94MB

     Estimated total allocated dynamical RAM >      60.02MB

     The potential is recalculated from file :
     ./_ph0/na.fcc.save/charge-density.dat

     Starting wfc are    5 atomic +    4 random wfc

     Band Structure Calculation
     Davidson diagonalization with overlap

     ethr =  1.11E-10,  avg # of iterations = 21.0

     total cpu time spent up to now is     6309.0 secs

     End of band structure calculation

     Number of k-points >= 100: set verbosity='high' to print the bands.

     the Fermi energy is     1.1469 ev

     Writing output data file na.fcc.save

                                                                                

     bravais-lattice index     =            2
     lattice parameter (alat)  =      10.4000  a.u.
     unit-cell volume          =     281.2160 (a.u.)^3
     number of atoms/cell      =            1
     number of atomic types    =            1
     kinetic-energy cut-off    =      40.0000  Ry
     charge density cut-off    =     320.0000  Ry
     convergence threshold     =      1.0E-16
     beta                      =       0.7000
     number of iterations used =            4
     Exchange-correlation      = SLA  PW   PBE  PBE ( 1  4  3  4 0 0)


     celldm(1)=   10.40000  celldm(2)=    0.00000  celldm(3)=    0.00000
     celldm(4)=    0.00000  celldm(5)=    0.00000  celldm(6)=    0.00000

     crystal axes: (cart. coord. in units of alat)
               a(1) = ( -0.5000  0.0000  0.5000 )  
               a(2) = (  0.0000  0.5000  0.5000 )  
               a(3) = ( -0.5000  0.5000  0.0000 )  

     reciprocal axes: (cart. coord. in units 2 pi/alat)
               b(1) = ( -1.0000 -1.0000  1.0000 )  
               b(2) = (  1.0000  1.0000  1.0000 )  
               b(3) = ( -1.0000  1.0000 -1.0000 )  


     Atoms inside the unit cell: 

     Cartesian axes

     site n.  atom      mass           positions (alat units)
        1     Na  22.9900   tau(    1) = (    0.00000    0.00000    0.00000  )

     Computing dynamical matrix for 
                    q = (  -0.3333333  -1.0000000   0.0000000 )

      4 Sym.Ops. (no q -> -q+G )


     G cutoff =  876.7119  (   1709 G-vectors)     FFT grid: ( 45, 45, 45)
     G cutoff =  438.3560  (    600 G-vectors)  smooth grid: ( 30, 30, 30)

     number of k points= 16000  Marzari-Vanderbilt smearing, width (Ry)=  0.0200

     PseudoPot. # 1 for Na read from file:
     /home/s1333534/quantum_espresso/qe-6.1/pseudo/Na_pbe_v1.uspp.F.UPF
     MD5 check sum: 76a99c7e9422403d3e93cbc85ab7bccb
     Pseudo is Ultrasoft, Zval =  9.0
     Generated by new atomic code, or converted to UPF format
     Using radial grid of  819 points,  5 beta functions with: 
                l(1) =   0
                l(2) =   0
                l(3) =   1
                l(4) =   1
                l(5) =   2
     Q(r) pseudized with  8 coefficients,  rinner =    1.250   1.250   1.250
                                                       1.250   1.250

     Mode symmetry, C_2v (mm2)  point group:


     Atomic displacements:
     There are   3 irreducible representations

     Representation     1      1 modes -A_1  D_1  S_1  To be done

     Representation     2      1 modes -B_1  D_3  S_3  To be done

     Representation     3      1 modes -B_2  D_4  S_4  To be done



     Alpha used in Ewald sum =   2.8000
     PHONON       :     6h42m CPU        7h13m WALL



     Representation #  1 mode #   1

     Self-consistent Calculation

      iter #   1 total cpu time : 26030.6 secs   av.it.:   5.6
      thresh= 1.000E-02 alpha_mix =  0.700 |ddv_scf|^2 =  1.180E-05

      iter #   2 total cpu time : 26073.6 secs   av.it.:   8.0
      thresh= 3.434E-04 alpha_mix =  0.700 |ddv_scf|^2 =  3.670E-07

      iter #   3 total cpu time : 26116.3 secs   av.it.:   7.9
      thresh= 6.058E-05 alpha_mix =  0.700 |ddv_scf|^2 =  1.425E-08

      iter #   4 total cpu time : 26159.8 secs   av.it.:   8.2
      thresh= 1.194E-05 alpha_mix =  0.700 |ddv_scf|^2 =  7.393E-10

      iter #   5 total cpu time : 26203.5 secs   av.it.:   8.2
      thresh= 2.719E-06 alpha_mix =  0.700 |ddv_scf|^2 =  3.767E-11

      iter #   6 total cpu time : 26246.6 secs   av.it.:   8.2
      thresh= 6.138E-07 alpha_mix =  0.700 |ddv_scf|^2 =  2.391E-12

      iter #   7 total cpu time : 26290.0 secs   av.it.:   8.3
      thresh= 1.546E-07 alpha_mix =  0.700 |ddv_scf|^2 =  1.820E-14

      iter #   8 total cpu time : 26332.4 secs   av.it.:   7.9
      thresh= 1.349E-08 alpha_mix =  0.700 |ddv_scf|^2 =  7.999E-16

      iter #   9 total cpu time : 26374.5 secs   av.it.:   8.1
      thresh= 2.828E-09 alpha_mix =  0.700 |ddv_scf|^2 =  1.177E-17

     End of self-consistent calculation

     Convergence has been achieved 


     Representation #  2 mode #   2

     Self-consistent Calculation

      iter #   1 total cpu time : 26415.1 secs   av.it.:   5.6
      thresh= 1.000E-02 alpha_mix =  0.700 |ddv_scf|^2 =  1.319E-05

      iter #   2 total cpu time : 26458.5 secs   av.it.:   7.9
      thresh= 3.631E-04 alpha_mix =  0.700 |ddv_scf|^2 =  2.929E-07

      iter #   3 total cpu time : 26501.6 secs   av.it.:   7.9
      thresh= 5.412E-05 alpha_mix =  0.700 |ddv_scf|^2 =  1.457E-08

      iter #   4 total cpu time : 26544.8 secs   av.it.:   8.0
      thresh= 1.207E-05 alpha_mix =  0.700 |ddv_scf|^2 =  1.687E-10

      iter #   5 total cpu time : 26584.9 secs   av.it.:   7.2
      thresh= 1.299E-06 alpha_mix =  0.700 |ddv_scf|^2 =  1.462E-13

      iter #   6 total cpu time : 26627.4 secs   av.it.:   7.8
      thresh= 3.823E-08 alpha_mix =  0.700 |ddv_scf|^2 =  4.134E-15

      iter #   7 total cpu time : 26667.9 secs   av.it.:   7.7
      thresh= 6.429E-09 alpha_mix =  0.700 |ddv_scf|^2 =  3.708E-17

     End of self-consistent calculation

     Convergence has been achieved 


     Representation #  3 mode #   3

     Self-consistent Calculation

      iter #   1 total cpu time : 26707.2 secs   av.it.:   5.6
      thresh= 1.000E-02 alpha_mix =  0.700 |ddv_scf|^2 =  2.510E-05

      iter #   2 total cpu time : 26748.8 secs   av.it.:   7.7
      thresh= 5.010E-04 alpha_mix =  0.700 |ddv_scf|^2 =  2.784E-06

      iter #   3 total cpu time : 26788.9 secs   av.it.:   7.3
      thresh= 1.669E-04 alpha_mix =  0.700 |ddv_scf|^2 =  2.688E-08

      iter #   4 total cpu time : 26831.1 secs   av.it.:   8.1
      thresh= 1.640E-05 alpha_mix =  0.700 |ddv_scf|^2 =  1.432E-10

      iter #   5 total cpu time : 26869.6 secs   av.it.:   6.9
      thresh= 1.197E-06 alpha_mix =  0.700 |ddv_scf|^2 =  1.525E-13

      iter #   6 total cpu time : 26910.5 secs   av.it.:   7.7
      thresh= 3.906E-08 alpha_mix =  0.700 |ddv_scf|^2 =  9.099E-15

      iter #   7 total cpu time : 26950.7 secs   av.it.:   7.5
      thresh= 9.539E-09 alpha_mix =  0.700 |ddv_scf|^2 =  2.202E-17

     End of self-consistent calculation

     Convergence has been achieved 

     Number of q in the star =   12
     List of q in the star:
          1  -0.333333333  -1.000000000   0.000000000
          2   0.000000000  -1.000000000  -0.333333333
          3   0.000000000  -1.000000000   0.333333333
          4   0.333333333  -1.000000000   0.000000000
          5  -1.000000000   0.000000000  -0.333333333
          6   1.000000000   0.000000000   0.333333333
          7   0.000000000   0.333333333   1.000000000
          8   0.000000000  -0.333333333  -1.000000000
          9  -1.000000000  -0.333333333   0.000000000
         10   1.000000000   0.333333333   0.000000000
         11  -0.333333333   0.000000000   1.000000000
         12   0.333333333   0.000000000   1.000000000

     Diagonalizing the dynamical matrix

     q = (   -0.333333333  -1.000000000   0.000000000 ) 

 **************************************************************************
     freq (    1) =       2.331429 [THz] =      77.768102 [cm-1]
     freq (    2) =       2.710075 [THz] =      90.398383 [cm-1]
     freq (    3) =       3.157563 [THz] =     105.324976 [cm-1]
 **************************************************************************

     Mode symmetry, C_2v (mm2)  point group:

     freq (  1 -  1) =         77.8  [cm-1]   --> A_1  D_1  S_1      
     freq (  2 -  2) =         90.4  [cm-1]   --> B_1  D_3  S_3      
     freq (  3 -  3) =        105.3  [cm-1]   --> B_2  D_4  S_4      

     init_run     :      3.82s CPU      3.99s WALL (      15 calls)
     electrons    :   5204.98s CPU   5482.04s WALL (      15 calls)

     Called by init_run:
     wfcinit      :      0.00s CPU      0.00s WALL (      15 calls)
     potinit      :      0.53s CPU      0.54s WALL (      15 calls)

     Called by electrons:
     c_bands      :   5203.73s CPU   5480.77s WALL (      15 calls)
     v_of_rho     :      0.20s CPU      0.21s WALL (      16 calls)
     newd         :      0.20s CPU      0.21s WALL (      16 calls)

     Called by c_bands:
     init_us_2    :    112.88s CPU    121.64s WALL ( 1268394 calls)
     cegterg      :   4023.27s CPU   4260.86s WALL (  104997 calls)

     Called by sum_band:

     Called by *egterg:
     h_psi        :  14892.05s CPU  15928.72s WALL (11858917 calls)
     s_psi        :    411.23s CPU    448.14s WALL (22913808 calls)
     g_psi        :     13.23s CPU     14.22s WALL ( 1614635 calls)
     cdiaghg      :   1011.85s CPU   1071.19s WALL ( 1688061 calls)

     Called by h_psi:
     h_psi:pot    :  14796.27s CPU  15823.89s WALL (11858917 calls)
     h_psi:calbec :    836.49s CPU    890.16s WALL (11858917 calls)
     vloc_psi     :  13604.18s CPU  14552.86s WALL (11858917 calls)
     add_vuspsi   :    224.53s CPU    242.97s WALL (11858917 calls)

     General routines
     calbec       :   1558.84s CPU   1668.52s WALL (24972535 calls)
     fft          :      6.38s CPU      7.15s WALL (    6481 calls)
     ffts         :     24.04s CPU     27.21s WALL (  112712 calls)
     fftw         :  14974.06s CPU  16091.71s WALL (******** calls)
     interpolate  :      1.22s CPU      1.90s WALL (     888 calls)
     davcio       :    138.46s CPU    338.48s WALL ( 5151627 calls)

     Parallel routines
     fft_scatter  :   6869.63s CPU   7375.64s WALL (******** calls)

     PHONON       :     6h57m CPU        7h29m WALL

     INITIALIZATION: 
     phq_setup    :      0.99s CPU      1.04s WALL (      16 calls)
     phq_init     :    259.94s CPU    274.47s WALL (      16 calls)

     phq_init     :    259.94s CPU    274.47s WALL (      16 calls)
     init_vloc    :      0.16s CPU      0.16s WALL (      16 calls)
     init_us_1    :      1.46s CPU      1.60s WALL (      16 calls)
     newd         :      0.20s CPU      0.21s WALL (      16 calls)
     dvanqq       :      0.82s CPU      0.83s WALL (      16 calls)
     drho         :    203.44s CPU    214.09s WALL (      16 calls)

     DYNAMICAL MATRIX:
     dynmat0      :     37.26s CPU     39.20s WALL (      16 calls)
     phqscf       :  18697.97s CPU  20309.51s WALL (      16 calls)
     dynmatrix    :      0.15s CPU      0.16s WALL (      16 calls)

     phqscf       :  18697.97s CPU  20309.51s WALL (      16 calls)
     solve_linter :  18635.94s CPU  20243.08s WALL (      40 calls)
     drhodv       :     61.81s CPU     65.95s WALL (      40 calls)

     dynmat0      :     37.26s CPU     39.20s WALL (      16 calls)
     dynmat_us    :     37.19s CPU     39.13s WALL (      16 calls)
     d2ionq       :      0.01s CPU      0.01s WALL (      16 calls)

     dynmat_us    :     37.19s CPU     39.13s WALL (      16 calls)
     addusdynmat  :      0.00s CPU      0.00s WALL (      16 calls)

     phqscf       :  18697.97s CPU  20309.51s WALL (      16 calls)
     solve_linter :  18635.94s CPU  20243.08s WALL (      40 calls)

     solve_linter :  18635.94s CPU  20243.08s WALL (      40 calls)
     dvqpsi_us    :    364.96s CPU    387.74s WALL (  110718 calls)
     ortho        :    245.02s CPU    261.15s WALL (  989032 calls)
     cgsolve      :  14724.47s CPU  15825.06s WALL (  989032 calls)
     incdrhoscf   :   1461.95s CPU   1638.33s WALL (  989032 calls)
     addusddens   :      5.97s CPU      6.05s WALL (     390 calls)
     vpsifft      :   1168.80s CPU   1257.51s WALL (  878314 calls)
     dv_of_drho   :      4.65s CPU      5.28s WALL (     404 calls)
     mix_pot      :      0.90s CPU      3.06s WALL (     350 calls)
     ef_shift     :      0.04s CPU      0.15s WALL (       7 calls)
     localdos     :      0.26s CPU      0.28s WALL (       1 calls)
     psymdvscf    :     37.11s CPU     38.22s WALL (     350 calls)
     newdq        :      5.87s CPU      5.96s WALL (     350 calls)
     adddvscf     :     59.18s CPU     63.07s WALL (  878314 calls)
     drhodvus     :      0.01s CPU      0.02s WALL (      40 calls)

     dvqpsi_us    :    364.96s CPU    387.74s WALL (  110718 calls)
     dvqpsi_us_on :     56.08s CPU     58.53s WALL (  110718 calls)

     cgsolve      :  14724.47s CPU  15825.06s WALL (  989032 calls)
     ch_psi       :  13981.92s CPU  15015.91s WALL (10065859 calls)

     ch_psi       :  13981.92s CPU  15015.91s WALL (10065859 calls)
     h_psi        :  14892.05s CPU  15928.72s WALL (11858917 calls)
     last         :   1380.31s CPU   1490.76s WALL (10065859 calls)

     h_psi        :  14892.05s CPU  15928.72s WALL (11858917 calls)
     add_vuspsi   :    224.53s CPU    242.97s WALL (11858917 calls)

     incdrhoscf   :   1461.95s CPU   1638.33s WALL (  989032 calls)
     addusdbec    :    120.43s CPU    127.35s WALL ( 1099750 calls)

     drhodvus     :      0.01s CPU      0.02s WALL (      40 calls)

      General routines
     calbec       :   1558.84s CPU   1668.52s WALL (24972535 calls)
     fft          :      6.38s CPU      7.15s WALL (    6481 calls)
     ffts         :     24.04s CPU     27.21s WALL (  112712 calls)
     fftw         :  14974.06s CPU  16091.71s WALL (******** calls)
     davcio       :    138.46s CPU    338.48s WALL ( 5151627 calls)
     write_rec    :      1.48s CPU      3.37s WALL (     390 calls)


     PHONON       :     6h57m CPU        7h29m WALL


   This run was terminated on:  18:22:52   1Feb2018            

=------------------------------------------------------------------------------=
   JOB DONE.
=------------------------------------------------------------------------------=
