
     Program PHONON v.6.1 (svn rev. 13369) starts on 30Jan2018 at 20:17:20 

     This program is part of the open-source Quantum ESPRESSO suite
     for quantum simulation of materials; please cite
         "P. Giannozzi et al., J. Phys.:Condens. Matter 21 395502 (2009);
          URL http://www.quantum-espresso.org", 
     in publications or presentations arising from this work. More details at
     http://www.quantum-espresso.org/quote

     Parallel version (MPI), running on    64 processors
     K-points division:     npool     =       4
     R & G space division:  proc/nbgrp/npool/nimage =      16

     Reading data from directory:
     ./na.bcc.save

   Info: using nr1, nr2, nr3 values from input

   Info: using nr1, nr2, nr3 values from input

     IMPORTANT: XC functional enforced from input :
     Exchange-correlation      = SLA  PW   PBE  PBE ( 1  4  3  4 0 0)
     Any further DFT definition will be discarded
     Please, verify this is what you really want


     Parallelization info
     --------------------
     sticks:   dense  smooth     PW     G-vecs:    dense   smooth      PW
     Min          69      34     10                 1464      523      90
     Max          70      35     11                 1468      526      94
     Sum        1113     557    173                23455     8391    1481



     Dynamical matrices for ( 6, 6, 6)  uniform grid of q-points
     (  16q-points):
       N         xq(1)         xq(2)         xq(3) 
       1   0.000000000   0.000000000   0.000000000
       2   0.000000000  -0.166666667   0.166666667
       3   0.000000000  -0.333333333   0.333333333
       4   0.000000000   0.500000000  -0.500000000
       5  -0.166666667  -0.166666667   0.333333333
       6  -0.166666667   0.666666667  -0.500000000
       7  -0.333333333   0.666666667  -0.333333333
       8   0.000000000   0.000000000   0.333333333
       9   0.000000000  -0.166666667   0.500000000
      10   0.000000000   0.666666667  -0.333333333
      11  -0.166666667   0.833333333  -0.333333333
      12   0.666666667  -0.666666667   0.333333333
      13   0.500000000  -0.500000000   0.333333333
      14   0.000000000   0.000000000   0.666666667
      15   0.000000000   0.833333333  -0.166666667
      16   0.000000000   0.000000000  -1.000000000

     Calculation of q =    0.0000000   0.0000000   0.0000000

                                                                                

     bravais-lattice index     =            3
     lattice parameter (alat)  =       7.8683  a.u.
     unit-cell volume          =     243.5634 (a.u.)^3
     number of atoms/cell      =            1
     number of atomic types    =            1
     kinetic-energy cut-off    =      40.0000  Ry
     charge density cut-off    =     320.0000  Ry
     convergence threshold     =      1.0E-16
     beta                      =       0.7000
     number of iterations used =            4
     Exchange-correlation      = SLA  PW   PBE  PBE ( 1  4  3  4 0 0)


     celldm(1)=    7.86830  celldm(2)=    0.00000  celldm(3)=    0.00000
     celldm(4)=    0.00000  celldm(5)=    0.00000  celldm(6)=    0.00000

     crystal axes: (cart. coord. in units of alat)
               a(1) = (  0.5000  0.5000  0.5000 )  
               a(2) = ( -0.5000  0.5000  0.5000 )  
               a(3) = ( -0.5000 -0.5000  0.5000 )  

     reciprocal axes: (cart. coord. in units 2 pi/alat)
               b(1) = (  1.0000  0.0000  1.0000 )  
               b(2) = ( -1.0000  1.0000  0.0000 )  
               b(3) = (  0.0000 -1.0000  1.0000 )  


     Atoms inside the unit cell: 

     Cartesian axes

     site n.  atom      mass           positions (alat units)
        1     Na  22.9900   tau(    1) = (    0.00000    0.00000    0.00000  )

     Computing dynamical matrix for 
                    q = (   0.0000000   0.0000000   0.0000000 )

     49 Sym.Ops. (with q -> -q+G )


     G cutoff =  501.8242  (   1465 G-vectors)     FFT grid: ( 40, 40, 40)
     G cutoff =  250.9121  (    526 G-vectors)  smooth grid: ( 27, 27, 27)

     number of k points=   250  Marzari-Vanderbilt smearing, width (Ry)=  0.0200

     PseudoPot. # 1 for Na read from file:
     /home/s1333534/quantum_espresso/qe-6.1/pseudo/Na_pbe_v1.uspp.F.UPF
     MD5 check sum: 76a99c7e9422403d3e93cbc85ab7bccb
     Pseudo is Ultrasoft, Zval =  9.0
     Generated by new atomic code, or converted to UPF format
     Using radial grid of  819 points,  5 beta functions with: 
                l(1) =   0
                l(2) =   0
                l(3) =   1
                l(4) =   1
                l(5) =   2
     Q(r) pseudized with  8 coefficients,  rinner =    1.250   1.250   1.250
                                                       1.250   1.250

     Mode symmetry, O_h (m-3m)  point group:


     Atomic displacements:
     There are   1 irreducible representations

     Representation     1      3 modes -T_1u G_15  G_4-  To be done



     Alpha used in Ewald sum =   2.8000
     PHONON       :     3.08s CPU         3.30s WALL



     Representation #  1 modes #   1  2  3

     Self-consistent Calculation

     Pert. #  1: Fermi energy shift (Ry) =    -5.1699E-26     4.0750E-37
     Pert. #  2: Fermi energy shift (Ry) =     1.0340E-25     1.4106E-37
     Pert. #  3: Fermi energy shift (Ry) =    -3.4466E-26    -2.5077E-37

      iter #   1 total cpu time :     7.2 secs   av.it.:   5.4
      thresh= 1.000E-02 alpha_mix =  0.700 |ddv_scf|^2 =  1.004E-06

     Pert. #  1: Fermi energy shift (Ry) =     2.3157E-26    -2.3877E-39
     Pert. #  2: Fermi energy shift (Ry) =     1.2171E-25     1.1939E-39
     Pert. #  3: Fermi energy shift (Ry) =    -4.0390E-27    -1.2245E-40

      iter #   2 total cpu time :    11.8 secs   av.it.:   8.4
      thresh= 1.002E-04 alpha_mix =  0.700 |ddv_scf|^2 =  1.891E-08

     Pert. #  1: Fermi energy shift (Ry) =     1.7987E-25    -7.6530E-40
     Pert. #  2: Fermi energy shift (Ry) =    -1.4002E-26     7.0407E-40
     Pert. #  3: Fermi energy shift (Ry) =     1.4540E-26     1.2245E-40

      iter #   3 total cpu time :    16.6 secs   av.it.:   8.6
      thresh= 1.375E-05 alpha_mix =  0.700 |ddv_scf|^2 =  3.871E-10

     Pert. #  1: Fermi energy shift (Ry) =     9.6935E-27     6.1224E-41
     Pert. #  2: Fermi energy shift (Ry) =    -2.1003E-26    -3.0612E-41
     Pert. #  3: Fermi energy shift (Ry) =    -6.1392E-26    -3.4438E-41

      iter #   4 total cpu time :    22.3 secs   av.it.:   8.0
      thresh= 1.968E-06 alpha_mix =  0.700 |ddv_scf|^2 =  1.319E-12

     Pert. #  1: Fermi energy shift (Ry) =    -1.3517E-25     1.9132E-41
     Pert. #  2: Fermi energy shift (Ry) =    -5.8700E-26     1.9132E-42
     Pert. #  3: Fermi energy shift (Ry) =    -2.7465E-26     1.4349E-41

      iter #   5 total cpu time :    26.8 secs   av.it.:   8.5
      thresh= 1.149E-07 alpha_mix =  0.700 |ddv_scf|^2 =  2.935E-15

     Pert. #  1: Fermi energy shift (Ry) =     1.1901E-25    -1.9132E-42
     Pert. #  2: Fermi energy shift (Ry) =     7.0547E-26    -3.3482E-42
     Pert. #  3: Fermi energy shift (Ry) =     3.1773E-26     1.4349E-42

      iter #   6 total cpu time :    31.3 secs   av.it.:   8.1
      thresh= 5.418E-09 alpha_mix =  0.700 |ddv_scf|^2 =  7.641E-17

     End of self-consistent calculation

     Convergence has been achieved 

     Number of q in the star =    1
     List of q in the star:
          1   0.000000000   0.000000000   0.000000000

     Diagonalizing the dynamical matrix

     q = (    0.000000000   0.000000000   0.000000000 ) 

 **************************************************************************
     freq (    1) =      -0.221824 [THz] =      -7.399258 [cm-1]
     freq (    2) =      -0.221824 [THz] =      -7.399258 [cm-1]
     freq (    3) =      -0.221824 [THz] =      -7.399258 [cm-1]
 **************************************************************************

     Mode symmetry, O_h (m-3m)  point group:

     freq (  1 -  3) =         -7.4  [cm-1]   --> T_1u G_15  G_4- I  

     Calculation of q =    0.0000000  -0.1666667   0.1666667

   Info: using nr1, nr2, nr3 values from input

   Info: using nr1, nr2, nr3 values from input

     Parallelization info
     --------------------
     sticks:   dense  smooth     PW     G-vecs:    dense   smooth      PW
     Min          69      34     11                 1464      523      96
     Max          70      35     12                 1468      526      98
     Sum        1113     557    181                23455     8391    1553



     bravais-lattice index     =            3
     lattice parameter (alat)  =       7.8683  a.u.
     unit-cell volume          =     243.5634 (a.u.)^3
     number of atoms/cell      =            1
     number of atomic types    =            1
     number of electrons       =         9.00
     number of Kohn-Sham states=            9
     kinetic-energy cutoff     =      40.0000  Ry
     charge density cutoff     =     320.0000  Ry
     Exchange-correlation      = SLA  PW   PBE  PBE ( 1  4  3  4 0 0)

     celldm(1)=   7.868296  celldm(2)=   0.000000  celldm(3)=   0.000000
     celldm(4)=   0.000000  celldm(5)=   0.000000  celldm(6)=   0.000000

     crystal axes: (cart. coord. in units of alat)
               a(1) = (   0.500000   0.500000   0.500000 )  
               a(2) = (  -0.500000   0.500000   0.500000 )  
               a(3) = (  -0.500000  -0.500000   0.500000 )  

     reciprocal axes: (cart. coord. in units 2 pi/alat)
               b(1) = (  1.000000  0.000000  1.000000 )  
               b(2) = ( -1.000000  1.000000  0.000000 )  
               b(3) = (  0.000000 -1.000000  1.000000 )  


     PseudoPot. # 1 for Na read from file:
     /home/s1333534/quantum_espresso/qe-6.1/pseudo/Na_pbe_v1.uspp.F.UPF
     MD5 check sum: 76a99c7e9422403d3e93cbc85ab7bccb
     Pseudo is Ultrasoft, Zval =  9.0
     Generated by new atomic code, or converted to UPF format
     Using radial grid of  819 points,  5 beta functions with: 
                l(1) =   0
                l(2) =   0
                l(3) =   1
                l(4) =   1
                l(5) =   2
     Q(r) pseudized with  8 coefficients,  rinner =    1.250   1.250   1.250
                                                       1.250   1.250

     atomic species   valence    mass     pseudopotential
        Na             9.00    22.99000     Na( 1.00)

     48 Sym. Ops., with inversion, found



   Cartesian axes

     site n.     atom                  positions (alat units)
         1           Na  tau(   1) = (   0.0000000   0.0000000   0.0000000  )

     number of k points=  4400  Marzari-Vanderbilt smearing, width (Ry)=  0.0200

     Number of k-points >= 100: set verbosity='high' to print them.

     Dense  grid:    23455 G-vectors     FFT dimensions: (  40,  40,  40)

     Smooth grid:     8391 G-vectors     FFT dimensions: (  27,  27,  27)

     Estimated max dynamical RAM per process >       0.81MB

     Estimated total allocated dynamical RAM >      51.54MB

     The potential is recalculated from file :
     ./_ph0/na.bcc.save/charge-density.dat

     Starting wfc are    5 atomic +    4 random wfc

     Band Structure Calculation
     Davidson diagonalization with overlap

     ethr =  1.11E-10,  avg # of iterations = 21.2

     total cpu time spent up to now is       73.0 secs

     End of band structure calculation

     Number of k-points >= 100: set verbosity='high' to print the bands.

     the Fermi energy is     1.7192 ev

     Writing output data file na.bcc.save

                                                                                

     bravais-lattice index     =            3
     lattice parameter (alat)  =       7.8683  a.u.
     unit-cell volume          =     243.5634 (a.u.)^3
     number of atoms/cell      =            1
     number of atomic types    =            1
     kinetic-energy cut-off    =      40.0000  Ry
     charge density cut-off    =     320.0000  Ry
     convergence threshold     =      1.0E-16
     beta                      =       0.7000
     number of iterations used =            4
     Exchange-correlation      = SLA  PW   PBE  PBE ( 1  4  3  4 0 0)


     celldm(1)=    7.86830  celldm(2)=    0.00000  celldm(3)=    0.00000
     celldm(4)=    0.00000  celldm(5)=    0.00000  celldm(6)=    0.00000

     crystal axes: (cart. coord. in units of alat)
               a(1) = (  0.5000  0.5000  0.5000 )  
               a(2) = ( -0.5000  0.5000  0.5000 )  
               a(3) = ( -0.5000 -0.5000  0.5000 )  

     reciprocal axes: (cart. coord. in units 2 pi/alat)
               b(1) = (  1.0000  0.0000  1.0000 )  
               b(2) = ( -1.0000  1.0000  0.0000 )  
               b(3) = (  0.0000 -1.0000  1.0000 )  


     Atoms inside the unit cell: 

     Cartesian axes

     site n.  atom      mass           positions (alat units)
        1     Na  22.9900   tau(    1) = (    0.00000    0.00000    0.00000  )

     Computing dynamical matrix for 
                    q = (   0.0000000  -0.1666667   0.1666667 )

      4 Sym.Ops. (no q -> -q+G )


     G cutoff =  501.8242  (   1465 G-vectors)     FFT grid: ( 40, 40, 40)
     G cutoff =  250.9121  (    526 G-vectors)  smooth grid: ( 27, 27, 27)

     number of k points=  4400  Marzari-Vanderbilt smearing, width (Ry)=  0.0200

     PseudoPot. # 1 for Na read from file:
     /home/s1333534/quantum_espresso/qe-6.1/pseudo/Na_pbe_v1.uspp.F.UPF
     MD5 check sum: 76a99c7e9422403d3e93cbc85ab7bccb
     Pseudo is Ultrasoft, Zval =  9.0
     Generated by new atomic code, or converted to UPF format
     Using radial grid of  819 points,  5 beta functions with: 
                l(1) =   0
                l(2) =   0
                l(3) =   1
                l(4) =   1
                l(5) =   2
     Q(r) pseudized with  8 coefficients,  rinner =    1.250   1.250   1.250
                                                       1.250   1.250

     Mode symmetry, C_2v (mm2)  point group:


     Atomic displacements:
     There are   3 irreducible representations

     Representation     1      1 modes -A_1  D_1  S_1  To be done

     Representation     2      1 modes -B_1  D_3  S_3  To be done

     Representation     3      1 modes -B_2  D_4  S_4  To be done



     Alpha used in Ewald sum =   2.8000
     PHONON       :  1m53.43s CPU     2m 1.07s WALL



     Representation #  1 mode #   1

     Self-consistent Calculation

      iter #   1 total cpu time :   129.7 secs   av.it.:   5.7
      thresh= 1.000E-02 alpha_mix =  0.700 |ddv_scf|^2 =  2.319E-02

      iter #   2 total cpu time :   137.7 secs   av.it.:   6.3
      thresh= 1.000E-02 alpha_mix =  0.700 |ddv_scf|^2 =  3.401E+00

      iter #   3 total cpu time :   146.2 secs   av.it.:   6.3
      thresh= 1.000E-02 alpha_mix =  0.700 |ddv_scf|^2 =  2.973E-07

      iter #   4 total cpu time :   156.1 secs   av.it.:   8.1
      thresh= 5.452E-05 alpha_mix =  0.700 |ddv_scf|^2 =  4.945E-08

      iter #   5 total cpu time :   165.3 secs   av.it.:   7.5
      thresh= 2.224E-05 alpha_mix =  0.700 |ddv_scf|^2 =  3.048E-09

      iter #   6 total cpu time :   174.3 secs   av.it.:   7.6
      thresh= 5.521E-06 alpha_mix =  0.700 |ddv_scf|^2 =  1.484E-08

      iter #   7 total cpu time :   180.6 secs   av.it.:   4.2
      thresh= 1.218E-05 alpha_mix =  0.700 |ddv_scf|^2 =  5.496E-10

      iter #   8 total cpu time :   189.9 secs   av.it.:   7.4
      thresh= 2.344E-06 alpha_mix =  0.700 |ddv_scf|^2 =  3.103E-11

      iter #   9 total cpu time :   198.8 secs   av.it.:   7.3
      thresh= 5.571E-07 alpha_mix =  0.700 |ddv_scf|^2 =  1.400E-12

      iter #  10 total cpu time :   207.6 secs   av.it.:   7.1
      thresh= 1.183E-07 alpha_mix =  0.700 |ddv_scf|^2 =  9.705E-14

      iter #  11 total cpu time :   216.7 secs   av.it.:   7.3
      thresh= 3.115E-08 alpha_mix =  0.700 |ddv_scf|^2 =  4.623E-16

      iter #  12 total cpu time :   226.1 secs   av.it.:   7.8
      thresh= 2.150E-09 alpha_mix =  0.700 |ddv_scf|^2 =  3.300E-16

      iter #  13 total cpu time :   234.8 secs   av.it.:   6.9
      thresh= 1.817E-09 alpha_mix =  0.700 |ddv_scf|^2 =  5.666E-15

      iter #  14 total cpu time :   242.6 secs   av.it.:   5.9
      thresh= 7.527E-09 alpha_mix =  0.700 |ddv_scf|^2 =  2.654E-18

     End of self-consistent calculation

     Convergence has been achieved 


     Representation #  2 mode #   2

     Self-consistent Calculation

      iter #   1 total cpu time :   251.6 secs   av.it.:   5.4
      thresh= 1.000E-02 alpha_mix =  0.700 |ddv_scf|^2 =  9.129E-06

      iter #   2 total cpu time :   261.1 secs   av.it.:   7.7
      thresh= 3.021E-04 alpha_mix =  0.700 |ddv_scf|^2 =  1.685E-07

      iter #   3 total cpu time :   270.6 secs   av.it.:   7.8
      thresh= 4.104E-05 alpha_mix =  0.700 |ddv_scf|^2 =  3.784E-09

      iter #   4 total cpu time :   279.7 secs   av.it.:   7.4
      thresh= 6.151E-06 alpha_mix =  0.700 |ddv_scf|^2 =  1.268E-11

      iter #   5 total cpu time :   289.4 secs   av.it.:   7.7
      thresh= 3.561E-07 alpha_mix =  0.700 |ddv_scf|^2 =  2.533E-14

      iter #   6 total cpu time :   298.4 secs   av.it.:   7.4
      thresh= 1.592E-08 alpha_mix =  0.700 |ddv_scf|^2 =  7.246E-16

      iter #   7 total cpu time :   308.1 secs   av.it.:   7.7
      thresh= 2.692E-09 alpha_mix =  0.700 |ddv_scf|^2 =  6.965E-19

     End of self-consistent calculation

     Convergence has been achieved 


     Representation #  3 mode #   3

     Self-consistent Calculation

      iter #   1 total cpu time :   317.6 secs   av.it.:   5.4
      thresh= 1.000E-02 alpha_mix =  0.700 |ddv_scf|^2 =  9.436E-06

      iter #   2 total cpu time :   327.0 secs   av.it.:   7.7
      thresh= 3.072E-04 alpha_mix =  0.700 |ddv_scf|^2 =  1.676E-07

      iter #   3 total cpu time :   336.6 secs   av.it.:   7.8
      thresh= 4.094E-05 alpha_mix =  0.700 |ddv_scf|^2 =  4.814E-09

      iter #   4 total cpu time :   345.7 secs   av.it.:   7.5
      thresh= 6.938E-06 alpha_mix =  0.700 |ddv_scf|^2 =  1.586E-11

      iter #   5 total cpu time :   355.2 secs   av.it.:   7.8
      thresh= 3.983E-07 alpha_mix =  0.700 |ddv_scf|^2 =  2.634E-14

      iter #   6 total cpu time :   364.1 secs   av.it.:   7.1
      thresh= 1.623E-08 alpha_mix =  0.700 |ddv_scf|^2 =  1.091E-15

      iter #   7 total cpu time :   373.5 secs   av.it.:   7.8
      thresh= 3.303E-09 alpha_mix =  0.700 |ddv_scf|^2 =  1.173E-18

     End of self-consistent calculation

     Convergence has been achieved 

     Number of q in the star =   12
     List of q in the star:
          1   0.000000000  -0.166666667   0.166666667
          2  -0.166666667   0.000000000   0.166666667
          3   0.166666667   0.000000000   0.166666667
          4   0.000000000   0.166666667   0.166666667
          5   0.166666667   0.166666667   0.000000000
          6  -0.166666667   0.166666667   0.000000000
          7   0.166666667  -0.166666667   0.000000000
          8  -0.166666667  -0.166666667   0.000000000
          9  -0.166666667   0.000000000  -0.166666667
         10   0.000000000  -0.166666667  -0.166666667
         11   0.000000000   0.166666667  -0.166666667
         12   0.166666667   0.000000000  -0.166666667

     Diagonalizing the dynamical matrix

     q = (    0.000000000  -0.166666667   0.166666667 ) 

 **************************************************************************
     freq (    1) =       0.555440 [THz] =      18.527473 [cm-1]
     freq (    2) =       1.366926 [THz] =      45.595735 [cm-1]
     freq (    3) =       2.079429 [THz] =      69.362280 [cm-1]
 **************************************************************************

     Mode symmetry, C_2v (mm2)  point group:

     freq (  1 -  1) =         18.5  [cm-1]   --> B_1  D_3  S_3      
     freq (  2 -  2) =         45.6  [cm-1]   --> B_2  D_4  S_4      
     freq (  3 -  3) =         69.4  [cm-1]   --> A_1  D_1  S_1      

     Calculation of q =    0.0000000  -0.3333333   0.3333333

   Info: using nr1, nr2, nr3 values from input

   Info: using nr1, nr2, nr3 values from input

     Parallelization info
     --------------------
     sticks:   dense  smooth     PW     G-vecs:    dense   smooth      PW
     Min          69      34     12                 1464      523     107
     Max          70      35     13                 1468      526     109
     Sum        1113     557    197                23455     8391    1721



     bravais-lattice index     =            3
     lattice parameter (alat)  =       7.8683  a.u.
     unit-cell volume          =     243.5634 (a.u.)^3
     number of atoms/cell      =            1
     number of atomic types    =            1
     number of electrons       =         9.00
     number of Kohn-Sham states=            9
     kinetic-energy cutoff     =      40.0000  Ry
     charge density cutoff     =     320.0000  Ry
     Exchange-correlation      = SLA  PW   PBE  PBE ( 1  4  3  4 0 0)

     celldm(1)=   7.868296  celldm(2)=   0.000000  celldm(3)=   0.000000
     celldm(4)=   0.000000  celldm(5)=   0.000000  celldm(6)=   0.000000

     crystal axes: (cart. coord. in units of alat)
               a(1) = (   0.500000   0.500000   0.500000 )  
               a(2) = (  -0.500000   0.500000   0.500000 )  
               a(3) = (  -0.500000  -0.500000   0.500000 )  

     reciprocal axes: (cart. coord. in units 2 pi/alat)
               b(1) = (  1.000000  0.000000  1.000000 )  
               b(2) = ( -1.000000  1.000000  0.000000 )  
               b(3) = (  0.000000 -1.000000  1.000000 )  


     PseudoPot. # 1 for Na read from file:
     /home/s1333534/quantum_espresso/qe-6.1/pseudo/Na_pbe_v1.uspp.F.UPF
     MD5 check sum: 76a99c7e9422403d3e93cbc85ab7bccb
     Pseudo is Ultrasoft, Zval =  9.0
     Generated by new atomic code, or converted to UPF format
     Using radial grid of  819 points,  5 beta functions with: 
                l(1) =   0
                l(2) =   0
                l(3) =   1
                l(4) =   1
                l(5) =   2
     Q(r) pseudized with  8 coefficients,  rinner =    1.250   1.250   1.250
                                                       1.250   1.250

     atomic species   valence    mass     pseudopotential
        Na             9.00    22.99000     Na( 1.00)

     48 Sym. Ops., with inversion, found



   Cartesian axes

     site n.     atom                  positions (alat units)
         1           Na  tau(   1) = (   0.0000000   0.0000000   0.0000000  )

     number of k points=  4400  Marzari-Vanderbilt smearing, width (Ry)=  0.0200

     Number of k-points >= 100: set verbosity='high' to print them.

     Dense  grid:    23455 G-vectors     FFT dimensions: (  40,  40,  40)

     Smooth grid:     8391 G-vectors     FFT dimensions: (  27,  27,  27)

     Estimated max dynamical RAM per process >       0.81MB

     Estimated total allocated dynamical RAM >      51.54MB

     The potential is recalculated from file :
     ./_ph0/na.bcc.save/charge-density.dat

     Starting wfc are    5 atomic +    4 random wfc

     Band Structure Calculation
     Davidson diagonalization with overlap

     ethr =  1.11E-10,  avg # of iterations = 21.2

     total cpu time spent up to now is      159.8 secs

     End of band structure calculation

     Number of k-points >= 100: set verbosity='high' to print the bands.

     the Fermi energy is     1.7192 ev

     Writing output data file na.bcc.save

                                                                                

     bravais-lattice index     =            3
     lattice parameter (alat)  =       7.8683  a.u.
     unit-cell volume          =     243.5634 (a.u.)^3
     number of atoms/cell      =            1
     number of atomic types    =            1
     kinetic-energy cut-off    =      40.0000  Ry
     charge density cut-off    =     320.0000  Ry
     convergence threshold     =      1.0E-16
     beta                      =       0.7000
     number of iterations used =            4
     Exchange-correlation      = SLA  PW   PBE  PBE ( 1  4  3  4 0 0)


     celldm(1)=    7.86830  celldm(2)=    0.00000  celldm(3)=    0.00000
     celldm(4)=    0.00000  celldm(5)=    0.00000  celldm(6)=    0.00000

     crystal axes: (cart. coord. in units of alat)
               a(1) = (  0.5000  0.5000  0.5000 )  
               a(2) = ( -0.5000  0.5000  0.5000 )  
               a(3) = ( -0.5000 -0.5000  0.5000 )  

     reciprocal axes: (cart. coord. in units 2 pi/alat)
               b(1) = (  1.0000  0.0000  1.0000 )  
               b(2) = ( -1.0000  1.0000  0.0000 )  
               b(3) = (  0.0000 -1.0000  1.0000 )  


     Atoms inside the unit cell: 

     Cartesian axes

     site n.  atom      mass           positions (alat units)
        1     Na  22.9900   tau(    1) = (    0.00000    0.00000    0.00000  )

     Computing dynamical matrix for 
                    q = (   0.0000000  -0.3333333   0.3333333 )

      4 Sym.Ops. (no q -> -q+G )


     G cutoff =  501.8242  (   1465 G-vectors)     FFT grid: ( 40, 40, 40)
     G cutoff =  250.9121  (    526 G-vectors)  smooth grid: ( 27, 27, 27)

     number of k points=  4400  Marzari-Vanderbilt smearing, width (Ry)=  0.0200

     PseudoPot. # 1 for Na read from file:
     /home/s1333534/quantum_espresso/qe-6.1/pseudo/Na_pbe_v1.uspp.F.UPF
     MD5 check sum: 76a99c7e9422403d3e93cbc85ab7bccb
     Pseudo is Ultrasoft, Zval =  9.0
     Generated by new atomic code, or converted to UPF format
     Using radial grid of  819 points,  5 beta functions with: 
                l(1) =   0
                l(2) =   0
                l(3) =   1
                l(4) =   1
                l(5) =   2
     Q(r) pseudized with  8 coefficients,  rinner =    1.250   1.250   1.250
                                                       1.250   1.250

     Mode symmetry, C_2v (mm2)  point group:


     Atomic displacements:
     There are   3 irreducible representations

     Representation     1      1 modes -A_1  D_1  S_1  To be done

     Representation     2      1 modes -B_1  D_3  S_3  To be done

     Representation     3      1 modes -B_2  D_4  S_4  To be done



     Alpha used in Ewald sum =   2.8000
     PHONON       :  7m10.32s CPU     7m44.52s WALL



     Representation #  1 mode #   1

     Self-consistent Calculation

      iter #   1 total cpu time :   473.5 secs   av.it.:   5.7
      thresh= 1.000E-02 alpha_mix =  0.700 |ddv_scf|^2 =  3.952E-04

      iter #   2 total cpu time :   482.7 secs   av.it.:   6.7
      thresh= 1.988E-03 alpha_mix =  0.700 |ddv_scf|^2 =  2.265E-03

      iter #   3 total cpu time :   490.7 secs   av.it.:   5.8
      thresh= 4.759E-03 alpha_mix =  0.700 |ddv_scf|^2 =  4.318E-07

      iter #   4 total cpu time :   500.8 secs   av.it.:   7.8
      thresh= 6.571E-05 alpha_mix =  0.700 |ddv_scf|^2 =  7.625E-09

      iter #   5 total cpu time :   511.1 secs   av.it.:   8.3
      thresh= 8.732E-06 alpha_mix =  0.700 |ddv_scf|^2 =  3.567E-10

      iter #   6 total cpu time :   521.1 secs   av.it.:   8.1
      thresh= 1.889E-06 alpha_mix =  0.700 |ddv_scf|^2 =  1.478E-11

      iter #   7 total cpu time :   531.3 secs   av.it.:   7.9
      thresh= 3.844E-07 alpha_mix =  0.700 |ddv_scf|^2 =  6.025E-14

      iter #   8 total cpu time :   541.2 secs   av.it.:   8.0
      thresh= 2.455E-08 alpha_mix =  0.700 |ddv_scf|^2 =  1.678E-13

      iter #   9 total cpu time :   549.9 secs   av.it.:   6.4
      thresh= 4.096E-08 alpha_mix =  0.700 |ddv_scf|^2 =  2.076E-14

      iter #  10 total cpu time :   558.8 secs   av.it.:   7.0
      thresh= 1.441E-08 alpha_mix =  0.700 |ddv_scf|^2 =  1.852E-15

      iter #  11 total cpu time :   568.5 secs   av.it.:   7.8
      thresh= 4.303E-09 alpha_mix =  0.700 |ddv_scf|^2 =  2.495E-17

     End of self-consistent calculation

     Convergence has been achieved 


     Representation #  2 mode #   2

     Self-consistent Calculation

      iter #   1 total cpu time :   577.2 secs   av.it.:   5.5
      thresh= 1.000E-02 alpha_mix =  0.700 |ddv_scf|^2 =  9.374E-06

      iter #   2 total cpu time :   586.9 secs   av.it.:   7.7
      thresh= 3.062E-04 alpha_mix =  0.700 |ddv_scf|^2 =  1.638E-07

      iter #   3 total cpu time :   598.4 secs   av.it.:   7.9
      thresh= 4.047E-05 alpha_mix =  0.700 |ddv_scf|^2 =  4.727E-09

      iter #   4 total cpu time :   607.9 secs   av.it.:   7.5
      thresh= 6.876E-06 alpha_mix =  0.700 |ddv_scf|^2 =  1.498E-11

      iter #   5 total cpu time :   618.1 secs   av.it.:   7.8
      thresh= 3.870E-07 alpha_mix =  0.700 |ddv_scf|^2 =  2.168E-14

      iter #   6 total cpu time :   627.4 secs   av.it.:   7.4
      thresh= 1.472E-08 alpha_mix =  0.700 |ddv_scf|^2 =  7.591E-16

      iter #   7 total cpu time :   637.0 secs   av.it.:   7.8
      thresh= 2.755E-09 alpha_mix =  0.700 |ddv_scf|^2 =  8.661E-19

     End of self-consistent calculation

     Convergence has been achieved 


     Representation #  3 mode #   3

     Self-consistent Calculation

      iter #   1 total cpu time :   647.0 secs   av.it.:   5.5
      thresh= 1.000E-02 alpha_mix =  0.700 |ddv_scf|^2 =  1.034E-05

      iter #   2 total cpu time :   656.8 secs   av.it.:   7.7
      thresh= 3.215E-04 alpha_mix =  0.700 |ddv_scf|^2 =  1.628E-07

      iter #   3 total cpu time :   666.7 secs   av.it.:   7.9
      thresh= 4.035E-05 alpha_mix =  0.700 |ddv_scf|^2 =  8.319E-09

      iter #   4 total cpu time :   676.3 secs   av.it.:   7.5
      thresh= 9.121E-06 alpha_mix =  0.700 |ddv_scf|^2 =  2.650E-11

      iter #   5 total cpu time :   686.0 secs   av.it.:   7.8
      thresh= 5.148E-07 alpha_mix =  0.700 |ddv_scf|^2 =  2.879E-14

      iter #   6 total cpu time :   694.6 secs   av.it.:   6.6
      thresh= 1.697E-08 alpha_mix =  0.700 |ddv_scf|^2 =  1.768E-15

      iter #   7 total cpu time :   704.4 secs   av.it.:   7.7
      thresh= 4.204E-09 alpha_mix =  0.700 |ddv_scf|^2 =  1.834E-18

     End of self-consistent calculation

     Convergence has been achieved 

     Number of q in the star =   12
     List of q in the star:
          1   0.000000000  -0.333333333   0.333333333
          2  -0.333333333   0.000000000   0.333333333
          3   0.333333333   0.000000000   0.333333333
          4   0.000000000   0.333333333   0.333333333
          5   0.333333333   0.333333333   0.000000000
          6  -0.333333333   0.333333333   0.000000000
          7   0.333333333  -0.333333333   0.000000000
          8  -0.333333333  -0.333333333   0.000000000
          9  -0.333333333   0.000000000  -0.333333333
         10   0.000000000  -0.333333333  -0.333333333
         11   0.000000000   0.333333333  -0.333333333
         12   0.333333333   0.000000000  -0.333333333

     Diagonalizing the dynamical matrix

     q = (    0.000000000  -0.333333333   0.333333333 ) 

 **************************************************************************
     freq (    1) =       0.860003 [THz] =      28.686619 [cm-1]
     freq (    2) =       2.337690 [THz] =      77.976934 [cm-1]
     freq (    3) =       3.544386 [THz] =     118.227998 [cm-1]
 **************************************************************************

     Mode symmetry, C_2v (mm2)  point group:

     freq (  1 -  1) =         28.7  [cm-1]   --> B_1  D_3  S_3      
     freq (  2 -  2) =         78.0  [cm-1]   --> B_2  D_4  S_4      
     freq (  3 -  3) =        118.2  [cm-1]   --> A_1  D_1  S_1      

     Calculation of q =    0.0000000   0.5000000  -0.5000000

   Info: using nr1, nr2, nr3 values from input

   Info: using nr1, nr2, nr3 values from input

     Parallelization info
     --------------------
     sticks:   dense  smooth     PW     G-vecs:    dense   smooth      PW
     Min          69      34     12                 1464      523     115
     Max          70      35     13                 1468      526     118
     Sum        1113     557    205                23455     8391    1865



     bravais-lattice index     =            3
     lattice parameter (alat)  =       7.8683  a.u.
     unit-cell volume          =     243.5634 (a.u.)^3
     number of atoms/cell      =            1
     number of atomic types    =            1
     number of electrons       =         9.00
     number of Kohn-Sham states=            9
     kinetic-energy cutoff     =      40.0000  Ry
     charge density cutoff     =     320.0000  Ry
     Exchange-correlation      = SLA  PW   PBE  PBE ( 1  4  3  4 0 0)

     celldm(1)=   7.868296  celldm(2)=   0.000000  celldm(3)=   0.000000
     celldm(4)=   0.000000  celldm(5)=   0.000000  celldm(6)=   0.000000

     crystal axes: (cart. coord. in units of alat)
               a(1) = (   0.500000   0.500000   0.500000 )  
               a(2) = (  -0.500000   0.500000   0.500000 )  
               a(3) = (  -0.500000  -0.500000   0.500000 )  

     reciprocal axes: (cart. coord. in units 2 pi/alat)
               b(1) = (  1.000000  0.000000  1.000000 )  
               b(2) = ( -1.000000  1.000000  0.000000 )  
               b(3) = (  0.000000 -1.000000  1.000000 )  


     PseudoPot. # 1 for Na read from file:
     /home/s1333534/quantum_espresso/qe-6.1/pseudo/Na_pbe_v1.uspp.F.UPF
     MD5 check sum: 76a99c7e9422403d3e93cbc85ab7bccb
     Pseudo is Ultrasoft, Zval =  9.0
     Generated by new atomic code, or converted to UPF format
     Using radial grid of  819 points,  5 beta functions with: 
                l(1) =   0
                l(2) =   0
                l(3) =   1
                l(4) =   1
                l(5) =   2
     Q(r) pseudized with  8 coefficients,  rinner =    1.250   1.250   1.250
                                                       1.250   1.250

     atomic species   valence    mass     pseudopotential
        Na             9.00    22.99000     Na( 1.00)

     48 Sym. Ops., with inversion, found



   Cartesian axes

     site n.     atom                  positions (alat units)
         1           Na  tau(   1) = (   0.0000000   0.0000000   0.0000000  )

     number of k points=  2310  Marzari-Vanderbilt smearing, width (Ry)=  0.0200

     Number of k-points >= 100: set verbosity='high' to print them.

     Dense  grid:    23455 G-vectors     FFT dimensions: (  40,  40,  40)

     Smooth grid:     8391 G-vectors     FFT dimensions: (  27,  27,  27)

     Estimated max dynamical RAM per process >       0.81MB

     Estimated total allocated dynamical RAM >      51.54MB

     The potential is recalculated from file :
     ./_ph0/na.bcc.save/charge-density.dat

     Starting wfc are    5 atomic +    4 random wfc

     Band Structure Calculation
     Davidson diagonalization with overlap

     ethr =  1.11E-10,  avg # of iterations = 21.1

     total cpu time spent up to now is      211.1 secs

     End of band structure calculation

     Number of k-points >= 100: set verbosity='high' to print the bands.

     the Fermi energy is     1.7192 ev

     Writing output data file na.bcc.save

                                                                                

     bravais-lattice index     =            3
     lattice parameter (alat)  =       7.8683  a.u.
     unit-cell volume          =     243.5634 (a.u.)^3
     number of atoms/cell      =            1
     number of atomic types    =            1
     kinetic-energy cut-off    =      40.0000  Ry
     charge density cut-off    =     320.0000  Ry
     convergence threshold     =      1.0E-16
     beta                      =       0.7000
     number of iterations used =            4
     Exchange-correlation      = SLA  PW   PBE  PBE ( 1  4  3  4 0 0)


     celldm(1)=    7.86830  celldm(2)=    0.00000  celldm(3)=    0.00000
     celldm(4)=    0.00000  celldm(5)=    0.00000  celldm(6)=    0.00000

     crystal axes: (cart. coord. in units of alat)
               a(1) = (  0.5000  0.5000  0.5000 )  
               a(2) = ( -0.5000  0.5000  0.5000 )  
               a(3) = ( -0.5000 -0.5000  0.5000 )  

     reciprocal axes: (cart. coord. in units 2 pi/alat)
               b(1) = (  1.0000  0.0000  1.0000 )  
               b(2) = ( -1.0000  1.0000  0.0000 )  
               b(3) = (  0.0000 -1.0000  1.0000 )  


     Atoms inside the unit cell: 

     Cartesian axes

     site n.  atom      mass           positions (alat units)
        1     Na  22.9900   tau(    1) = (    0.00000    0.00000    0.00000  )

     Computing dynamical matrix for 
                    q = (   0.0000000   0.5000000  -0.5000000 )

      9 Sym.Ops. (with q -> -q+G )


     G cutoff =  501.8242  (   1465 G-vectors)     FFT grid: ( 40, 40, 40)
     G cutoff =  250.9121  (    526 G-vectors)  smooth grid: ( 27, 27, 27)

     number of k points=  2310  Marzari-Vanderbilt smearing, width (Ry)=  0.0200

     PseudoPot. # 1 for Na read from file:
     /home/s1333534/quantum_espresso/qe-6.1/pseudo/Na_pbe_v1.uspp.F.UPF
     MD5 check sum: 76a99c7e9422403d3e93cbc85ab7bccb
     Pseudo is Ultrasoft, Zval =  9.0
     Generated by new atomic code, or converted to UPF format
     Using radial grid of  819 points,  5 beta functions with: 
                l(1) =   0
                l(2) =   0
                l(3) =   1
                l(4) =   1
                l(5) =   2
     Q(r) pseudized with  8 coefficients,  rinner =    1.250   1.250   1.250
                                                       1.250   1.250

     Mode symmetry, D_2h (mmm)  point group:


     Atomic displacements:
     There are   3 irreducible representations

     Representation     1      1 modes -B_1u  To be done

     Representation     2      1 modes -B_2u  To be done

     Representation     3      1 modes -B_3u  To be done



     Alpha used in Ewald sum =   2.8000
     PHONON       : 11m35.59s CPU    12m32.59s WALL



     Representation #  1 mode #   1

     Self-consistent Calculation

      iter #   1 total cpu time :   757.2 secs   av.it.:   5.5
      thresh= 1.000E-02 alpha_mix =  0.700 |ddv_scf|^2 =  1.084E-05

      iter #   2 total cpu time :   762.5 secs   av.it.:   7.7
      thresh= 3.292E-04 alpha_mix =  0.700 |ddv_scf|^2 =  1.607E-07

      iter #   3 total cpu time :   767.7 secs   av.it.:   7.8
      thresh= 4.009E-05 alpha_mix =  0.700 |ddv_scf|^2 =  1.040E-08

      iter #   4 total cpu time :   773.1 secs   av.it.:   7.3
      thresh= 1.020E-05 alpha_mix =  0.700 |ddv_scf|^2 =  3.344E-11

      iter #   5 total cpu time :   778.2 secs   av.it.:   7.6
      thresh= 5.783E-07 alpha_mix =  0.700 |ddv_scf|^2 =  3.116E-14

      iter #   6 total cpu time :   783.2 secs   av.it.:   6.9
      thresh= 1.765E-08 alpha_mix =  0.700 |ddv_scf|^2 =  2.058E-15

      iter #   7 total cpu time :   788.4 secs   av.it.:   7.5
      thresh= 4.536E-09 alpha_mix =  0.700 |ddv_scf|^2 =  1.787E-18

     End of self-consistent calculation

     Convergence has been achieved 


     Representation #  2 mode #   2

     Self-consistent Calculation

      iter #   1 total cpu time :   793.0 secs   av.it.:   5.5
      thresh= 1.000E-02 alpha_mix =  0.700 |ddv_scf|^2 =  9.524E-06

      iter #   2 total cpu time :   798.1 secs   av.it.:   7.7
      thresh= 3.086E-04 alpha_mix =  0.700 |ddv_scf|^2 =  1.606E-07

      iter #   3 total cpu time :   803.7 secs   av.it.:   7.9
      thresh= 4.008E-05 alpha_mix =  0.700 |ddv_scf|^2 =  5.320E-09

      iter #   4 total cpu time :   808.6 secs   av.it.:   7.3
      thresh= 7.294E-06 alpha_mix =  0.700 |ddv_scf|^2 =  1.640E-11

      iter #   5 total cpu time :   813.7 secs   av.it.:   7.7
      thresh= 4.049E-07 alpha_mix =  0.700 |ddv_scf|^2 =  1.911E-14

      iter #   6 total cpu time :   818.6 secs   av.it.:   7.1
      thresh= 1.382E-08 alpha_mix =  0.700 |ddv_scf|^2 =  6.979E-16

      iter #   7 total cpu time :   823.6 secs   av.it.:   7.6
      thresh= 2.642E-09 alpha_mix =  0.700 |ddv_scf|^2 =  4.885E-19

     End of self-consistent calculation

     Convergence has been achieved 


     Representation #  3 mode #   3

     Self-consistent Calculation

      iter #   1 total cpu time :   828.4 secs   av.it.:   5.6
      thresh= 1.000E-02 alpha_mix =  0.700 |ddv_scf|^2 =  7.995E-05

      iter #   2 total cpu time :   833.1 secs   av.it.:   6.8
      thresh= 8.941E-04 alpha_mix =  0.700 |ddv_scf|^2 =  4.061E-05

      iter #   3 total cpu time :   839.0 secs   av.it.:   6.6
      thresh= 6.373E-04 alpha_mix =  0.700 |ddv_scf|^2 =  6.408E-08

      iter #   4 total cpu time :   844.7 secs   av.it.:   7.8
      thresh= 2.531E-05 alpha_mix =  0.700 |ddv_scf|^2 =  2.334E-10

      iter #   5 total cpu time :   849.4 secs   av.it.:   6.7
      thresh= 1.528E-06 alpha_mix =  0.700 |ddv_scf|^2 =  4.167E-12

      iter #   6 total cpu time :   854.4 secs   av.it.:   6.7
      thresh= 2.041E-07 alpha_mix =  0.700 |ddv_scf|^2 =  1.480E-14

      iter #   7 total cpu time :   859.6 secs   av.it.:   7.3
      thresh= 1.216E-08 alpha_mix =  0.700 |ddv_scf|^2 =  4.926E-17

     End of self-consistent calculation

     Convergence has been achieved 

     Number of q in the star =    6
     List of q in the star:
          1   0.000000000   0.500000000  -0.500000000
          2  -0.500000000  -0.500000000   0.000000000
          3   0.500000000  -0.500000000   0.000000000
          4   0.500000000   0.000000000   0.500000000
          5   0.000000000  -0.500000000  -0.500000000
          6   0.500000000   0.000000000  -0.500000000

     Diagonalizing the dynamical matrix

     q = (    0.000000000   0.500000000  -0.500000000 ) 

 **************************************************************************
     freq (    1) =       0.974110 [THz] =      32.492827 [cm-1]
     freq (    2) =       2.698673 [THz] =      90.018034 [cm-1]
     freq (    3) =       4.075102 [THz] =     135.930772 [cm-1]
 **************************************************************************

     Mode symmetry, D_2h (mmm)  point group:

     freq (  1 -  1) =         32.5  [cm-1]   --> B_2u               
     freq (  2 -  2) =         90.0  [cm-1]   --> B_1u               
     freq (  3 -  3) =        135.9  [cm-1]   --> B_3u               

     Calculation of q =   -0.1666667  -0.1666667   0.3333333

   Info: using nr1, nr2, nr3 values from input

   Info: using nr1, nr2, nr3 values from input

     Parallelization info
     --------------------
     sticks:   dense  smooth     PW     G-vecs:    dense   smooth      PW
     Min          69      34     12                 1464      523     107
     Max          70      35     13                 1468      526     109
     Sum        1113     557    197                23455     8391    1721



     bravais-lattice index     =            3
     lattice parameter (alat)  =       7.8683  a.u.
     unit-cell volume          =     243.5634 (a.u.)^3
     number of atoms/cell      =            1
     number of atomic types    =            1
     number of electrons       =         9.00
     number of Kohn-Sham states=            9
     kinetic-energy cutoff     =      40.0000  Ry
     charge density cutoff     =     320.0000  Ry
     Exchange-correlation      = SLA  PW   PBE  PBE ( 1  4  3  4 0 0)

     celldm(1)=   7.868296  celldm(2)=   0.000000  celldm(3)=   0.000000
     celldm(4)=   0.000000  celldm(5)=   0.000000  celldm(6)=   0.000000

     crystal axes: (cart. coord. in units of alat)
               a(1) = (   0.500000   0.500000   0.500000 )  
               a(2) = (  -0.500000   0.500000   0.500000 )  
               a(3) = (  -0.500000  -0.500000   0.500000 )  

     reciprocal axes: (cart. coord. in units 2 pi/alat)
               b(1) = (  1.000000  0.000000  1.000000 )  
               b(2) = ( -1.000000  1.000000  0.000000 )  
               b(3) = (  0.000000 -1.000000  1.000000 )  


     PseudoPot. # 1 for Na read from file:
     /home/s1333534/quantum_espresso/qe-6.1/pseudo/Na_pbe_v1.uspp.F.UPF
     MD5 check sum: 76a99c7e9422403d3e93cbc85ab7bccb
     Pseudo is Ultrasoft, Zval =  9.0
     Generated by new atomic code, or converted to UPF format
     Using radial grid of  819 points,  5 beta functions with: 
                l(1) =   0
                l(2) =   0
                l(3) =   1
                l(4) =   1
                l(5) =   2
     Q(r) pseudized with  8 coefficients,  rinner =    1.250   1.250   1.250
                                                       1.250   1.250

     atomic species   valence    mass     pseudopotential
        Na             9.00    22.99000     Na( 1.00)

     48 Sym. Ops., with inversion, found



   Cartesian axes

     site n.     atom                  positions (alat units)
         1           Na  tau(   1) = (   0.0000000   0.0000000   0.0000000  )

     number of k points=  8400  Marzari-Vanderbilt smearing, width (Ry)=  0.0200

     Number of k-points >= 100: set verbosity='high' to print them.

     Dense  grid:    23455 G-vectors     FFT dimensions: (  40,  40,  40)

     Smooth grid:     8391 G-vectors     FFT dimensions: (  27,  27,  27)

     Estimated max dynamical RAM per process >       0.81MB

     Estimated total allocated dynamical RAM >      51.54MB

     The potential is recalculated from file :
     ./_ph0/na.bcc.save/charge-density.dat

     Starting wfc are    5 atomic +    4 random wfc

     Band Structure Calculation
     Davidson diagonalization with overlap

     ethr =  1.11E-10,  avg # of iterations = 21.1

     total cpu time spent up to now is      358.0 secs

     End of band structure calculation

     Number of k-points >= 100: set verbosity='high' to print the bands.

     the Fermi energy is     1.7192 ev

     Writing output data file na.bcc.save

                                                                                

     bravais-lattice index     =            3
     lattice parameter (alat)  =       7.8683  a.u.
     unit-cell volume          =     243.5634 (a.u.)^3
     number of atoms/cell      =            1
     number of atomic types    =            1
     kinetic-energy cut-off    =      40.0000  Ry
     charge density cut-off    =     320.0000  Ry
     convergence threshold     =      1.0E-16
     beta                      =       0.7000
     number of iterations used =            4
     Exchange-correlation      = SLA  PW   PBE  PBE ( 1  4  3  4 0 0)


     celldm(1)=    7.86830  celldm(2)=    0.00000  celldm(3)=    0.00000
     celldm(4)=    0.00000  celldm(5)=    0.00000  celldm(6)=    0.00000

     crystal axes: (cart. coord. in units of alat)
               a(1) = (  0.5000  0.5000  0.5000 )  
               a(2) = ( -0.5000  0.5000  0.5000 )  
               a(3) = ( -0.5000 -0.5000  0.5000 )  

     reciprocal axes: (cart. coord. in units 2 pi/alat)
               b(1) = (  1.0000  0.0000  1.0000 )  
               b(2) = ( -1.0000  1.0000  0.0000 )  
               b(3) = (  0.0000 -1.0000  1.0000 )  


     Atoms inside the unit cell: 

     Cartesian axes

     site n.  atom      mass           positions (alat units)
        1     Na  22.9900   tau(    1) = (    0.00000    0.00000    0.00000  )

     Computing dynamical matrix for 
                    q = (  -0.1666667  -0.1666667   0.3333333 )

      2 Sym.Ops. (no q -> -q+G )


     G cutoff =  501.8242  (   1465 G-vectors)     FFT grid: ( 40, 40, 40)
     G cutoff =  250.9121  (    526 G-vectors)  smooth grid: ( 27, 27, 27)

     number of k points=  8400  Marzari-Vanderbilt smearing, width (Ry)=  0.0200

     PseudoPot. # 1 for Na read from file:
     /home/s1333534/quantum_espresso/qe-6.1/pseudo/Na_pbe_v1.uspp.F.UPF
     MD5 check sum: 76a99c7e9422403d3e93cbc85ab7bccb
     Pseudo is Ultrasoft, Zval =  9.0
     Generated by new atomic code, or converted to UPF format
     Using radial grid of  819 points,  5 beta functions with: 
                l(1) =   0
                l(2) =   0
                l(3) =   1
                l(4) =   1
                l(5) =   2
     Q(r) pseudized with  8 coefficients,  rinner =    1.250   1.250   1.250
                                                       1.250   1.250

     Mode symmetry, C_s (m)     point group:


     Atomic displacements:
     There are   3 irreducible representations

     Representation     1      1 modes -A'  To be done

     Representation     2      1 modes -A'  To be done

     Representation     3      1 modes -A''  To be done



     Alpha used in Ewald sum =   2.8000
     PHONON       : 15m55.43s CPU    17m11.39s WALL



     Representation #  1 mode #   1

     Self-consistent Calculation

      iter #   1 total cpu time :  1048.2 secs   av.it.:   5.6
      thresh= 1.000E-02 alpha_mix =  0.700 |ddv_scf|^2 =  9.869E-05

      iter #   2 total cpu time :  1065.8 secs   av.it.:   7.3
      thresh= 9.934E-04 alpha_mix =  0.700 |ddv_scf|^2 =  1.080E-03

      iter #   3 total cpu time :  1080.3 secs   av.it.:   5.4
      thresh= 3.287E-03 alpha_mix =  0.700 |ddv_scf|^2 =  1.378E-07

      iter #   4 total cpu time :  1099.5 secs   av.it.:   8.3
      thresh= 3.712E-05 alpha_mix =  0.700 |ddv_scf|^2 =  5.754E-09

      iter #   5 total cpu time :  1118.2 secs   av.it.:   7.9
      thresh= 7.586E-06 alpha_mix =  0.700 |ddv_scf|^2 =  1.569E-10

      iter #   6 total cpu time :  1137.7 secs   av.it.:   8.2
      thresh= 1.253E-06 alpha_mix =  0.700 |ddv_scf|^2 =  1.540E-11

      iter #   7 total cpu time :  1156.6 secs   av.it.:   8.1
      thresh= 3.924E-07 alpha_mix =  0.700 |ddv_scf|^2 =  2.154E-11

      iter #   8 total cpu time :  1174.6 secs   av.it.:   7.3
      thresh= 4.641E-07 alpha_mix =  0.700 |ddv_scf|^2 =  2.780E-11

      iter #   9 total cpu time :  1192.1 secs   av.it.:   6.9
      thresh= 5.273E-07 alpha_mix =  0.700 |ddv_scf|^2 =  9.716E-13

      iter #  10 total cpu time :  1209.2 secs   av.it.:   7.0
      thresh= 9.857E-08 alpha_mix =  0.700 |ddv_scf|^2 =  3.088E-15

      iter #  11 total cpu time :  1228.4 secs   av.it.:   8.4
      thresh= 5.557E-09 alpha_mix =  0.700 |ddv_scf|^2 =  1.597E-16

      iter #  12 total cpu time :  1246.9 secs   av.it.:   7.8
      thresh= 1.264E-09 alpha_mix =  0.700 |ddv_scf|^2 =  9.316E-18

     End of self-consistent calculation

     Convergence has been achieved 


     Representation #  2 mode #   2

     Self-consistent Calculation

      iter #   1 total cpu time :  1264.1 secs   av.it.:   5.8
      thresh= 1.000E-02 alpha_mix =  0.700 |ddv_scf|^2 =  8.048E-04

      iter #   2 total cpu time :  1280.5 secs   av.it.:   6.7
      thresh= 2.837E-03 alpha_mix =  0.700 |ddv_scf|^2 =  9.622E-03

      iter #   3 total cpu time :  1295.5 secs   av.it.:   5.4
      thresh= 9.809E-03 alpha_mix =  0.700 |ddv_scf|^2 =  8.520E-07

      iter #   4 total cpu time :  1314.3 secs   av.it.:   7.7
      thresh= 9.230E-05 alpha_mix =  0.700 |ddv_scf|^2 =  6.354E-09

      iter #   5 total cpu time :  1333.5 secs   av.it.:   8.3
      thresh= 7.971E-06 alpha_mix =  0.700 |ddv_scf|^2 =  5.429E-10

      iter #   6 total cpu time :  1352.7 secs   av.it.:   8.2
      thresh= 2.330E-06 alpha_mix =  0.700 |ddv_scf|^2 =  2.055E-11

      iter #   7 total cpu time :  1372.1 secs   av.it.:   8.2
      thresh= 4.534E-07 alpha_mix =  0.700 |ddv_scf|^2 =  3.594E-11

      iter #   8 total cpu time :  1388.1 secs   av.it.:   6.4
      thresh= 5.995E-07 alpha_mix =  0.700 |ddv_scf|^2 =  2.975E-12

      iter #   9 total cpu time :  1405.8 secs   av.it.:   7.3
      thresh= 1.725E-07 alpha_mix =  0.700 |ddv_scf|^2 =  2.385E-13

      iter #  10 total cpu time :  1423.8 secs   av.it.:   7.3
      thresh= 4.884E-08 alpha_mix =  0.700 |ddv_scf|^2 =  4.407E-14

      iter #  11 total cpu time :  1442.4 secs   av.it.:   7.7
      thresh= 2.099E-08 alpha_mix =  0.700 |ddv_scf|^2 =  7.429E-17

     End of self-consistent calculation

     Convergence has been achieved 


     Representation #  3 mode #   3

     Self-consistent Calculation

      iter #   1 total cpu time :  1459.3 secs   av.it.:   5.5
      thresh= 1.000E-02 alpha_mix =  0.700 |ddv_scf|^2 =  1.088E-05

      iter #   2 total cpu time :  1478.4 secs   av.it.:   7.8
      thresh= 3.298E-04 alpha_mix =  0.700 |ddv_scf|^2 =  1.576E-07

      iter #   3 total cpu time :  1497.6 secs   av.it.:   8.0
      thresh= 3.970E-05 alpha_mix =  0.700 |ddv_scf|^2 =  8.760E-09

      iter #   4 total cpu time :  1516.5 secs   av.it.:   7.7
      thresh= 9.359E-06 alpha_mix =  0.700 |ddv_scf|^2 =  6.912E-11

      iter #   5 total cpu time :  1534.7 secs   av.it.:   7.5
      thresh= 8.314E-07 alpha_mix =  0.700 |ddv_scf|^2 =  5.739E-14

      iter #   6 total cpu time :  1554.3 secs   av.it.:   7.5
      thresh= 2.396E-08 alpha_mix =  0.700 |ddv_scf|^2 =  2.933E-15

      iter #   7 total cpu time :  1572.2 secs   av.it.:   7.4
      thresh= 5.416E-09 alpha_mix =  0.700 |ddv_scf|^2 =  1.067E-17

     End of self-consistent calculation

     Convergence has been achieved 

     Number of q in the star =   24
     List of q in the star:
          1  -0.166666667  -0.166666667   0.333333333
          2  -0.166666667  -0.333333333   0.166666667
          3   0.166666667  -0.333333333   0.166666667
          4  -0.166666667   0.333333333  -0.166666667
          5   0.166666667   0.333333333  -0.166666667
          6   0.166666667   0.166666667  -0.333333333
          7  -0.166666667   0.166666667  -0.333333333
          8   0.333333333   0.166666667  -0.166666667
          9  -0.333333333   0.166666667   0.166666667
         10   0.333333333  -0.166666667   0.166666667
         11  -0.333333333  -0.166666667  -0.166666667
         12  -0.166666667  -0.166666667  -0.333333333
         13  -0.166666667   0.333333333   0.166666667
         14  -0.166666667  -0.333333333  -0.166666667
         15  -0.166666667   0.166666667   0.333333333
         16   0.166666667  -0.166666667   0.333333333
         17   0.166666667  -0.333333333  -0.166666667
         18  -0.333333333   0.166666667  -0.166666667
         19   0.333333333   0.166666667   0.166666667
         20  -0.333333333  -0.166666667   0.166666667
         21   0.333333333  -0.166666667  -0.166666667
         22   0.166666667  -0.166666667  -0.333333333
         23   0.166666667   0.166666667   0.333333333
         24   0.166666667   0.333333333   0.166666667

     Diagonalizing the dynamical matrix

     q = (   -0.166666667  -0.166666667   0.333333333 ) 

 **************************************************************************
     freq (    1) =       1.307570 [THz] =      43.615848 [cm-1]
     freq (    2) =       2.054336 [THz] =      68.525271 [cm-1]
     freq (    3) =       3.184084 [THz] =     106.209617 [cm-1]
 **************************************************************************

     Mode symmetry, C_s (m)     point group:

     freq (  1 -  1) =         43.6  [cm-1]   --> A'                 
     freq (  2 -  2) =         68.5  [cm-1]   --> A''                
     freq (  3 -  3) =        106.2  [cm-1]   --> A'                 

     Calculation of q =   -0.1666667   0.6666667  -0.5000000

   Info: using nr1, nr2, nr3 values from input

   Info: using nr1, nr2, nr3 values from input

     Parallelization info
     --------------------
     sticks:   dense  smooth     PW     G-vecs:    dense   smooth      PW
     Min          69      34     13                 1464      523     122
     Max          70      35     14                 1468      526     124
     Sum        1113     557    213                23455     8391    1961



     bravais-lattice index     =            3
     lattice parameter (alat)  =       7.8683  a.u.
     unit-cell volume          =     243.5634 (a.u.)^3
     number of atoms/cell      =            1
     number of atomic types    =            1
     number of electrons       =         9.00
     number of Kohn-Sham states=            9
     kinetic-energy cutoff     =      40.0000  Ry
     charge density cutoff     =     320.0000  Ry
     Exchange-correlation      = SLA  PW   PBE  PBE ( 1  4  3  4 0 0)

     celldm(1)=   7.868296  celldm(2)=   0.000000  celldm(3)=   0.000000
     celldm(4)=   0.000000  celldm(5)=   0.000000  celldm(6)=   0.000000

     crystal axes: (cart. coord. in units of alat)
               a(1) = (   0.500000   0.500000   0.500000 )  
               a(2) = (  -0.500000   0.500000   0.500000 )  
               a(3) = (  -0.500000  -0.500000   0.500000 )  

     reciprocal axes: (cart. coord. in units 2 pi/alat)
               b(1) = (  1.000000  0.000000  1.000000 )  
               b(2) = ( -1.000000  1.000000  0.000000 )  
               b(3) = (  0.000000 -1.000000  1.000000 )  


     PseudoPot. # 1 for Na read from file:
     /home/s1333534/quantum_espresso/qe-6.1/pseudo/Na_pbe_v1.uspp.F.UPF
     MD5 check sum: 76a99c7e9422403d3e93cbc85ab7bccb
     Pseudo is Ultrasoft, Zval =  9.0
     Generated by new atomic code, or converted to UPF format
     Using radial grid of  819 points,  5 beta functions with: 
                l(1) =   0
                l(2) =   0
                l(3) =   1
                l(4) =   1
                l(5) =   2
     Q(r) pseudized with  8 coefficients,  rinner =    1.250   1.250   1.250
                                                       1.250   1.250

     atomic species   valence    mass     pseudopotential
        Na             9.00    22.99000     Na( 1.00)

     48 Sym. Ops., with inversion, found



   Cartesian axes

     site n.     atom                  positions (alat units)
         1           Na  tau(   1) = (   0.0000000   0.0000000   0.0000000  )

     number of k points= 16000  Marzari-Vanderbilt smearing, width (Ry)=  0.0200

     Number of k-points >= 100: set verbosity='high' to print them.

     Dense  grid:    23455 G-vectors     FFT dimensions: (  40,  40,  40)

     Smooth grid:     8391 G-vectors     FFT dimensions: (  27,  27,  27)

     Estimated max dynamical RAM per process >       0.81MB

     Estimated total allocated dynamical RAM >      51.54MB

     The potential is recalculated from file :
     ./_ph0/na.bcc.save/charge-density.dat

     Starting wfc are    5 atomic +    4 random wfc

     Band Structure Calculation
     Davidson diagonalization with overlap

     ethr =  1.11E-10,  avg # of iterations = 21.1

     total cpu time spent up to now is      650.0 secs

     End of band structure calculation

     Number of k-points >= 100: set verbosity='high' to print the bands.

     the Fermi energy is     1.7192 ev

     Writing output data file na.bcc.save

                                                                                

     bravais-lattice index     =            3
     lattice parameter (alat)  =       7.8683  a.u.
     unit-cell volume          =     243.5634 (a.u.)^3
     number of atoms/cell      =            1
     number of atomic types    =            1
     kinetic-energy cut-off    =      40.0000  Ry
     charge density cut-off    =     320.0000  Ry
     convergence threshold     =      1.0E-16
     beta                      =       0.7000
     number of iterations used =            4
     Exchange-correlation      = SLA  PW   PBE  PBE ( 1  4  3  4 0 0)


     celldm(1)=    7.86830  celldm(2)=    0.00000  celldm(3)=    0.00000
     celldm(4)=    0.00000  celldm(5)=    0.00000  celldm(6)=    0.00000

     crystal axes: (cart. coord. in units of alat)
               a(1) = (  0.5000  0.5000  0.5000 )  
               a(2) = ( -0.5000  0.5000  0.5000 )  
               a(3) = ( -0.5000 -0.5000  0.5000 )  

     reciprocal axes: (cart. coord. in units 2 pi/alat)
               b(1) = (  1.0000  0.0000  1.0000 )  
               b(2) = ( -1.0000  1.0000  0.0000 )  
               b(3) = (  0.0000 -1.0000  1.0000 )  


     Atoms inside the unit cell: 

     Cartesian axes

     site n.  atom      mass           positions (alat units)
        1     Na  22.9900   tau(    1) = (    0.00000    0.00000    0.00000  )

     Computing dynamical matrix for 
                    q = (  -0.1666667   0.6666667  -0.5000000 )

     No symmetry!

     G cutoff =  501.8242  (   1465 G-vectors)     FFT grid: ( 40, 40, 40)
     G cutoff =  250.9121  (    526 G-vectors)  smooth grid: ( 27, 27, 27)

     number of k points= 16000  Marzari-Vanderbilt smearing, width (Ry)=  0.0200

     PseudoPot. # 1 for Na read from file:
     /home/s1333534/quantum_espresso/qe-6.1/pseudo/Na_pbe_v1.uspp.F.UPF
     MD5 check sum: 76a99c7e9422403d3e93cbc85ab7bccb
     Pseudo is Ultrasoft, Zval =  9.0
     Generated by new atomic code, or converted to UPF format
     Using radial grid of  819 points,  5 beta functions with: 
                l(1) =   0
                l(2) =   0
                l(3) =   1
                l(4) =   1
                l(5) =   2
     Q(r) pseudized with  8 coefficients,  rinner =    1.250   1.250   1.250
                                                       1.250   1.250

     Mode symmetry, C_1 (1)     point group:


     Atomic displacements:
     There are   3 irreducible representations

     Representation     1      1 modes -A  To be done

     Representation     2      1 modes -A  To be done

     Representation     3      1 modes -A  To be done



     Alpha used in Ewald sum =   2.8000
     PHONON       : 29m20.25s CPU    31m43.60s WALL



     Representation #  1 mode #   1

     Self-consistent Calculation

      iter #   1 total cpu time :  1936.8 secs   av.it.:   5.7
      thresh= 1.000E-02 alpha_mix =  0.700 |ddv_scf|^2 =  1.187E-05

      iter #   2 total cpu time :  1974.3 secs   av.it.:   8.1
      thresh= 3.446E-04 alpha_mix =  0.700 |ddv_scf|^2 =  1.446E-06

      iter #   3 total cpu time :  2011.0 secs   av.it.:   7.6
      thresh= 1.202E-04 alpha_mix =  0.700 |ddv_scf|^2 =  6.881E-07

      iter #   4 total cpu time :  2045.8 secs   av.it.:   7.3
      thresh= 8.295E-05 alpha_mix =  0.700 |ddv_scf|^2 =  4.719E-09

      iter #   5 total cpu time :  2083.8 secs   av.it.:   7.9
      thresh= 6.870E-06 alpha_mix =  0.700 |ddv_scf|^2 =  3.857E-10

      iter #   6 total cpu time :  2121.0 secs   av.it.:   7.9
      thresh= 1.964E-06 alpha_mix =  0.700 |ddv_scf|^2 =  4.206E-12

      iter #   7 total cpu time :  2160.4 secs   av.it.:   8.4
      thresh= 2.051E-07 alpha_mix =  0.700 |ddv_scf|^2 =  2.548E-13

      iter #   8 total cpu time :  2198.8 secs   av.it.:   8.5
      thresh= 5.048E-08 alpha_mix =  0.700 |ddv_scf|^2 =  1.317E-14

      iter #   9 total cpu time :  2237.4 secs   av.it.:   8.5
      thresh= 1.148E-08 alpha_mix =  0.700 |ddv_scf|^2 =  2.271E-16

      iter #  10 total cpu time :  2274.6 secs   av.it.:   7.8
      thresh= 1.507E-09 alpha_mix =  0.700 |ddv_scf|^2 =  1.324E-16

      iter #  11 total cpu time :  2309.0 secs   av.it.:   7.2
      thresh= 1.151E-09 alpha_mix =  0.700 |ddv_scf|^2 =  2.285E-18

     End of self-consistent calculation

     Convergence has been achieved 


     Representation #  2 mode #   2

     Self-consistent Calculation

      iter #   1 total cpu time :  2344.0 secs   av.it.:   5.8
      thresh= 1.000E-02 alpha_mix =  0.700 |ddv_scf|^2 =  4.912E-05

      iter #   2 total cpu time :  2381.0 secs   av.it.:   7.7
      thresh= 7.009E-04 alpha_mix =  0.700 |ddv_scf|^2 =  4.410E-05

      iter #   3 total cpu time :  2414.9 secs   av.it.:   6.9
      thresh= 6.641E-04 alpha_mix =  0.700 |ddv_scf|^2 =  9.571E-08

      iter #   4 total cpu time :  2453.1 secs   av.it.:   8.3
      thresh= 3.094E-05 alpha_mix =  0.700 |ddv_scf|^2 =  4.023E-09

      iter #   5 total cpu time :  2490.7 secs   av.it.:   8.3
      thresh= 6.343E-06 alpha_mix =  0.700 |ddv_scf|^2 =  3.085E-10

      iter #   6 total cpu time :  2528.9 secs   av.it.:   8.3
      thresh= 1.756E-06 alpha_mix =  0.700 |ddv_scf|^2 =  9.842E-12

      iter #   7 total cpu time :  2565.2 secs   av.it.:   7.9
      thresh= 3.137E-07 alpha_mix =  0.700 |ddv_scf|^2 =  5.295E-13

      iter #   8 total cpu time :  2602.0 secs   av.it.:   7.8
      thresh= 7.277E-08 alpha_mix =  0.700 |ddv_scf|^2 =  1.295E-14

      iter #   9 total cpu time :  2638.2 secs   av.it.:   7.5
      thresh= 1.138E-08 alpha_mix =  0.700 |ddv_scf|^2 =  1.453E-15

      iter #  10 total cpu time :  2673.8 secs   av.it.:   7.3
      thresh= 3.812E-09 alpha_mix =  0.700 |ddv_scf|^2 =  4.264E-17

     End of self-consistent calculation

     Convergence has been achieved 


     Representation #  3 mode #   3

     Self-consistent Calculation

      iter #   1 total cpu time :  2707.8 secs   av.it.:   5.8
      thresh= 1.000E-02 alpha_mix =  0.700 |ddv_scf|^2 =  5.486E-05

      iter #   2 total cpu time :  2743.5 secs   av.it.:   7.6
      thresh= 7.407E-04 alpha_mix =  0.700 |ddv_scf|^2 =  4.426E-05

      iter #   3 total cpu time :  2777.6 secs   av.it.:   6.9
      thresh= 6.653E-04 alpha_mix =  0.700 |ddv_scf|^2 =  3.251E-07

      iter #   4 total cpu time :  2814.7 secs   av.it.:   7.7
      thresh= 5.702E-05 alpha_mix =  0.700 |ddv_scf|^2 =  7.617E-09

      iter #   5 total cpu time :  2853.3 secs   av.it.:   8.3
      thresh= 8.727E-06 alpha_mix =  0.700 |ddv_scf|^2 =  2.176E-10

      iter #   6 total cpu time :  2891.0 secs   av.it.:   8.3
      thresh= 1.475E-06 alpha_mix =  0.700 |ddv_scf|^2 =  1.537E-11

      iter #   7 total cpu time :  2928.5 secs   av.it.:   8.3
      thresh= 3.920E-07 alpha_mix =  0.700 |ddv_scf|^2 =  8.481E-13

      iter #   8 total cpu time :  2967.4 secs   av.it.:   8.5
      thresh= 9.209E-08 alpha_mix =  0.700 |ddv_scf|^2 =  5.453E-14

      iter #   9 total cpu time :  3003.2 secs   av.it.:   7.5
      thresh= 2.335E-08 alpha_mix =  0.700 |ddv_scf|^2 =  4.272E-15

      iter #  10 total cpu time :  3039.2 secs   av.it.:   7.7
      thresh= 6.536E-09 alpha_mix =  0.700 |ddv_scf|^2 =  6.479E-17

     End of self-consistent calculation

     Convergence has been achieved 

     Number of q in the star =   48
     List of q in the star:
          1  -0.166666667   0.666666667  -0.500000000
          2   0.666666667  -0.166666667  -0.500000000
          3  -0.166666667   0.500000000  -0.666666667
          4   0.166666667   0.500000000  -0.666666667
          5  -0.166666667  -0.500000000   0.666666667
          6   0.166666667  -0.500000000   0.666666667
          7   0.166666667  -0.666666667   0.500000000
          8  -0.166666667  -0.666666667   0.500000000
          9  -0.500000000  -0.666666667  -0.166666667
         10   0.500000000  -0.666666667   0.166666667
         11  -0.500000000   0.666666667   0.166666667
         12   0.500000000   0.666666667  -0.166666667
         13   0.666666667  -0.166666667   0.500000000
         14   0.666666667  -0.500000000  -0.166666667
         15  -0.166666667  -0.500000000  -0.666666667
         16  -0.166666667   0.500000000   0.666666667
         17   0.666666667   0.166666667  -0.500000000
         18   0.166666667   0.666666667  -0.500000000
         19   0.666666667   0.500000000   0.166666667
         20  -0.666666667   0.500000000  -0.166666667
         21   0.500000000   0.166666667   0.666666667
         22  -0.500000000   0.166666667  -0.666666667
         23   0.500000000   0.666666667   0.166666667
         24   0.500000000  -0.166666667  -0.666666667
         25  -0.666666667   0.166666667   0.500000000
         26  -0.166666667   0.666666667   0.500000000
         27  -0.500000000  -0.166666667   0.666666667
         28   0.166666667   0.666666667   0.500000000
         29  -0.500000000   0.666666667  -0.166666667
         30  -0.666666667  -0.166666667  -0.500000000
         31  -0.666666667  -0.166666667   0.500000000
         32   0.666666667   0.166666667   0.500000000
         33   0.166666667  -0.666666667  -0.500000000
         34  -0.666666667   0.166666667  -0.500000000
         35   0.500000000  -0.666666667  -0.166666667
         36  -0.500000000  -0.666666667   0.166666667
         37  -0.166666667  -0.666666667  -0.500000000
         38  -0.666666667  -0.500000000   0.166666667
         39   0.166666667   0.500000000   0.666666667
         40   0.166666667  -0.500000000  -0.666666667
         41  -0.666666667   0.500000000   0.166666667
         42   0.666666667   0.500000000  -0.166666667
         43  -0.666666667  -0.500000000  -0.166666667
         44   0.666666667  -0.500000000   0.166666667
         45   0.500000000   0.166666667  -0.666666667
         46   0.500000000  -0.166666667   0.666666667
         47  -0.500000000  -0.166666667  -0.666666667
         48  -0.500000000   0.166666667   0.666666667

     Diagonalizing the dynamical matrix

     q = (   -0.166666667   0.666666667  -0.500000000 ) 

 **************************************************************************
     freq (    1) =       1.564110 [THz] =      52.173081 [cm-1]
     freq (    2) =       2.843552 [THz] =      94.850689 [cm-1]
     freq (    3) =       3.877773 [THz] =     129.348593 [cm-1]
 **************************************************************************

     Mode symmetry, C_1 (1)     point group:

     freq (  1 -  1) =         52.2  [cm-1]   --> A                  
     freq (  2 -  2) =         94.9  [cm-1]   --> A                  
     freq (  3 -  3) =        129.3  [cm-1]   --> A                  

     Calculation of q =   -0.3333333   0.6666667  -0.3333333

   Info: using nr1, nr2, nr3 values from input

   Info: using nr1, nr2, nr3 values from input

     Parallelization info
     --------------------
     sticks:   dense  smooth     PW     G-vecs:    dense   smooth      PW
     Min          69      34     13                 1464      523     122
     Max          70      35     14                 1468      526     124
     Sum        1113     557    213                23455     8391    1961



     bravais-lattice index     =            3
     lattice parameter (alat)  =       7.8683  a.u.
     unit-cell volume          =     243.5634 (a.u.)^3
     number of atoms/cell      =            1
     number of atomic types    =            1
     number of electrons       =         9.00
     number of Kohn-Sham states=            9
     kinetic-energy cutoff     =      40.0000  Ry
     charge density cutoff     =     320.0000  Ry
     Exchange-correlation      = SLA  PW   PBE  PBE ( 1  4  3  4 0 0)

     celldm(1)=   7.868296  celldm(2)=   0.000000  celldm(3)=   0.000000
     celldm(4)=   0.000000  celldm(5)=   0.000000  celldm(6)=   0.000000

     crystal axes: (cart. coord. in units of alat)
               a(1) = (   0.500000   0.500000   0.500000 )  
               a(2) = (  -0.500000   0.500000   0.500000 )  
               a(3) = (  -0.500000  -0.500000   0.500000 )  

     reciprocal axes: (cart. coord. in units 2 pi/alat)
               b(1) = (  1.000000  0.000000  1.000000 )  
               b(2) = ( -1.000000  1.000000  0.000000 )  
               b(3) = (  0.000000 -1.000000  1.000000 )  


     PseudoPot. # 1 for Na read from file:
     /home/s1333534/quantum_espresso/qe-6.1/pseudo/Na_pbe_v1.uspp.F.UPF
     MD5 check sum: 76a99c7e9422403d3e93cbc85ab7bccb
     Pseudo is Ultrasoft, Zval =  9.0
     Generated by new atomic code, or converted to UPF format
     Using radial grid of  819 points,  5 beta functions with: 
                l(1) =   0
                l(2) =   0
                l(3) =   1
                l(4) =   1
                l(5) =   2
     Q(r) pseudized with  8 coefficients,  rinner =    1.250   1.250   1.250
                                                       1.250   1.250

     atomic species   valence    mass     pseudopotential
        Na             9.00    22.99000     Na( 1.00)

     48 Sym. Ops., with inversion, found



   Cartesian axes

     site n.     atom                  positions (alat units)
         1           Na  tau(   1) = (   0.0000000   0.0000000   0.0000000  )

     number of k points=  3080  Marzari-Vanderbilt smearing, width (Ry)=  0.0200

     Number of k-points >= 100: set verbosity='high' to print them.

     Dense  grid:    23455 G-vectors     FFT dimensions: (  40,  40,  40)

     Smooth grid:     8391 G-vectors     FFT dimensions: (  27,  27,  27)

     Estimated max dynamical RAM per process >       0.81MB

     Estimated total allocated dynamical RAM >      51.54MB

     The potential is recalculated from file :
     ./_ph0/na.bcc.save/charge-density.dat

     Starting wfc are    5 atomic +    4 random wfc

     Band Structure Calculation
     Davidson diagonalization with overlap

     ethr =  1.11E-10,  avg # of iterations = 21.4

     total cpu time spent up to now is      752.7 secs

     End of band structure calculation

     Number of k-points >= 100: set verbosity='high' to print the bands.

     the Fermi energy is     1.7192 ev

     Writing output data file na.bcc.save

                                                                                

     bravais-lattice index     =            3
     lattice parameter (alat)  =       7.8683  a.u.
     unit-cell volume          =     243.5634 (a.u.)^3
     number of atoms/cell      =            1
     number of atomic types    =            1
     kinetic-energy cut-off    =      40.0000  Ry
     charge density cut-off    =     320.0000  Ry
     convergence threshold     =      1.0E-16
     beta                      =       0.7000
     number of iterations used =            4
     Exchange-correlation      = SLA  PW   PBE  PBE ( 1  4  3  4 0 0)


     celldm(1)=    7.86830  celldm(2)=    0.00000  celldm(3)=    0.00000
     celldm(4)=    0.00000  celldm(5)=    0.00000  celldm(6)=    0.00000

     crystal axes: (cart. coord. in units of alat)
               a(1) = (  0.5000  0.5000  0.5000 )  
               a(2) = ( -0.5000  0.5000  0.5000 )  
               a(3) = ( -0.5000 -0.5000  0.5000 )  

     reciprocal axes: (cart. coord. in units 2 pi/alat)
               b(1) = (  1.0000  0.0000  1.0000 )  
               b(2) = ( -1.0000  1.0000  0.0000 )  
               b(3) = (  0.0000 -1.0000  1.0000 )  


     Atoms inside the unit cell: 

     Cartesian axes

     site n.  atom      mass           positions (alat units)
        1     Na  22.9900   tau(    1) = (    0.00000    0.00000    0.00000  )

     Computing dynamical matrix for 
                    q = (  -0.3333333   0.6666667  -0.3333333 )

      6 Sym.Ops. (no q -> -q+G )


     G cutoff =  501.8242  (   1465 G-vectors)     FFT grid: ( 40, 40, 40)
     G cutoff =  250.9121  (    526 G-vectors)  smooth grid: ( 27, 27, 27)

     number of k points=  3080  Marzari-Vanderbilt smearing, width (Ry)=  0.0200

     PseudoPot. # 1 for Na read from file:
     /home/s1333534/quantum_espresso/qe-6.1/pseudo/Na_pbe_v1.uspp.F.UPF
     MD5 check sum: 76a99c7e9422403d3e93cbc85ab7bccb
     Pseudo is Ultrasoft, Zval =  9.0
     Generated by new atomic code, or converted to UPF format
     Using radial grid of  819 points,  5 beta functions with: 
                l(1) =   0
                l(2) =   0
                l(3) =   1
                l(4) =   1
                l(5) =   2
     Q(r) pseudized with  8 coefficients,  rinner =    1.250   1.250   1.250
                                                       1.250   1.250

     Mode symmetry, C_3v (3m)   point group:


     Atomic displacements:
     There are   2 irreducible representations

     Representation     1      1 modes -A_1  L_1  To be done

     Representation     2      2 modes -E    L_3  To be done



     Alpha used in Ewald sum =   2.8000
     PHONON       : 47m34.78s CPU    51m44.54s WALL



     Representation #  1 mode #   1

     Self-consistent Calculation

      iter #   1 total cpu time :  3110.6 secs   av.it.:   5.4
      thresh= 1.000E-02 alpha_mix =  0.700 |ddv_scf|^2 =  1.018E-05

      iter #   2 total cpu time :  3117.6 secs   av.it.:   7.7
      thresh= 3.191E-04 alpha_mix =  0.700 |ddv_scf|^2 =  1.607E-07

      iter #   3 total cpu time :  3125.3 secs   av.it.:   8.0
      thresh= 4.009E-05 alpha_mix =  0.700 |ddv_scf|^2 =  7.729E-09

      iter #   4 total cpu time :  3132.4 secs   av.it.:   7.6
      thresh= 8.791E-06 alpha_mix =  0.700 |ddv_scf|^2 =  9.077E-11

      iter #   5 total cpu time :  3138.8 secs   av.it.:   6.9
      thresh= 9.527E-07 alpha_mix =  0.700 |ddv_scf|^2 =  3.695E-12

      iter #   6 total cpu time :  3145.9 secs   av.it.:   7.9
      thresh= 1.922E-07 alpha_mix =  0.700 |ddv_scf|^2 =  1.804E-14

      iter #   7 total cpu time :  3153.2 secs   av.it.:   8.4
      thresh= 1.343E-08 alpha_mix =  0.700 |ddv_scf|^2 =  2.036E-15

      iter #   8 total cpu time :  3160.7 secs   av.it.:   8.1
      thresh= 4.512E-09 alpha_mix =  0.700 |ddv_scf|^2 =  5.466E-17

     End of self-consistent calculation

     Convergence has been achieved 


     Representation #  2 modes #   2  3

     Self-consistent Calculation

      iter #   1 total cpu time :  3173.4 secs   av.it.:   5.6
      thresh= 1.000E-02 alpha_mix =  0.700 |ddv_scf|^2 =  7.769E-06

      iter #   2 total cpu time :  3188.5 secs   av.it.:   8.2
      thresh= 2.787E-04 alpha_mix =  0.700 |ddv_scf|^2 =  9.407E-07

      iter #   3 total cpu time :  3202.7 secs   av.it.:   7.7
      thresh= 9.699E-05 alpha_mix =  0.700 |ddv_scf|^2 =  7.886E-09

      iter #   4 total cpu time :  3217.5 secs   av.it.:   8.6
      thresh= 8.880E-06 alpha_mix =  0.700 |ddv_scf|^2 =  6.654E-11

      iter #   5 total cpu time :  3232.2 secs   av.it.:   8.0
      thresh= 8.157E-07 alpha_mix =  0.700 |ddv_scf|^2 =  6.897E-14

      iter #   6 total cpu time :  3246.4 secs   av.it.:   8.2
      thresh= 2.626E-08 alpha_mix =  0.700 |ddv_scf|^2 =  4.417E-15

      iter #   7 total cpu time :  3260.9 secs   av.it.:   8.3
      thresh= 6.646E-09 alpha_mix =  0.700 |ddv_scf|^2 =  1.574E-17

     End of self-consistent calculation

     Convergence has been achieved 

     Number of q in the star =    8
     List of q in the star:
          1  -0.333333333   0.666666667  -0.333333333
          2   0.333333333  -0.666666667   0.333333333
          3  -0.333333333  -0.666666667   0.333333333
          4  -0.333333333  -0.666666667  -0.333333333
          5  -0.333333333   0.666666667   0.333333333
          6   0.333333333   0.666666667  -0.333333333
          7  -0.666666667   0.333333333  -0.333333333
          8   0.333333333   0.666666667   0.333333333

     Diagonalizing the dynamical matrix

     q = (   -0.333333333   0.666666667  -0.333333333 ) 

 **************************************************************************
     freq (    1) =       1.879453 [THz] =      62.691819 [cm-1]
     freq (    2) =       3.569986 [THz] =     119.081908 [cm-1]
     freq (    3) =       3.569986 [THz] =     119.081908 [cm-1]
 **************************************************************************

     Mode symmetry, C_3v (3m)   point group:

     freq (  1 -  1) =         62.7  [cm-1]   --> A_1  L_1           
     freq (  2 -  3) =        119.1  [cm-1]   --> E    L_3           

     Calculation of q =    0.0000000   0.0000000   0.3333333

   Info: using nr1, nr2, nr3 values from input

   Info: using nr1, nr2, nr3 values from input

     Parallelization info
     --------------------
     sticks:   dense  smooth     PW     G-vecs:    dense   smooth      PW
     Min          69      34     11                 1464      523      99
     Max          70      35     12                 1468      526     101
     Sum        1113     557    181                23455     8391    1601



     bravais-lattice index     =            3
     lattice parameter (alat)  =       7.8683  a.u.
     unit-cell volume          =     243.5634 (a.u.)^3
     number of atoms/cell      =            1
     number of atomic types    =            1
     number of electrons       =         9.00
     number of Kohn-Sham states=            9
     kinetic-energy cutoff     =      40.0000  Ry
     charge density cutoff     =     320.0000  Ry
     Exchange-correlation      = SLA  PW   PBE  PBE ( 1  4  3  4 0 0)

     celldm(1)=   7.868296  celldm(2)=   0.000000  celldm(3)=   0.000000
     celldm(4)=   0.000000  celldm(5)=   0.000000  celldm(6)=   0.000000

     crystal axes: (cart. coord. in units of alat)
               a(1) = (   0.500000   0.500000   0.500000 )  
               a(2) = (  -0.500000   0.500000   0.500000 )  
               a(3) = (  -0.500000  -0.500000   0.500000 )  

     reciprocal axes: (cart. coord. in units 2 pi/alat)
[...]

     PseudoPot. # 1 for Na read from file:
     /home/s1333534/quantum_espresso/qe-6.1/pseudo/Na_pbe_v1.uspp.F.UPF
     MD5 check sum: 76a99c7e9422403d3e93cbc85ab7bccb
     Pseudo is Ultrasoft, Zval =  9.0
     Generated by new atomic code, or converted to UPF format
     Using radial grid of  819 points,  5 beta functions with: 
                l(1) =   0
                l(2) =   0
                l(3) =   1
                l(4) =   1
                l(5) =   2
     Q(r) pseudized with  8 coefficients,  rinner =    1.250   1.250   1.250
                                                       1.250   1.250

     Mode symmetry, C_2v (mm2)  point group:


     Atomic displacements:
     There are   3 irreducible representations

     Representation     1      1 modes -A_1  D_1  S_1  To be done

     Representation     2      1 modes -B_1  D_3  S_3  To be done

     Representation     3      1 modes -B_2  D_4  S_4  To be done



     Alpha used in Ewald sum =   2.8000
     PHONON       :     1h32m CPU        1h39m WALL



     Representation #  1 mode #   1

     Self-consistent Calculation

      iter #   1 total cpu time :  6004.1 secs   av.it.:   5.6
      thresh= 1.000E-02 alpha_mix =  0.700 |ddv_scf|^2 =  1.777E-05

      iter #   2 total cpu time :  6014.6 secs   av.it.:   7.9
      thresh= 4.215E-04 alpha_mix =  0.700 |ddv_scf|^2 =  8.636E-07

      iter #   3 total cpu time :  6024.8 secs   av.it.:   7.7
      thresh= 9.293E-05 alpha_mix =  0.700 |ddv_scf|^2 =  2.046E-08

      iter #   4 total cpu time :  6035.2 secs   av.it.:   8.1
      thresh= 1.430E-05 alpha_mix =  0.700 |ddv_scf|^2 =  1.340E-09

      iter #   5 total cpu time :  6045.5 secs   av.it.:   8.1
      thresh= 3.660E-06 alpha_mix =  0.700 |ddv_scf|^2 =  1.012E-10

      iter #   6 total cpu time :  6055.9 secs   av.it.:   7.9
      thresh= 1.006E-06 alpha_mix =  0.700 |ddv_scf|^2 =  8.315E-13

      iter #   7 total cpu time :  6066.1 secs   av.it.:   8.1
      thresh= 9.118E-08 alpha_mix =  0.700 |ddv_scf|^2 =  5.551E-14

      iter #   8 total cpu time :  6076.3 secs   av.it.:   8.1
      thresh= 2.356E-08 alpha_mix =  0.700 |ddv_scf|^2 =  1.045E-16

      iter #   9 total cpu time :  6086.2 secs   av.it.:   7.5
      thresh= 1.022E-09 alpha_mix =  0.700 |ddv_scf|^2 =  1.098E-17

     End of self-consistent calculation

     Convergence has been achieved 


     Representation #  2 mode #   2

     Self-consistent Calculation

      iter #   1 total cpu time :  6095.2 secs   av.it.:   5.5
      thresh= 1.000E-02 alpha_mix =  0.700 |ddv_scf|^2 =  1.533E-05

      iter #   2 total cpu time :  6105.1 secs   av.it.:   7.7
      thresh= 3.916E-04 alpha_mix =  0.700 |ddv_scf|^2 =  2.088E-07

      iter #   3 total cpu time :  6114.8 secs   av.it.:   7.6
      thresh= 4.570E-05 alpha_mix =  0.700 |ddv_scf|^2 =  1.991E-08

      iter #   4 total cpu time :  6125.2 secs   av.it.:   7.7
      thresh= 1.411E-05 alpha_mix =  0.700 |ddv_scf|^2 =  8.356E-11

      iter #   5 total cpu time :  6135.1 secs   av.it.:   7.7
      thresh= 9.141E-07 alpha_mix =  0.700 |ddv_scf|^2 =  4.013E-14

      iter #   6 total cpu time :  6144.3 secs   av.it.:   7.0
      thresh= 2.003E-08 alpha_mix =  0.700 |ddv_scf|^2 =  2.968E-15

      iter #   7 total cpu time :  6154.5 secs   av.it.:   7.4
      thresh= 5.448E-09 alpha_mix =  0.700 |ddv_scf|^2 =  5.644E-18

     End of self-consistent calculation

     Convergence has been achieved 


     Representation #  3 mode #   3

     Self-consistent Calculation

      iter #   1 total cpu time :  6164.0 secs   av.it.:   5.6
      thresh= 1.000E-02 alpha_mix =  0.700 |ddv_scf|^2 =  2.583E-05

      iter #   2 total cpu time :  6174.1 secs   av.it.:   7.7
      thresh= 5.082E-04 alpha_mix =  0.700 |ddv_scf|^2 =  1.927E-06

      iter #   3 total cpu time :  6183.8 secs   av.it.:   7.3
      thresh= 1.388E-04 alpha_mix =  0.700 |ddv_scf|^2 =  2.814E-08

      iter #   4 total cpu time :  6194.0 secs   av.it.:   7.8
      thresh= 1.677E-05 alpha_mix =  0.700 |ddv_scf|^2 =  8.172E-10

      iter #   5 total cpu time :  6203.5 secs   av.it.:   7.4
      thresh= 2.859E-06 alpha_mix =  0.700 |ddv_scf|^2 =  1.385E-12

      iter #   6 total cpu time :  6215.0 secs   av.it.:   8.0
      thresh= 1.177E-07 alpha_mix =  0.700 |ddv_scf|^2 =  9.949E-15

      iter #   7 total cpu time :  6225.2 secs   av.it.:   7.8
      thresh= 9.974E-09 alpha_mix =  0.700 |ddv_scf|^2 =  1.656E-16

      iter #   8 total cpu time :  6234.9 secs   av.it.:   7.5
      thresh= 1.287E-09 alpha_mix =  0.700 |ddv_scf|^2 =  2.784E-19

     End of self-consistent calculation

     Convergence has been achieved 

     Number of q in the star =   12
     List of q in the star:
          1   0.000000000   0.833333333  -0.166666667
          2   0.000000000  -0.833333333  -0.166666667
          3   0.833333333   0.000000000  -0.166666667
          4  -0.833333333   0.000000000  -0.166666667
          5  -0.166666667  -0.833333333   0.000000000
          6   0.166666667  -0.833333333   0.000000000
          7  -0.166666667   0.833333333   0.000000000
          8   0.166666667   0.833333333   0.000000000
          9   0.833333333   0.000000000   0.166666667
         10   0.000000000   0.166666667  -0.833333333
         11   0.000000000  -0.166666667  -0.833333333
         12   0.166666667   0.000000000  -0.833333333

     Diagonalizing the dynamical matrix

     q = (    0.000000000   0.833333333  -0.166666667 ) 

 **************************************************************************
     freq (    1) =       3.317362 [THz] =     110.655269 [cm-1]
     freq (    2) =       3.614857 [THz] =     120.578653 [cm-1]
     freq (    3) =       3.915787 [THz] =     130.616582 [cm-1]
 **************************************************************************

     Mode symmetry, C_2v (mm2)  point group:

     freq (  1 -  1) =        110.7  [cm-1]   --> A_1  D_1  S_1      
     freq (  2 -  2) =        120.6  [cm-1]   --> B_1  D_3  S_3      
     freq (  3 -  3) =        130.6  [cm-1]   --> B_2  D_4  S_4      

     Calculation of q =    0.0000000   0.0000000  -1.0000000

   Info: using nr1, nr2, nr3 values from input

   Info: using nr1, nr2, nr3 values from input

     Parallelization info
     --------------------
     sticks:   dense  smooth     PW     G-vecs:    dense   smooth      PW
     Min          69      34     12                 1464      523     115
     Max          70      35     13                 1468      526     118
     Sum        1113     557    205                23455     8391    1865



     bravais-lattice index     =            3
     lattice parameter (alat)  =       7.8683  a.u.
     unit-cell volume          =     243.5634 (a.u.)^3
     number of atoms/cell      =            1
     number of atomic types    =            1
     number of electrons       =         9.00
     number of Kohn-Sham states=            9
     kinetic-energy cutoff     =      40.0000  Ry
     charge density cutoff     =     320.0000  Ry
     Exchange-correlation      = SLA  PW   PBE  PBE ( 1  4  3  4 0 0)

     celldm(1)=   7.868296  celldm(2)=   0.000000  celldm(3)=   0.000000
     celldm(4)=   0.000000  celldm(5)=   0.000000  celldm(6)=   0.000000

     crystal axes: (cart. coord. in units of alat)
               a(1) = (   0.500000   0.500000   0.500000 )  
               a(2) = (  -0.500000   0.500000   0.500000 )  
               a(3) = (  -0.500000  -0.500000   0.500000 )  

     reciprocal axes: (cart. coord. in units 2 pi/alat)
               b(1) = (  1.000000  0.000000  1.000000 )  
               b(2) = ( -1.000000  1.000000  0.000000 )  
               b(3) = (  0.000000 -1.000000  1.000000 )  


     PseudoPot. # 1 for Na read from file:
     /home/s1333534/quantum_espresso/qe-6.1/pseudo/Na_pbe_v1.uspp.F.UPF
     MD5 check sum: 76a99c7e9422403d3e93cbc85ab7bccb
     Pseudo is Ultrasoft, Zval =  9.0
     Generated by new atomic code, or converted to UPF format
     Using radial grid of  819 points,  5 beta functions with: 
                l(1) =   0
                l(2) =   0
                l(3) =   1
                l(4) =   1
                l(5) =   2
     Q(r) pseudized with  8 coefficients,  rinner =    1.250   1.250   1.250
                                                       1.250   1.250

     atomic species   valence    mass     pseudopotential
        Na             9.00    22.99000     Na( 1.00)

     48 Sym. Ops., with inversion, found



   Cartesian axes

     site n.     atom                  positions (alat units)
         1           Na  tau(   1) = (   0.0000000   0.0000000   0.0000000  )

     number of k points=   500  Marzari-Vanderbilt smearing, width (Ry)=  0.0200

     Number of k-points >= 100: set verbosity='high' to print them.

     Dense  grid:    23455 G-vectors     FFT dimensions: (  40,  40,  40)

     Smooth grid:     8391 G-vectors     FFT dimensions: (  27,  27,  27)

     Estimated max dynamical RAM per process >       0.81MB

     Estimated total allocated dynamical RAM >      51.54MB

     The potential is recalculated from file :
     ./_ph0/na.bcc.save/charge-density.dat

     Starting wfc are    5 atomic +    4 random wfc

     Band Structure Calculation
     Davidson diagonalization with overlap

     ethr =  1.11E-10,  avg # of iterations = 21.4

     total cpu time spent up to now is     1520.1 secs

     End of band structure calculation

     Number of k-points >= 100: set verbosity='high' to print the bands.

     the Fermi energy is     1.7192 ev

     Writing output data file na.bcc.save

                                                                                

     bravais-lattice index     =            3
     lattice parameter (alat)  =       7.8683  a.u.
     unit-cell volume          =     243.5634 (a.u.)^3
     number of atoms/cell      =            1
     number of atomic types    =            1
     kinetic-energy cut-off    =      40.0000  Ry
     charge density cut-off    =     320.0000  Ry
     convergence threshold     =      1.0E-16
     beta                      =       0.7000
     number of iterations used =            4
     Exchange-correlation      = SLA  PW   PBE  PBE ( 1  4  3  4 0 0)


     celldm(1)=    7.86830  celldm(2)=    0.00000  celldm(3)=    0.00000
     celldm(4)=    0.00000  celldm(5)=    0.00000  celldm(6)=    0.00000

     crystal axes: (cart. coord. in units of alat)
               a(1) = (  0.5000  0.5000  0.5000 )  
               a(2) = ( -0.5000  0.5000  0.5000 )  
               a(3) = ( -0.5000 -0.5000  0.5000 )  

     reciprocal axes: (cart. coord. in units 2 pi/alat)
               b(1) = (  1.0000  0.0000  1.0000 )  
               b(2) = ( -1.0000  1.0000  0.0000 )  
               b(3) = (  0.0000 -1.0000  1.0000 )  


     Atoms inside the unit cell: 

     Cartesian axes

     site n.  atom      mass           positions (alat units)
        1     Na  22.9900   tau(    1) = (    0.00000    0.00000    0.00000  )

     Computing dynamical matrix for 
                    q = (   0.0000000   0.0000000  -1.0000000 )

     49 Sym.Ops. (with q -> -q+G )


     G cutoff =  501.8242  (   1465 G-vectors)     FFT grid: ( 40, 40, 40)
     G cutoff =  250.9121  (    526 G-vectors)  smooth grid: ( 27, 27, 27)

     number of k points=   500  Marzari-Vanderbilt smearing, width (Ry)=  0.0200

     PseudoPot. # 1 for Na read from file:
     /home/s1333534/quantum_espresso/qe-6.1/pseudo/Na_pbe_v1.uspp.F.UPF
     MD5 check sum: 76a99c7e9422403d3e93cbc85ab7bccb
     Pseudo is Ultrasoft, Zval =  9.0
     Generated by new atomic code, or converted to UPF format
     Using radial grid of  819 points,  5 beta functions with: 
                l(1) =   0
                l(2) =   0
                l(3) =   1
                l(4) =   1
                l(5) =   2
     Q(r) pseudized with  8 coefficients,  rinner =    1.250   1.250   1.250
                                                       1.250   1.250

     Mode symmetry, O_h (m-3m)  point group:


     Atomic displacements:
     There are   1 irreducible representations

     Representation     1      3 modes -T_1u G_15  G_4-  To be done



     Alpha used in Ewald sum =   2.8000
     PHONON       :     1h35m CPU        1h44m WALL



     Representation #  1 modes #   1  2  3

     Self-consistent Calculation

      iter #   1 total cpu time :  6250.7 secs   av.it.:   5.7
      thresh= 1.000E-02 alpha_mix =  0.700 |ddv_scf|^2 =  1.901E-06

      iter #   2 total cpu time :  6255.6 secs   av.it.:   8.5
      thresh= 1.379E-04 alpha_mix =  0.700 |ddv_scf|^2 =  3.026E-08

      iter #   3 total cpu time :  6260.1 secs   av.it.:   8.2
      thresh= 1.740E-05 alpha_mix =  0.700 |ddv_scf|^2 =  2.528E-09

      iter #   4 total cpu time :  6264.7 secs   av.it.:   8.4
      thresh= 5.028E-06 alpha_mix =  0.700 |ddv_scf|^2 =  9.789E-12

      iter #   5 total cpu time :  6269.2 secs   av.it.:   8.3
      thresh= 3.129E-07 alpha_mix =  0.700 |ddv_scf|^2 =  3.255E-15

      iter #   6 total cpu time :  6273.6 secs   av.it.:   7.2
      thresh= 5.705E-09 alpha_mix =  0.700 |ddv_scf|^2 =  2.563E-16

      iter #   7 total cpu time :  6278.2 secs   av.it.:   8.0
      thresh= 1.601E-09 alpha_mix =  0.700 |ddv_scf|^2 =  3.531E-19

     End of self-consistent calculation

     Convergence has been achieved 

     Number of q in the star =    1
     List of q in the star:
          1   0.000000000   0.000000000  -1.000000000

     Diagonalizing the dynamical matrix

     q = (    0.000000000   0.000000000  -1.000000000 ) 

 **************************************************************************
     freq (    1) =       3.875059 [THz] =     129.258043 [cm-1]
     freq (    2) =       3.875059 [THz] =     129.258043 [cm-1]
     freq (    3) =       3.875059 [THz] =     129.258043 [cm-1]
 **************************************************************************

     Mode symmetry, O_h (m-3m)  point group:

     freq (  1 -  3) =        129.3  [cm-1]   --> T_1u G_15  G_4-    

     init_run     :      2.37s CPU      2.50s WALL (      15 calls)
     electrons    :   1218.60s CPU   1288.63s WALL (      15 calls)

     Called by init_run:
     wfcinit      :      0.00s CPU      0.01s WALL (      15 calls)
     potinit      :      0.40s CPU      0.41s WALL (      15 calls)

     Called by electrons:
     c_bands      :   1218.28s CPU   1288.27s WALL (      15 calls)
     v_of_rho     :      0.17s CPU      0.18s WALL (      16 calls)
     newd         :      0.15s CPU      0.16s WALL (      16 calls)

     Called by c_bands:
     init_us_2    :     25.93s CPU     28.03s WALL (  335242 calls)
     cegterg      :    928.50s CPU    988.85s WALL (   27056 calls)

     Called by sum_band:

     Called by *egterg:
     h_psi        :   3321.96s CPU   3590.95s WALL ( 3124431 calls)
     s_psi        :     98.26s CPU    108.07s WALL ( 6055563 calls)
     g_psi        :      3.06s CPU      3.31s WALL (  408001 calls)
     cdiaghg      :    258.24s CPU    274.56s WALL (  427263 calls)

     Called by h_psi:
     h_psi:pot    :   3298.37s CPU   3564.81s WALL ( 3124431 calls)
     h_psi:calbec :    189.29s CPU    203.79s WALL ( 3124431 calls)
     vloc_psi     :   3021.30s CPU   3266.24s WALL ( 3124431 calls)
     add_vuspsi   :     53.59s CPU     58.62s WALL ( 3124431 calls)

     General routines
     calbec       :    350.57s CPU    378.59s WALL ( 6597520 calls)
     fft          :      4.95s CPU      5.47s WALL (    6346 calls)
     ffts         :      5.57s CPU      6.25s WALL (   30430 calls)
     fftw         :   3336.48s CPU   3625.22s WALL (30131765 calls)
     interpolate  :      0.92s CPU      1.13s WALL (     870 calls)
     davcio       :     34.60s CPU     83.81s WALL ( 1363218 calls)

     Parallel routines
     fft_scatter  :   1463.80s CPU   1591.18s WALL (30168541 calls)

     PHONON       :     1h36m CPU        1h44m WALL

     INITIALIZATION: 
     phq_setup    :      0.59s CPU      0.62s WALL (      16 calls)
     phq_init     :     62.77s CPU     66.41s WALL (      16 calls)

     phq_init     :     62.77s CPU     66.41s WALL (      16 calls)
     init_vloc    :      0.12s CPU      0.12s WALL (      16 calls)
     init_us_1    :      1.16s CPU      1.25s WALL (      16 calls)
     newd         :      0.15s CPU      0.16s WALL (      16 calls)
     dvanqq       :      0.65s CPU      0.66s WALL (      16 calls)
     drho         :     48.44s CPU     51.36s WALL (      16 calls)

     DYNAMICAL MATRIX:
     dynmat0      :      8.83s CPU      9.18s WALL (      16 calls)
     phqscf       :   4261.83s CPU   4685.63s WALL (      16 calls)
     dynmatrix    :      0.10s CPU      0.11s WALL (      16 calls)

     phqscf       :   4261.83s CPU   4685.63s WALL (      16 calls)
     solve_linter :   4247.52s CPU   4670.23s WALL (      40 calls)
     drhodv       :     13.95s CPU     14.83s WALL (      40 calls)

     dynmat0      :      8.83s CPU      9.18s WALL (      16 calls)
     dynmat_us    :      8.79s CPU      9.13s WALL (      16 calls)
     d2ionq       :      0.01s CPU      0.01s WALL (      16 calls)

     dynmat_us    :      8.79s CPU      9.13s WALL (      16 calls)
     addusdynmat  :      0.00s CPU      0.00s WALL (      16 calls)

     phqscf       :   4261.83s CPU   4685.63s WALL (      16 calls)
     solve_linter :   4247.52s CPU   4670.23s WALL (      40 calls)

     solve_linter :   4247.52s CPU   4670.23s WALL (      40 calls)
     dvqpsi_us    :     81.43s CPU     87.19s WALL (   29082 calls)
     ortho        :     54.32s CPU     58.22s WALL (  261020 calls)
     cgsolve      :   3336.62s CPU   3626.72s WALL (  261020 calls)
     incdrhoscf   :    327.59s CPU    372.90s WALL (  261020 calls)
     addusddens   :      4.92s CPU      4.95s WALL (     381 calls)
     vpsifft      :    266.90s CPU    289.75s WALL (  231938 calls)
     dv_of_drho   :      3.51s CPU      3.93s WALL (     395 calls)
     mix_pot      :      0.62s CPU      2.45s WALL (     341 calls)
     ef_shift     :      0.05s CPU      0.07s WALL (       7 calls)
     localdos     :      0.08s CPU      0.09s WALL (       1 calls)
     psymdvscf    :     29.00s CPU     29.63s WALL (     310 calls)
     newdq        :      4.89s CPU      5.00s WALL (     341 calls)
     adddvscf     :     14.61s CPU     15.65s WALL (  231938 calls)
     drhodvus     :      0.02s CPU      0.03s WALL (      40 calls)

     dvqpsi_us    :     81.43s CPU     87.19s WALL (   29082 calls)
     dvqpsi_us_on :     13.95s CPU     14.64s WALL (   29082 calls)

     cgsolve      :   3336.62s CPU   3626.72s WALL (  261020 calls)
     ch_psi       :   3155.32s CPU   3427.09s WALL ( 2670112 calls)

     ch_psi       :   3155.32s CPU   3427.09s WALL ( 2670112 calls)
     h_psi        :   3321.96s CPU   3590.95s WALL ( 3124431 calls)
     last         :    325.56s CPU    354.99s WALL ( 2670112 calls)

     h_psi        :   3321.96s CPU   3590.95s WALL ( 3124431 calls)
     add_vuspsi   :     53.59s CPU     58.62s WALL ( 3124431 calls)

     incdrhoscf   :    327.59s CPU    372.90s WALL (  261020 calls)
     addusdbec    :     26.32s CPU     27.95s WALL (  290102 calls)

     drhodvus     :      0.02s CPU      0.03s WALL (      40 calls)

      General routines
     calbec       :    350.57s CPU    378.59s WALL ( 6597520 calls)
     fft          :      4.95s CPU      5.47s WALL (    6346 calls)
     ffts         :      5.57s CPU      6.25s WALL (   30430 calls)
     fftw         :   3336.48s CPU   3625.22s WALL (30131765 calls)
     davcio       :     34.60s CPU     83.81s WALL ( 1363218 calls)
     write_rec    :      1.68s CPU      5.58s WALL (     381 calls)


     PHONON       :     1h36m CPU        1h44m WALL


   This run was terminated on:  22: 1:58  30Jan2018            

=------------------------------------------------------------------------------=
   JOB DONE.
=------------------------------------------------------------------------------=
