
     Program PWSCF v.6.1 (svn rev. 13369) starts on 31Jan2018 at 19: 1:35 

     This program is part of the open-source Quantum ESPRESSO suite
     for quantum simulation of materials; please cite
         "P. Giannozzi et al., J. Phys.:Condens. Matter 21 395502 (2009);
          URL http://www.quantum-espresso.org", 
     in publications or presentations arising from this work. More details at
     http://www.quantum-espresso.org/quote

     Parallel version (MPI), running on    64 processors
     K-points division:     npool     =       4
     R & G space division:  proc/nbgrp/npool/nimage =      16
     Waiting for input...
     Reading input from standard input

     Current dimensions of program PWSCF are:
     Max number of different atomic species (ntypx) = 10
     Max number of k-points (npk) =  80000
     Max angular momentum in pseudopotentials (lmaxx) =  3

     Subspace diagonalization in iterative solution of the eigenvalue problem:
     a serial algorithm will be used


     Parallelization info
     --------------------
     sticks:   dense  smooth     PW     G-vecs:    dense   smooth      PW
     Min          52      25      8                  978      339      65
     Max          53      26      9                  982      343      68
     Sum         841     415    137                15683     5473    1055



     bravais-lattice index     =            3
     lattice parameter (alat)  =       6.8800  a.u.
     unit-cell volume          =     162.8303 (a.u.)^3
     number of atoms/cell      =            1
     number of atomic types    =            1
     number of electrons       =         9.00
     number of Kohn-Sham states=            9
     kinetic-energy cutoff     =      40.0000  Ry
     charge density cutoff     =     320.0000  Ry
     convergence threshold     =      1.0E-10
     mixing beta               =       0.7000
     number of iterations used =            8  plain     mixing
     Exchange-correlation      = SLA  PW   PBE  PBE ( 1  4  3  4 0 0)

     celldm(1)=   6.880000  celldm(2)=   0.000000  celldm(3)=   0.000000
     celldm(4)=   0.000000  celldm(5)=   0.000000  celldm(6)=   0.000000

     crystal axes: (cart. coord. in units of alat)
               a(1) = (   0.500000   0.500000   0.500000 )  
               a(2) = (  -0.500000   0.500000   0.500000 )  
               a(3) = (  -0.500000  -0.500000   0.500000 )  

     reciprocal axes: (cart. coord. in units 2 pi/alat)
               b(1) = (  1.000000  0.000000  1.000000 )  
               b(2) = ( -1.000000  1.000000  0.000000 )  
               b(3) = (  0.000000 -1.000000  1.000000 )  


     PseudoPot. # 1 for Na read from file:
     /home/s1333534/quantum_espresso/qe-6.1/pseudo/Na_pbe_v1.uspp.F.UPF
     MD5 check sum: 76a99c7e9422403d3e93cbc85ab7bccb
     Pseudo is Ultrasoft, Zval =  9.0
     Generated by new atomic code, or converted to UPF format
     Using radial grid of  819 points,  5 beta functions with: 
                l(1) =   0
                l(2) =   0
                l(3) =   1
                l(4) =   1
                l(5) =   2
     Q(r) pseudized with  8 coefficients,  rinner =    1.250   1.250   1.250
                                                       1.250   1.250

     atomic species   valence    mass     pseudopotential
        Na             9.00    22.99000     Na( 1.00)

     48 Sym. Ops., with inversion, found



   Cartesian axes

     site n.     atom                  positions (alat units)
         1           Na  tau(   1) = (   0.0000000   0.0000000   0.0000000  )

     number of k points=   250  Marzari-Vanderbilt smearing, width (Ry)=  0.0200

     Number of k-points >= 100: set verbosity='high' to print them.

     Dense  grid:    15683 G-vectors     FFT dimensions: (  36,  36,  36)

     Smooth grid:     5473 G-vectors     FFT dimensions: (  24,  24,  24)

     Estimated max dynamical RAM per process >       1.13MB

     Estimated total allocated dynamical RAM >      72.27MB

     Initial potential from superposition of free atoms

     starting charge    8.99371, renormalised to    9.00000
     Starting wfc are    5 randomized atomic wfcs +    4 random wfc

     total cpu time spent up to now is        0.5 secs

     per-process dynamical memory:     6.6 Mb

     Self-consistent Calculation

     iteration #  1     ecut=    40.00 Ry     beta=0.70
     Davidson diagonalization with overlap
     ethr =  1.00E-02,  avg # of iterations =  5.6

     Threshold (ethr) on eigenvalues was too large:
     Diagonalizing with lowered threshold

     Davidson diagonalization with overlap
     ethr =  1.54E-05,  avg # of iterations =  3.4

     total cpu time spent up to now is        2.3 secs

     total energy              =     -95.09096157 Ry
     Harris-Foulkes estimate   =     -95.09147491 Ry
     estimated scf accuracy    <       0.00138212 Ry

     iteration #  2     ecut=    40.00 Ry     beta=0.70
     Davidson diagonalization with overlap
     ethr =  1.54E-05,  avg # of iterations =  2.0

     total cpu time spent up to now is        2.9 secs

     total energy              =     -95.09114690 Ry
     Harris-Foulkes estimate   =     -95.09118791 Ry
     estimated scf accuracy    <       0.00015772 Ry

     iteration #  3     ecut=    40.00 Ry     beta=0.70
     Davidson diagonalization with overlap
     ethr =  1.75E-06,  avg # of iterations =  2.1

     total cpu time spent up to now is        3.5 secs

     total energy              =     -95.09116622 Ry
     Harris-Foulkes estimate   =     -95.09116740 Ry
     estimated scf accuracy    <       0.00000931 Ry

     iteration #  4     ecut=    40.00 Ry     beta=0.70
     Davidson diagonalization with overlap
     ethr =  1.03E-07,  avg # of iterations =  1.0

     total cpu time spent up to now is        4.0 secs

     total energy              =     -95.09116703 Ry
     Harris-Foulkes estimate   =     -95.09116698 Ry
     estimated scf accuracy    <       0.00000001 Ry

     iteration #  5     ecut=    40.00 Ry     beta=0.70
     Davidson diagonalization with overlap
     ethr =  1.39E-10,  avg # of iterations =  3.0

     total cpu time spent up to now is        4.6 secs

     total energy              =     -95.09116707 Ry
     Harris-Foulkes estimate   =     -95.09116706 Ry
     estimated scf accuracy    <          1.7E-09 Ry

     iteration #  6     ecut=    40.00 Ry     beta=0.70
     Davidson diagonalization with overlap
     ethr =  1.94E-11,  avg # of iterations =  2.0

     total cpu time spent up to now is        5.2 secs

     total energy              =     -95.09116707 Ry
     Harris-Foulkes estimate   =     -95.09116707 Ry
     estimated scf accuracy    <          2.6E-10 Ry

     iteration #  7     ecut=    40.00 Ry     beta=0.70
     Davidson diagonalization with overlap
     ethr =  2.84E-12,  avg # of iterations =  2.0

     total cpu time spent up to now is        5.8 secs

     End of self-consistent calculation

     Number of k-points >= 100: set verbosity='high' to print the bands.

     the Fermi energy is     3.8798 ev

!    total energy              =     -95.09116707 Ry
     Harris-Foulkes estimate   =     -95.09116707 Ry
     estimated scf accuracy    <          4.2E-12 Ry

     The total energy is the sum of the following terms:

     one-electron contribution =     -78.17713413 Ry
     hartree contribution      =      40.26388900 Ry
     xc contribution           =     -14.33219002 Ry
     ewald contribution        =     -42.84562637 Ry
     smearing contrib. (-TS)   =      -0.00010555 Ry

     convergence has been achieved in   7 iterations


     Computing stress (Cartesian axis) and pressure

          total   stress  (Ry/bohr**3)                   (kbar)     P=   69.17
   0.00047021  -0.00000000   0.00000000         69.17     -0.00      0.00
  -0.00000000   0.00047021  -0.00000000         -0.00     69.17     -0.00
   0.00000000  -0.00000000   0.00047021          0.00     -0.00     69.17


     Writing output data file na.bcc.save

     init_run     :      0.27s CPU      0.31s WALL (       1 calls)
     electrons    :      4.82s CPU      5.32s WALL (       1 calls)
     stress       :      0.14s CPU      0.14s WALL (       1 calls)

     Called by init_run:
     wfcinit      :      0.13s CPU      0.14s WALL (       1 calls)
     potinit      :      0.03s CPU      0.03s WALL (       1 calls)

     Called by electrons:
     c_bands      :      4.06s CPU      4.50s WALL (       8 calls)
     sum_band     :      0.61s CPU      0.67s WALL (       8 calls)
     v_of_rho     :      0.07s CPU      0.08s WALL (       8 calls)
     newd         :      0.05s CPU      0.05s WALL (       8 calls)
     mix_rho      :      0.01s CPU      0.01s WALL (       8 calls)

     Called by c_bands:
     init_us_2    :      0.06s CPU      0.07s WALL (    1134 calls)
     cegterg      :      3.63s CPU      4.05s WALL (     504 calls)

     Called by sum_band:
     sum_band:bec :      0.01s CPU      0.01s WALL (     504 calls)
     addusdens    :      0.06s CPU      0.06s WALL (       8 calls)

     Called by *egterg:
     h_psi        :      2.45s CPU      2.68s WALL (    1901 calls)
     s_psi        :      0.03s CPU      0.03s WALL (    1901 calls)
     g_psi        :      0.01s CPU      0.01s WALL (    1334 calls)
     cdiaghg      :      0.76s CPU      0.84s WALL (    1775 calls)

     Called by h_psi:
     h_psi:pot    :      2.43s CPU      2.66s WALL (    1901 calls)
     h_psi:calbec :      0.13s CPU      0.14s WALL (    1901 calls)
     vloc_psi     :      2.25s CPU      2.47s WALL (    1901 calls)
     add_vuspsi   :      0.03s CPU      0.04s WALL (    1901 calls)

     General routines
     calbec       :      0.17s CPU      0.18s WALL (    2468 calls)
     fft          :      0.08s CPU      0.10s WALL (     133 calls)
     ffts         :      0.01s CPU      0.01s WALL (      16 calls)
     fftw         :      2.37s CPU      2.61s WALL (   28848 calls)
     interpolate  :      0.02s CPU      0.03s WALL (      16 calls)
     davcio       :      0.00s CPU      0.01s WALL (      63 calls)

     Parallel routines
     fft_scatter  :      1.23s CPU      1.33s WALL (   28997 calls)

     PWSCF        :     6.40s CPU         7.04s WALL


   This run was terminated on:  19: 1:42  31Jan2018            

=------------------------------------------------------------------------------=
   JOB DONE.
=------------------------------------------------------------------------------=
