
     Program PHONON v.6.1 (svn rev. 13369) starts on 21Dec2017 at 12:15:29 

     This program is part of the open-source Quantum ESPRESSO suite
     for quantum simulation of materials; please cite
         "P. Giannozzi et al., J. Phys.:Condens. Matter 21 395502 (2009);
          URL http://www.quantum-espresso.org", 
     in publications or presentations arising from this work. More details at
     http://www.quantum-espresso.org/quote

     Parallel version (MPI), running on     4 processors
     R & G space division:  proc/nbgrp/npool/nimage =       4

     Reading data from directory:
     ./na.fcc.save

   Info: using nr1, nr2, nr3 values from input

   Info: using nr1, nr2, nr3 values from input

     IMPORTANT: XC functional enforced from input :
     Exchange-correlation      = SLA  PW   PBE  PBE ( 1  4  3  4 0 0)
     Any further DFT definition will be discarded
     Please, verify this is what you really want


     Parallelization info
     --------------------
     sticks:   dense  smooth     PW     G-vecs:    dense   smooth      PW
     Min         297     148     49                 6733     2394     451
     Max         298     150     50                 6734     2395     453
     Sum        1189     595    199                26933     9577    1807



     Dynamical matrices for ( 8, 8, 8)  uniform grid of q-points
     (  29q-points):
       N         xq(1)         xq(2)         xq(3) 
       1   0.000000000   0.000000000   0.000000000
       2  -0.125000000   0.125000000  -0.125000000
       3  -0.250000000   0.250000000  -0.250000000
       4  -0.375000000   0.375000000  -0.375000000
       5   0.500000000  -0.500000000   0.500000000
       6   0.000000000   0.250000000   0.000000000
       7  -0.125000000   0.375000000  -0.125000000
       8  -0.250000000   0.500000000  -0.250000000
       9   0.625000000  -0.375000000   0.625000000
      10   0.500000000  -0.250000000   0.500000000
      11   0.375000000  -0.125000000   0.375000000
      12   0.250000000   0.000000000   0.250000000
      13   0.000000000   0.500000000   0.000000000
      14  -0.125000000   0.625000000  -0.125000000
      15   0.750000000  -0.250000000   0.750000000
      16   0.625000000  -0.125000000   0.625000000
      17   0.500000000   0.000000000   0.500000000
      18   0.000000000   0.750000000   0.000000000
      19   0.875000000  -0.125000000   0.875000000
      20   0.750000000   0.000000000   0.750000000
      21   0.000000000  -1.000000000   0.000000000
      22  -0.250000000   0.500000000   0.000000000
      23   0.625000000  -0.375000000   0.875000000
      24   0.500000000  -0.250000000   0.750000000
      25   0.750000000  -0.250000000   1.000000000
      26   0.625000000  -0.125000000   0.875000000
      27   0.500000000   0.000000000   0.750000000
      28  -0.250000000  -1.000000000   0.000000000
      29  -0.500000000  -1.000000000   0.000000000

     Calculation of q =    0.0000000   0.0000000   0.0000000

                                                                                

     bravais-lattice index     =            2
     lattice parameter (alat)  =      10.3743  a.u.
     unit-cell volume          =     279.1332 (a.u.)^3
     number of atoms/cell      =            1
     number of atomic types    =            1
     kinetic-energy cut-off    =      40.0000  Ry
     charge density cut-off    =     320.0000  Ry
     convergence threshold     =      1.0E-12
     beta                      =       0.7000
     number of iterations used =            4
     Exchange-correlation      = SLA  PW   PBE  PBE ( 1  4  3  4 0 0)


     celldm(1)=   10.37426  celldm(2)=    0.00000  celldm(3)=    0.00000
     celldm(4)=    0.00000  celldm(5)=    0.00000  celldm(6)=    0.00000

     crystal axes: (cart. coord. in units of alat)
               a(1) = ( -0.5000  0.0000  0.5000 )  
               a(2) = (  0.0000  0.5000  0.5000 )  
               a(3) = ( -0.5000  0.5000  0.0000 )  

     reciprocal axes: (cart. coord. in units 2 pi/alat)
               b(1) = ( -1.0000 -1.0000  1.0000 )  
               b(2) = (  1.0000  1.0000  1.0000 )  
               b(3) = ( -1.0000  1.0000 -1.0000 )  


     Atoms inside the unit cell: 

     Cartesian axes

     site n.  atom      mass           positions (alat units)
        1     Na  22.9900   tau(    1) = (    0.00000    0.00000    0.00000  )

     Computing dynamical matrix for 
                    q = (   0.0000000   0.0000000   0.0000000 )

     49 Sym.Ops. (with q -> -q+G )


     G cutoff =  872.3776  (   6734 G-vectors)     FFT grid: ( 45, 45, 45)
     G cutoff =  436.1888  (   2394 G-vectors)  smooth grid: ( 30, 30, 30)

     number of k points=   280  Marzari-Vanderbilt smearing, width (Ry)=  0.0200

     PseudoPot. # 1 for Na read from file:
     /home/s1333534/quantum_espresso/qe-6.1/pseudo/Na_pbe_v1.uspp.F.UPF
     MD5 check sum: 76a99c7e9422403d3e93cbc85ab7bccb
     Pseudo is Ultrasoft, Zval =  9.0
     Generated by new atomic code, or converted to UPF format
     Using radial grid of  819 points,  5 beta functions with: 
                l(1) =   0
                l(2) =   0
                l(3) =   1
                l(4) =   1
                l(5) =   2
     Q(r) pseudized with  8 coefficients,  rinner =    1.250   1.250   1.250
                                                       1.250   1.250

     Mode symmetry, O_h (m-3m)  point group:


     Atomic displacements:
     There are   1 irreducible representations

     Representation     1      3 modes -T_1u G_15  G_4-  To be done



     Alpha used in Ewald sum =   2.8000
     PHONON       :     2.51s CPU         2.62s WALL



     Representation #  1 modes #   1  2  3

     Self-consistent Calculation

     Pert. #  1: Fermi energy shift (Ry) =    -2.7573E-24     3.4481E-37
     Pert. #  2: Fermi energy shift (Ry) =     9.6504E-25    -5.4856E-37
     Pert. #  3: Fermi energy shift (Ry) =    -3.7223E-24     3.2914E-37

      iter #   1 total cpu time :    13.0 secs   av.it.:   5.3
      thresh= 1.000E-02 alpha_mix =  0.700 |ddv_scf|^2 =  8.095E-07

     Pert. #  1: Fermi energy shift (Ry) =     1.7233E-25    -1.4694E-39
     Pert. #  2: Fermi energy shift (Ry) =     0.0000E+00     3.4285E-39
     Pert. #  3: Fermi energy shift (Ry) =    -1.5510E-25    -1.3469E-39

      iter #   2 total cpu time :    25.2 secs   av.it.:   8.4
      thresh= 8.997E-05 alpha_mix =  0.700 |ddv_scf|^2 =  1.510E-08

     Pert. #  1: Fermi energy shift (Ry) =    -4.7391E-26     3.3673E-40
     Pert. #  2: Fermi energy shift (Ry) =    -1.2925E-26    -1.5306E-40
     Pert. #  3: Fermi energy shift (Ry) =     2.1541E-27    -5.5101E-40

      iter #   3 total cpu time :    38.4 secs   av.it.:   8.6
      thresh= 1.229E-05 alpha_mix =  0.700 |ddv_scf|^2 =  3.711E-10

     Pert. #  1: Fermi energy shift (Ry) =     7.3240E-26     2.6785E-41
     Pert. #  2: Fermi energy shift (Ry) =    -1.7233E-25    -1.1479E-41
     Pert. #  3: Fermi energy shift (Ry) =     8.6165E-27    -2.8699E-41

      iter #   4 total cpu time :    50.3 secs   av.it.:   8.1
      thresh= 1.926E-06 alpha_mix =  0.700 |ddv_scf|^2 =  1.288E-12

     Pert. #  1: Fermi energy shift (Ry) =     4.5236E-26    -7.6530E-41
     Pert. #  2: Fermi energy shift (Ry) =     1.0017E-25     4.9744E-41
     Pert. #  3: Fermi energy shift (Ry) =    -1.4648E-25    -7.2703E-41

      iter #   5 total cpu time :    62.7 secs   av.it.:   8.5
      thresh= 1.135E-07 alpha_mix =  0.700 |ddv_scf|^2 =  2.323E-15

     End of self-consistent calculation

     Convergence has been achieved 

     Number of q in the star =    1
     List of q in the star:
          1   0.000000000   0.000000000   0.000000000

     Diagonalizing the dynamical matrix

     q = (    0.000000000   0.000000000   0.000000000 ) 

 **************************************************************************
     freq (    1) =       0.485874 [THz] =      16.207017 [cm-1]
     freq (    2) =       0.485874 [THz] =      16.207017 [cm-1]
     freq (    3) =       0.485874 [THz] =      16.207017 [cm-1]
 **************************************************************************

     Mode symmetry, O_h (m-3m)  point group:

     freq (  1 -  3) =         16.2  [cm-1]   --> T_1u G_15  G_4- I  

     Calculation of q =   -0.1250000   0.1250000  -0.1250000

   Info: using nr1, nr2, nr3 values from input

   Info: using nr1, nr2, nr3 values from input

     Parallelization info
     --------------------
     sticks:   dense  smooth     PW     G-vecs:    dense   smooth      PW
     Min         297     148     49                 6733     2394     477
     Max         298     150     50                 6734     2395     481
     Sum        1189     595    199                26933     9577    1917



     bravais-lattice index     =            2
     lattice parameter (alat)  =      10.3743  a.u.
     unit-cell volume          =     279.1332 (a.u.)^3
     number of atoms/cell      =            1
     number of atomic types    =            1
     number of electrons       =         9.00
     number of Kohn-Sham states=            9
     kinetic-energy cutoff     =      40.0000  Ry
     charge density cutoff     =     320.0000  Ry
     Exchange-correlation      = SLA  PW   PBE  PBE ( 1  4  3  4 0 0)

     celldm(1)=  10.374260  celldm(2)=   0.000000  celldm(3)=   0.000000
     celldm(4)=   0.000000  celldm(5)=   0.000000  celldm(6)=   0.000000

     crystal axes: (cart. coord. in units of alat)
               a(1) = (  -0.500000   0.000000   0.500000 )  
               a(2) = (   0.000000   0.500000   0.500000 )  
               a(3) = (  -0.500000   0.500000   0.000000 )  

     reciprocal axes: (cart. coord. in units 2 pi/alat)
               b(1) = ( -1.000000 -1.000000  1.000000 )  
               b(2) = (  1.000000  1.000000  1.000000 )  
               b(3) = ( -1.000000  1.000000 -1.000000 )  


     PseudoPot. # 1 for Na read from file:
     /home/s1333534/quantum_espresso/qe-6.1/pseudo/Na_pbe_v1.uspp.F.UPF
     MD5 check sum: 76a99c7e9422403d3e93cbc85ab7bccb
     Pseudo is Ultrasoft, Zval =  9.0
     Generated by new atomic code, or converted to UPF format
     Using radial grid of  819 points,  5 beta functions with: 
                l(1) =   0
                l(2) =   0
                l(3) =   1
                l(4) =   1
                l(5) =   2
     Q(r) pseudized with  8 coefficients,  rinner =    1.250   1.250   1.250
                                                       1.250   1.250

     atomic species   valence    mass     pseudopotential
        Na             9.00    22.99000     Na( 1.00)

     48 Sym. Ops., with inversion, found



   Cartesian axes

     site n.     atom                  positions (alat units)
         1           Na  tau(   1) = (   0.0000000   0.0000000   0.0000000  )

     number of k points=  4060  Marzari-Vanderbilt smearing, width (Ry)=  0.0200

     Number of k-points >= 100: set verbosity='high' to print them.

     Dense  grid:    26933 G-vectors     FFT dimensions: (  45,  45,  45)

     Smooth grid:     9577 G-vectors     FFT dimensions: (  30,  30,  30)

     Estimated max dynamical RAM per process >       2.87MB

     Estimated total allocated dynamical RAM >      11.48MB

     The potential is recalculated from file :
     ./_ph0/na.fcc.save/charge-density.dat

     Starting wfc are    5 atomic +    4 random wfc

     Band Structure Calculation
     Davidson diagonalization with overlap

     ethr =  1.11E-10,  avg # of iterations = 21.1

     total cpu time spent up to now is      146.9 secs

     End of band structure calculation

     Number of k-points >= 100: set verbosity='high' to print the bands.

     the Fermi energy is     1.1739 ev

     Writing output data file na.fcc.save

                                                                                

     bravais-lattice index     =            2
     lattice parameter (alat)  =      10.3743  a.u.
     unit-cell volume          =     279.1332 (a.u.)^3
     number of atoms/cell      =            1
     number of atomic types    =            1
     kinetic-energy cut-off    =      40.0000  Ry
     charge density cut-off    =     320.0000  Ry
     convergence threshold     =      1.0E-12
     beta                      =       0.7000
     number of iterations used =            4
     Exchange-correlation      = SLA  PW   PBE  PBE ( 1  4  3  4 0 0)


     celldm(1)=   10.37426  celldm(2)=    0.00000  celldm(3)=    0.00000
     celldm(4)=    0.00000  celldm(5)=    0.00000  celldm(6)=    0.00000

     crystal axes: (cart. coord. in units of alat)
               a(1) = ( -0.5000  0.0000  0.5000 )  
               a(2) = (  0.0000  0.5000  0.5000 )  
               a(3) = ( -0.5000  0.5000  0.0000 )  

     reciprocal axes: (cart. coord. in units 2 pi/alat)
               b(1) = ( -1.0000 -1.0000  1.0000 )  
               b(2) = (  1.0000  1.0000  1.0000 )  
               b(3) = ( -1.0000  1.0000 -1.0000 )  


     Atoms inside the unit cell: 

     Cartesian axes

     site n.  atom      mass           positions (alat units)
        1     Na  22.9900   tau(    1) = (    0.00000    0.00000    0.00000  )

     Computing dynamical matrix for 
                    q = (  -0.1250000   0.1250000  -0.1250000 )

      6 Sym.Ops. (no q -> -q+G )


     G cutoff =  872.3776  (   6734 G-vectors)     FFT grid: ( 45, 45, 45)
     G cutoff =  436.1888  (   2394 G-vectors)  smooth grid: ( 30, 30, 30)

     number of k points=  4060  Marzari-Vanderbilt smearing, width (Ry)=  0.0200

     PseudoPot. # 1 for Na read from file:
     /home/s1333534/quantum_espresso/qe-6.1/pseudo/Na_pbe_v1.uspp.F.UPF
     MD5 check sum: 76a99c7e9422403d3e93cbc85ab7bccb
     Pseudo is Ultrasoft, Zval =  9.0
     Generated by new atomic code, or converted to UPF format
     Using radial grid of  819 points,  5 beta functions with: 
                l(1) =   0
                l(2) =   0
                l(3) =   1
                l(4) =   1
                l(5) =   2
     Q(r) pseudized with  8 coefficients,  rinner =    1.250   1.250   1.250
                                                       1.250   1.250

     Mode symmetry, C_3v (3m)   point group:


     Atomic displacements:
     There are   2 irreducible representations

     Representation     1      1 modes -A_1  L_1  To be done

     Representation     2      2 modes -E    L_3  To be done



     Alpha used in Ewald sum =   2.8000
     PHONON       :  3m31.99s CPU     3m42.95s WALL



     Representation #  1 mode #   1

     Self-consistent Calculation

      iter #   1 total cpu time :   247.3 secs   av.it.:   5.6
      thresh= 1.000E-02 alpha_mix =  0.700 |ddv_scf|^2 =  1.203E-01

      iter #   2 total cpu time :   273.4 secs   av.it.:   6.8
      thresh= 1.000E-02 alpha_mix =  0.700 |ddv_scf|^2 =  7.095E+01

      iter #   3 total cpu time :   298.3 secs   av.it.:   6.8
      thresh= 1.000E-02 alpha_mix =  0.700 |ddv_scf|^2 =  2.960E-04

      iter #   4 total cpu time :   318.2 secs   av.it.:   5.2
      thresh= 1.720E-03 alpha_mix =  0.700 |ddv_scf|^2 =  8.211E-08

      iter #   5 total cpu time :   344.8 secs   av.it.:   7.5
      thresh= 2.866E-05 alpha_mix =  0.700 |ddv_scf|^2 =  2.588E-09

      iter #   6 total cpu time :   371.3 secs   av.it.:   7.5
      thresh= 5.088E-06 alpha_mix =  0.700 |ddv_scf|^2 =  2.191E-07

      iter #   7 total cpu time :   387.5 secs   av.it.:   3.7
      thresh= 4.681E-05 alpha_mix =  0.700 |ddv_scf|^2 =  1.189E-10

      iter #   8 total cpu time :   414.3 secs   av.it.:   7.6
      thresh= 1.090E-06 alpha_mix =  0.700 |ddv_scf|^2 =  5.574E-13

     End of self-consistent calculation

     Convergence has been achieved 


     Representation #  2 modes #   2  3

     Self-consistent Calculation

      iter #   1 total cpu time :   464.1 secs   av.it.:   5.4
      thresh= 1.000E-02 alpha_mix =  0.700 |ddv_scf|^2 =  1.838E-06

      iter #   2 total cpu time :   522.8 secs   av.it.:   8.4
      thresh= 1.356E-04 alpha_mix =  0.700 |ddv_scf|^2 =  3.384E-08

      iter #   3 total cpu time :   580.6 secs   av.it.:   8.5
      thresh= 1.840E-05 alpha_mix =  0.700 |ddv_scf|^2 =  8.923E-10

      iter #   4 total cpu time :   637.7 secs   av.it.:   8.3
      thresh= 2.987E-06 alpha_mix =  0.700 |ddv_scf|^2 =  3.111E-12

      iter #   5 total cpu time :   696.4 secs   av.it.:   8.6
      thresh= 1.764E-07 alpha_mix =  0.700 |ddv_scf|^2 =  5.266E-15

     End of self-consistent calculation

     Convergence has been achieved 

     Number of q in the star =    8
     List of q in the star:
          1  -0.125000000   0.125000000  -0.125000000
          2   0.125000000  -0.125000000  -0.125000000
          3   0.125000000  -0.125000000   0.125000000
          4  -0.125000000   0.125000000   0.125000000
          5   0.125000000   0.125000000  -0.125000000
          6  -0.125000000  -0.125000000  -0.125000000
          7  -0.125000000  -0.125000000   0.125000000
          8   0.125000000   0.125000000   0.125000000

     Diagonalizing the dynamical matrix

     q = (   -0.125000000   0.125000000  -0.125000000 ) 

 **************************************************************************
     freq (    1) =      -0.419303 [THz] =     -13.986451 [cm-1]
     freq (    2) =      -0.419303 [THz] =     -13.986451 [cm-1]
     freq (    3) =       2.690850 [THz] =      89.757101 [cm-1]
 **************************************************************************

     Mode symmetry, C_3v (3m)   point group:

     freq (  1 -  2) =        -14.0  [cm-1]   --> E    L_3           
     freq (  3 -  3) =         89.8  [cm-1]   --> A_1  L_1           

     Calculation of q =   -0.2500000   0.2500000  -0.2500000

   Info: using nr1, nr2, nr3 values from input

   Info: using nr1, nr2, nr3 values from input

     Parallelization info
     --------------------
     sticks:   dense  smooth     PW     G-vecs:    dense   smooth      PW
     Min         297     148     52                 6733     2394     497
     Max         298     150     54                 6734     2395     498
     Sum        1189     595    211                26933     9577    1989



     bravais-lattice index     =            2
     lattice parameter (alat)  =      10.3743  a.u.
     unit-cell volume          =     279.1332 (a.u.)^3
     number of atoms/cell      =            1
     number of atomic types    =            1
     number of electrons       =         9.00
     number of Kohn-Sham states=            9
     kinetic-energy cutoff     =      40.0000  Ry
     charge density cutoff     =     320.0000  Ry
     Exchange-correlation      = SLA  PW   PBE  PBE ( 1  4  3  4 0 0)

     celldm(1)=  10.374260  celldm(2)=   0.000000  celldm(3)=   0.000000
     celldm(4)=   0.000000  celldm(5)=   0.000000  celldm(6)=   0.000000

     crystal axes: (cart. coord. in units of alat)
               a(1) = (  -0.500000   0.000000   0.500000 )  
               a(2) = (   0.000000   0.500000   0.500000 )  
               a(3) = (  -0.500000   0.500000   0.000000 )  

     reciprocal axes: (cart. coord. in units 2 pi/alat)
               b(1) = ( -1.000000 -1.000000  1.000000 )  
               b(2) = (  1.000000  1.000000  1.000000 )  
               b(3) = ( -1.000000  1.000000 -1.000000 )  


     PseudoPot. # 1 for Na read from file:
     /home/s1333534/quantum_espresso/qe-6.1/pseudo/Na_pbe_v1.uspp.F.UPF
     MD5 check sum: 76a99c7e9422403d3e93cbc85ab7bccb
     Pseudo is Ultrasoft, Zval =  9.0
     Generated by new atomic code, or converted to UPF format
     Using radial grid of  819 points,  5 beta functions with: 
                l(1) =   0
                l(2) =   0
                l(3) =   1
                l(4) =   1
                l(5) =   2
     Q(r) pseudized with  8 coefficients,  rinner =    1.250   1.250   1.250
                                                       1.250   1.250

     atomic species   valence    mass     pseudopotential
        Na             9.00    22.99000     Na( 1.00)

     48 Sym. Ops., with inversion, found



   Cartesian axes

     site n.     atom                  positions (alat units)
         1           Na  tau(   1) = (   0.0000000   0.0000000   0.0000000  )

     number of k points=  4060  Marzari-Vanderbilt smearing, width (Ry)=  0.0200

     Number of k-points >= 100: set verbosity='high' to print them.

     Dense  grid:    26933 G-vectors     FFT dimensions: (  45,  45,  45)

     Smooth grid:     9577 G-vectors     FFT dimensions: (  30,  30,  30)

     Estimated max dynamical RAM per process >       2.87MB

     Estimated total allocated dynamical RAM >      11.48MB

     The potential is recalculated from file :
     ./_ph0/na.fcc.save/charge-density.dat

     Starting wfc are    5 atomic +    4 random wfc

     Band Structure Calculation
     Davidson diagonalization with overlap

     ethr =  1.11E-10,  avg # of iterations = 21.1

     total cpu time spent up to now is      297.2 secs

     End of band structure calculation

     Number of k-points >= 100: set verbosity='high' to print the bands.

     the Fermi energy is     1.1739 ev

     Writing output data file na.fcc.save

                                                                                

     bravais-lattice index     =            2
     lattice parameter (alat)  =      10.3743  a.u.
     unit-cell volume          =     279.1332 (a.u.)^3
     number of atoms/cell      =            1
     number of atomic types    =            1
     kinetic-energy cut-off    =      40.0000  Ry
     charge density cut-off    =     320.0000  Ry
     convergence threshold     =      1.0E-12
     beta                      =       0.7000
     number of iterations used =            4
     Exchange-correlation      = SLA  PW   PBE  PBE ( 1  4  3  4 0 0)


     celldm(1)=   10.37426  celldm(2)=    0.00000  celldm(3)=    0.00000
     celldm(4)=    0.00000  celldm(5)=    0.00000  celldm(6)=    0.00000

     crystal axes: (cart. coord. in units of alat)
               a(1) = ( -0.5000  0.0000  0.5000 )  
               a(2) = (  0.0000  0.5000  0.5000 )  
               a(3) = ( -0.5000  0.5000  0.0000 )  

     reciprocal axes: (cart. coord. in units 2 pi/alat)
               b(1) = ( -1.0000 -1.0000  1.0000 )  
               b(2) = (  1.0000  1.0000  1.0000 )  
               b(3) = ( -1.0000  1.0000 -1.0000 )  


     Atoms inside the unit cell: 

     Cartesian axes

     site n.  atom      mass           positions (alat units)
        1     Na  22.9900   tau(    1) = (    0.00000    0.00000    0.00000  )

     Computing dynamical matrix for 
                    q = (  -0.2500000   0.2500000  -0.2500000 )

      6 Sym.Ops. (no q -> -q+G )


     G cutoff =  872.3776  (   6734 G-vectors)     FFT grid: ( 45, 45, 45)
     G cutoff =  436.1888  (   2394 G-vectors)  smooth grid: ( 30, 30, 30)

     number of k points=  4060  Marzari-Vanderbilt smearing, width (Ry)=  0.0200

     PseudoPot. # 1 for Na read from file:
     /home/s1333534/quantum_espresso/qe-6.1/pseudo/Na_pbe_v1.uspp.F.UPF
     MD5 check sum: 76a99c7e9422403d3e93cbc85ab7bccb
     Pseudo is Ultrasoft, Zval =  9.0
     Generated by new atomic code, or converted to UPF format
     Using radial grid of  819 points,  5 beta functions with: 
                l(1) =   0
                l(2) =   0
                l(3) =   1
                l(4) =   1
                l(5) =   2
     Q(r) pseudized with  8 coefficients,  rinner =    1.250   1.250   1.250
                                                       1.250   1.250

     Mode symmetry, C_3v (3m)   point group:


     Atomic displacements:
     There are   2 irreducible representations

     Representation     1      1 modes -A_1  L_1  To be done

     Representation     2      2 modes -E    L_3  To be done



     Alpha used in Ewald sum =   2.8000
     PHONON       : 13m25.07s CPU    14m18.13s WALL



     Representation #  1 mode #   1

     Self-consistent Calculation

      iter #   1 total cpu time :   882.7 secs   av.it.:   5.7
      thresh= 1.000E-02 alpha_mix =  0.700 |ddv_scf|^2 =  1.922E-03

      iter #   2 total cpu time :   907.3 secs   av.it.:   6.4
      thresh= 4.384E-03 alpha_mix =  0.700 |ddv_scf|^2 =  5.600E-02

      iter #   3 total cpu time :   929.3 secs   av.it.:   5.6
      thresh= 1.000E-02 alpha_mix =  0.700 |ddv_scf|^2 =  1.227E-06

      iter #   4 total cpu time :   955.9 secs   av.it.:   7.6
      thresh= 1.108E-04 alpha_mix =  0.700 |ddv_scf|^2 =  7.392E-09

      iter #   5 total cpu time :   984.5 secs   av.it.:   8.2
      thresh= 8.598E-06 alpha_mix =  0.700 |ddv_scf|^2 =  5.109E-10

      iter #   6 total cpu time :  1013.4 secs   av.it.:   8.1
      thresh= 2.260E-06 alpha_mix =  0.700 |ddv_scf|^2 =  2.149E-11

      iter #   7 total cpu time :  1042.1 secs   av.it.:   8.2
      thresh= 4.636E-07 alpha_mix =  0.700 |ddv_scf|^2 =  1.465E-10

      iter #   8 total cpu time :  1064.4 secs   av.it.:   5.9
      thresh= 1.210E-06 alpha_mix =  0.700 |ddv_scf|^2 =  5.136E-12

      iter #   9 total cpu time :  1091.0 secs   av.it.:   7.5
      thresh= 2.266E-07 alpha_mix =  0.700 |ddv_scf|^2 =  4.709E-13

     End of self-consistent calculation

     Convergence has been achieved 


     Representation #  2 modes #   2  3

     Self-consistent Calculation

      iter #   1 total cpu time :  1142.9 secs   av.it.:   5.5
      thresh= 1.000E-02 alpha_mix =  0.700 |ddv_scf|^2 =  1.878E-06

      iter #   2 total cpu time :  1200.9 secs   av.it.:   8.5
      thresh= 1.371E-04 alpha_mix =  0.700 |ddv_scf|^2 =  3.362E-08

      iter #   3 total cpu time :  1260.1 secs   av.it.:   8.6
      thresh= 1.834E-05 alpha_mix =  0.700 |ddv_scf|^2 =  1.026E-09

      iter #   4 total cpu time :  1318.6 secs   av.it.:   8.4
      thresh= 3.203E-06 alpha_mix =  0.700 |ddv_scf|^2 =  3.610E-12

      iter #   5 total cpu time :  1377.5 secs   av.it.:   8.6
      thresh= 1.900E-07 alpha_mix =  0.700 |ddv_scf|^2 =  5.436E-15

     End of self-consistent calculation

     Convergence has been achieved 

     Number of q in the star =    8
     List of q in the star:
          1  -0.250000000   0.250000000  -0.250000000
          2   0.250000000  -0.250000000  -0.250000000
          3   0.250000000  -0.250000000   0.250000000
          4  -0.250000000   0.250000000   0.250000000
          5   0.250000000   0.250000000  -0.250000000
          6  -0.250000000  -0.250000000  -0.250000000
          7  -0.250000000  -0.250000000   0.250000000
          8   0.250000000   0.250000000   0.250000000

     Diagonalizing the dynamical matrix

     q = (   -0.250000000   0.250000000  -0.250000000 ) 

 **************************************************************************
     freq (    1) =       0.741612 [THz] =      24.737517 [cm-1]
     freq (    2) =       0.741612 [THz] =      24.737517 [cm-1]
     freq (    3) =       2.260883 [THz] =      75.414937 [cm-1]
 **************************************************************************

     Mode symmetry, C_3v (3m)   point group:

     freq (  1 -  2) =         24.7  [cm-1]   --> E    L_3           
     freq (  3 -  3) =         75.4  [cm-1]   --> A_1  L_1           

     Calculation of q =   -0.3750000   0.3750000  -0.3750000

   Info: using nr1, nr2, nr3 values from input

   Info: using nr1, nr2, nr3 values from input

     Parallelization info
     --------------------
     sticks:   dense  smooth     PW     G-vecs:    dense   smooth      PW
     Min         297     148     52                 6733     2394     520
     Max         298     150     53                 6734     2395     522
     Sum        1189     595    211                26933     9577    2085



     bravais-lattice index     =            2
     lattice parameter (alat)  =      10.3743  a.u.
     unit-cell volume          =     279.1332 (a.u.)^3
     number of atoms/cell      =            1
     number of atomic types    =            1
     number of electrons       =         9.00
     number of Kohn-Sham states=            9
     kinetic-energy cutoff     =      40.0000  Ry
     charge density cutoff     =     320.0000  Ry
     Exchange-correlation      = SLA  PW   PBE  PBE ( 1  4  3  4 0 0)

     celldm(1)=  10.374260  celldm(2)=   0.000000  celldm(3)=   0.000000
     celldm(4)=   0.000000  celldm(5)=   0.000000  celldm(6)=   0.000000

     crystal axes: (cart. coord. in units of alat)
               a(1) = (  -0.500000   0.000000   0.500000 )  
               a(2) = (   0.000000   0.500000   0.500000 )  
               a(3) = (  -0.500000   0.500000   0.000000 )  

     reciprocal axes: (cart. coord. in units 2 pi/alat)
               b(1) = ( -1.000000 -1.000000  1.000000 )  
               b(2) = (  1.000000  1.000000  1.000000 )  
               b(3) = ( -1.000000  1.000000 -1.000000 )  


     PseudoPot. # 1 for Na read from file:
     /home/s1333534/quantum_espresso/qe-6.1/pseudo/Na_pbe_v1.uspp.F.UPF
     MD5 check sum: 76a99c7e9422403d3e93cbc85ab7bccb
     Pseudo is Ultrasoft, Zval =  9.0
     Generated by new atomic code, or converted to UPF format
     Using radial grid of  819 points,  5 beta functions with: 
                l(1) =   0
                l(2) =   0
                l(3) =   1
                l(4) =   1
                l(5) =   2
     Q(r) pseudized with  8 coefficients,  rinner =    1.250   1.250   1.250
                                                       1.250   1.250

     atomic species   valence    mass     pseudopotential
        Na             9.00    22.99000     Na( 1.00)

     48 Sym. Ops., with inversion, found



   Cartesian axes

     site n.     atom                  positions (alat units)
         1           Na  tau(   1) = (   0.0000000   0.0000000   0.0000000  )

     number of k points=  4060  Marzari-Vanderbilt smearing, width (Ry)=  0.0200

     Number of k-points >= 100: set verbosity='high' to print them.

     Dense  grid:    26933 G-vectors     FFT dimensions: (  45,  45,  45)

     Smooth grid:     9577 G-vectors     FFT dimensions: (  30,  30,  30)

     Estimated max dynamical RAM per process >       2.87MB

     Estimated total allocated dynamical RAM >      11.48MB

     The potential is recalculated from file :
     ./_ph0/na.fcc.save/charge-density.dat

     Starting wfc are    5 atomic +    4 random wfc

     Band Structure Calculation
     Davidson diagonalization with overlap
     c_bands:  1 eigenvalues not converged

     ethr =  1.11E-10,  avg # of iterations = 21.1

     total cpu time spent up to now is      448.1 secs

     End of band structure calculation

     Number of k-points >= 100: set verbosity='high' to print the bands.

     the Fermi energy is     1.1739 ev

     Writing output data file na.fcc.save

                                                                                

     bravais-lattice index     =            2
     lattice parameter (alat)  =      10.3743  a.u.
     unit-cell volume          =     279.1332 (a.u.)^3
     number of atoms/cell      =            1
     number of atomic types    =            1
     kinetic-energy cut-off    =      40.0000  Ry
     charge density cut-off    =     320.0000  Ry
     convergence threshold     =      1.0E-12
     beta                      =       0.7000
     number of iterations used =            4
     Exchange-correlation      = SLA  PW   PBE  PBE ( 1  4  3  4 0 0)


     celldm(1)=   10.37426  celldm(2)=    0.00000  celldm(3)=    0.00000
     celldm(4)=    0.00000  celldm(5)=    0.00000  celldm(6)=    0.00000

     crystal axes: (cart. coord. in units of alat)
               a(1) = ( -0.5000  0.0000  0.5000 )  
               a(2) = (  0.0000  0.5000  0.5000 )  
               a(3) = ( -0.5000  0.5000  0.0000 )  

     reciprocal axes: (cart. coord. in units 2 pi/alat)
               b(1) = ( -1.0000 -1.0000  1.0000 )  
               b(2) = (  1.0000  1.0000  1.0000 )  
               b(3) = ( -1.0000  1.0000 -1.0000 )  


     Atoms inside the unit cell: 

     Cartesian axes

     site n.  atom      mass           positions (alat units)
        1     Na  22.9900   tau(    1) = (    0.00000    0.00000    0.00000  )

     Computing dynamical matrix for 
                    q = (  -0.3750000   0.3750000  -0.3750000 )

      6 Sym.Ops. (no q -> -q+G )


     G cutoff =  872.3776  (   6734 G-vectors)     FFT grid: ( 45, 45, 45)
     G cutoff =  436.1888  (   2394 G-vectors)  smooth grid: ( 30, 30, 30)

     number of k points=  4060  Marzari-Vanderbilt smearing, width (Ry)=  0.0200

     PseudoPot. # 1 for Na read from file:
     /home/s1333534/quantum_espresso/qe-6.1/pseudo/Na_pbe_v1.uspp.F.UPF
     MD5 check sum: 76a99c7e9422403d3e93cbc85ab7bccb
     Pseudo is Ultrasoft, Zval =  9.0
     Generated by new atomic code, or converted to UPF format
     Using radial grid of  819 points,  5 beta functions with: 
                l(1) =   0
                l(2) =   0
                l(3) =   1
                l(4) =   1
                l(5) =   2
     Q(r) pseudized with  8 coefficients,  rinner =    1.250   1.250   1.250
                                                       1.250   1.250

     Mode symmetry, C_3v (3m)   point group:


     Atomic displacements:
     There are   2 irreducible representations

     Representation     1      1 modes -A_1  L_1  To be done

     Representation     2      2 modes -E    L_3  To be done



     Alpha used in Ewald sum =   2.8000
     PHONON       : 24m 0.49s CPU    25m40.05s WALL



     Representation #  1 mode #   1

     Self-consistent Calculation

      iter #   1 total cpu time :  1564.6 secs   av.it.:   5.7
      thresh= 1.000E-02 alpha_mix =  0.700 |ddv_scf|^2 =  1.898E-04

      iter #   2 total cpu time :  1590.4 secs   av.it.:   6.8
      thresh= 1.378E-03 alpha_mix =  0.700 |ddv_scf|^2 =  6.876E-04

      iter #   3 total cpu time :  1613.9 secs   av.it.:   6.1
      thresh= 2.622E-03 alpha_mix =  0.700 |ddv_scf|^2 =  3.372E-07

      iter #   4 total cpu time :  1641.3 secs   av.it.:   7.9
      thresh= 5.807E-05 alpha_mix =  0.700 |ddv_scf|^2 =  8.982E-09

      iter #   5 total cpu time :  1669.9 secs   av.it.:   8.4
      thresh= 9.477E-06 alpha_mix =  0.700 |ddv_scf|^2 =  1.925E-10

      iter #   6 total cpu time :  1699.2 secs   av.it.:   8.3
      thresh= 1.388E-06 alpha_mix =  0.700 |ddv_scf|^2 =  1.503E-11

      iter #   7 total cpu time :  1727.3 secs   av.it.:   7.9
      thresh= 3.877E-07 alpha_mix =  0.700 |ddv_scf|^2 =  9.127E-13

     End of self-consistent calculation

     Convergence has been achieved 


     Representation #  2 modes #   2  3

     Self-consistent Calculation

      iter #   1 total cpu time :  1779.7 secs   av.it.:   5.5
      thresh= 1.000E-02 alpha_mix =  0.700 |ddv_scf|^2 =  1.916E-06

      iter #   2 total cpu time :  1837.7 secs   av.it.:   8.5
      thresh= 1.384E-04 alpha_mix =  0.700 |ddv_scf|^2 =  3.345E-08

      iter #   3 total cpu time :  1896.6 secs   av.it.:   8.6
      thresh= 1.829E-05 alpha_mix =  0.700 |ddv_scf|^2 =  1.147E-09

      iter #   4 total cpu time :  1954.2 secs   av.it.:   8.4
      thresh= 3.387E-06 alpha_mix =  0.700 |ddv_scf|^2 =  4.055E-12

      iter #   5 total cpu time :  2012.9 secs   av.it.:   8.7
      thresh= 2.014E-07 alpha_mix =  0.700 |ddv_scf|^2 =  5.655E-15

     End of self-consistent calculation

     Convergence has been achieved 

     Number of q in the star =    8
     List of q in the star:
          1  -0.375000000   0.375000000  -0.375000000
          2   0.375000000  -0.375000000  -0.375000000
          3   0.375000000  -0.375000000   0.375000000
          4  -0.375000000   0.375000000   0.375000000
          5   0.375000000   0.375000000  -0.375000000
          6  -0.375000000  -0.375000000  -0.375000000
          7  -0.375000000  -0.375000000   0.375000000
          8   0.375000000   0.375000000   0.375000000

     Diagonalizing the dynamical matrix

     q = (   -0.375000000   0.375000000  -0.375000000 ) 

 **************************************************************************
     freq (    1) =       1.147356 [THz] =      38.271684 [cm-1]
     freq (    2) =       1.147356 [THz] =      38.271684 [cm-1]
     freq (    3) =       3.975964 [THz] =     132.623881 [cm-1]
 **************************************************************************

     Mode symmetry, C_3v (3m)   point group:

     freq (  1 -  2) =         38.3  [cm-1]   --> E    L_3           
     freq (  3 -  3) =        132.6  [cm-1]   --> A_1  L_1           

     Calculation of q =    0.5000000  -0.5000000   0.5000000

   Info: using nr1, nr2, nr3 values from input

   Info: using nr1, nr2, nr3 values from input

     Parallelization info
     --------------------
     sticks:   dense  smooth     PW     G-vecs:    dense   smooth      PW
     Min         297     148     55                 6733     2394     533
     Max         298     150     57                 6734     2395     534
     Sum        1189     595    223                26933     9577    2133



     bravais-lattice index     =            2
     lattice parameter (alat)  =      10.3743  a.u.
     unit-cell volume          =     279.1332 (a.u.)^3
     number of atoms/cell      =            1
     number of atomic types    =            1
     number of electrons       =         9.00
     number of Kohn-Sham states=            9
     kinetic-energy cutoff     =      40.0000  Ry
     charge density cutoff     =     320.0000  Ry
     Exchange-correlation      = SLA  PW   PBE  PBE ( 1  4  3  4 0 0)

     celldm(1)=  10.374260  celldm(2)=   0.000000  celldm(3)=   0.000000
     celldm(4)=   0.000000  celldm(5)=   0.000000  celldm(6)=   0.000000

     crystal axes: (cart. coord. in units of alat)
               a(1) = (  -0.500000   0.000000   0.500000 )  
               a(2) = (   0.000000   0.500000   0.500000 )  
               a(3) = (  -0.500000   0.500000   0.000000 )  

     reciprocal axes: (cart. coord. in units 2 pi/alat)
               b(1) = ( -1.000000 -1.000000  1.000000 )  
               b(2) = (  1.000000  1.000000  1.000000 )  
               b(3) = ( -1.000000  1.000000 -1.000000 )  


     PseudoPot. # 1 for Na read from file:
     /home/s1333534/quantum_espresso/qe-6.1/pseudo/Na_pbe_v1.uspp.F.UPF
     MD5 check sum: 76a99c7e9422403d3e93cbc85ab7bccb
     Pseudo is Ultrasoft, Zval =  9.0
     Generated by new atomic code, or converted to UPF format
     Using radial grid of  819 points,  5 beta functions with: 
                l(1) =   0
                l(2) =   0
                l(3) =   1
                l(4) =   1
                l(5) =   2
     Q(r) pseudized with  8 coefficients,  rinner =    1.250   1.250   1.250
                                                       1.250   1.250

     atomic species   valence    mass     pseudopotential
        Na             9.00    22.99000     Na( 1.00)

     48 Sym. Ops., with inversion, found



   Cartesian axes

     site n.     atom                  positions (alat units)
         1           Na  tau(   1) = (   0.0000000   0.0000000   0.0000000  )

     number of k points=  2030  Marzari-Vanderbilt smearing, width (Ry)=  0.0200

     Number of k-points >= 100: set verbosity='high' to print them.

     Dense  grid:    26933 G-vectors     FFT dimensions: (  45,  45,  45)

     Smooth grid:     9577 G-vectors     FFT dimensions: (  30,  30,  30)

     Estimated max dynamical RAM per process >       2.87MB

     Estimated total allocated dynamical RAM >      11.48MB

     The potential is recalculated from file :
     ./_ph0/na.fcc.save/charge-density.dat

     Starting wfc are    5 atomic +    4 random wfc

     Band Structure Calculation
     Davidson diagonalization with overlap

     ethr =  1.11E-10,  avg # of iterations = 21.0

     total cpu time spent up to now is      525.7 secs

     End of band structure calculation

     Number of k-points >= 100: set verbosity='high' to print the bands.

     the Fermi energy is     1.1739 ev

     Writing output data file na.fcc.save

                                                                                

     bravais-lattice index     =            2
     lattice parameter (alat)  =      10.3743  a.u.
     unit-cell volume          =     279.1332 (a.u.)^3
     number of atoms/cell      =            1
     number of atomic types    =            1
     kinetic-energy cut-off    =      40.0000  Ry
     charge density cut-off    =     320.0000  Ry
     convergence threshold     =      1.0E-12
     beta                      =       0.7000
     number of iterations used =            4
     Exchange-correlation      = SLA  PW   PBE  PBE ( 1  4  3  4 0 0)


     celldm(1)=   10.37426  celldm(2)=    0.00000  celldm(3)=    0.00000
     celldm(4)=    0.00000  celldm(5)=    0.00000  celldm(6)=    0.00000

     crystal axes: (cart. coord. in units of alat)
               a(1) = ( -0.5000  0.0000  0.5000 )  
               a(2) = (  0.0000  0.5000  0.5000 )  
               a(3) = ( -0.5000  0.5000  0.0000 )  

     reciprocal axes: (cart. coord. in units 2 pi/alat)
               b(1) = ( -1.0000 -1.0000  1.0000 )  
               b(2) = (  1.0000  1.0000  1.0000 )  
               b(3) = ( -1.0000  1.0000 -1.0000 )  


     Atoms inside the unit cell: 

     Cartesian axes

     site n.  atom      mass           positions (alat units)
        1     Na  22.9900   tau(    1) = (    0.00000    0.00000    0.00000  )

     Computing dynamical matrix for 
                    q = (   0.5000000  -0.5000000   0.5000000 )

     13 Sym.Ops. (with q -> -q+G )


     G cutoff =  872.3776  (   6734 G-vectors)     FFT grid: ( 45, 45, 45)
     G cutoff =  436.1888  (   2394 G-vectors)  smooth grid: ( 30, 30, 30)

     number of k points=  2030  Marzari-Vanderbilt smearing, width (Ry)=  0.0200

     PseudoPot. # 1 for Na read from file:
     /home/s1333534/quantum_espresso/qe-6.1/pseudo/Na_pbe_v1.uspp.F.UPF
     MD5 check sum: 76a99c7e9422403d3e93cbc85ab7bccb
     Pseudo is Ultrasoft, Zval =  9.0
     Generated by new atomic code, or converted to UPF format
     Using radial grid of  819 points,  5 beta functions with: 
                l(1) =   0
                l(2) =   0
                l(3) =   1
                l(4) =   1
                l(5) =   2
     Q(r) pseudized with  8 coefficients,  rinner =    1.250   1.250   1.250
                                                       1.250   1.250

     Mode symmetry, D_3d (-3m)  point group:


     Atomic displacements:
     There are   2 irreducible representations

     Representation     1      1 modes -A_2u L_2'  To be done

     Representation     2      2 modes -E_u  L_3'  To be done



     Alpha used in Ewald sum =   2.8000
     PHONON       : 32m34.62s CPU    34m55.16s WALL



     Representation #  1 mode #   1

     Self-consistent Calculation

      iter #   1 total cpu time :  2107.9 secs   av.it.:   5.7
      thresh= 1.000E-02 alpha_mix =  0.700 |ddv_scf|^2 =  7.147E-05

      iter #   2 total cpu time :  2120.5 secs   av.it.:   6.9
      thresh= 8.454E-04 alpha_mix =  0.700 |ddv_scf|^2 =  4.573E-05

      iter #   3 total cpu time :  2133.0 secs   av.it.:   6.6
      thresh= 6.762E-04 alpha_mix =  0.700 |ddv_scf|^2 =  5.704E-08

      iter #   4 total cpu time :  2146.9 secs   av.it.:   7.9
      thresh= 2.388E-05 alpha_mix =  0.700 |ddv_scf|^2 =  2.513E-10

      iter #   5 total cpu time :  2159.6 secs   av.it.:   7.1
      thresh= 1.585E-06 alpha_mix =  0.700 |ddv_scf|^2 =  4.387E-12

      iter #   6 total cpu time :  2172.4 secs   av.it.:   6.8
      thresh= 2.094E-07 alpha_mix =  0.700 |ddv_scf|^2 =  1.589E-14

     End of self-consistent calculation

     Convergence has been achieved 


     Representation #  2 modes #   2  3

     Self-consistent Calculation

      iter #   1 total cpu time :  2197.0 secs   av.it.:   5.4
      thresh= 1.000E-02 alpha_mix =  0.700 |ddv_scf|^2 =  1.932E-06

      iter #   2 total cpu time :  2225.8 secs   av.it.:   8.3
      thresh= 1.390E-04 alpha_mix =  0.700 |ddv_scf|^2 =  3.332E-08

      iter #   3 total cpu time :  2255.3 secs   av.it.:   8.4
      thresh= 1.825E-05 alpha_mix =  0.700 |ddv_scf|^2 =  1.185E-09

      iter #   4 total cpu time :  2283.6 secs   av.it.:   7.9
      thresh= 3.443E-06 alpha_mix =  0.700 |ddv_scf|^2 =  4.208E-12

      iter #   5 total cpu time :  2312.9 secs   av.it.:   8.2
      thresh= 2.051E-07 alpha_mix =  0.700 |ddv_scf|^2 =  5.729E-15

     End of self-consistent calculation

     Convergence has been achieved 

     Number of q in the star =    4
     List of q in the star:
          1   0.500000000  -0.500000000   0.500000000
          2   0.500000000   0.500000000   0.500000000
          3  -0.500000000   0.500000000   0.500000000
          4   0.500000000   0.500000000  -0.500000000

     Diagonalizing the dynamical matrix

     q = (    0.500000000  -0.500000000   0.500000000 ) 

 **************************************************************************
     freq (    1) =       1.336834 [THz] =      44.591984 [cm-1]
     freq (    2) =       1.336834 [THz] =      44.591984 [cm-1]
     freq (    3) =       3.351755 [THz] =     111.802509 [cm-1]
 **************************************************************************

     Mode symmetry, D_3d (-3m)  point group:

     freq (  1 -  2) =         44.6  [cm-1]   --> E_u  L_3'          
     freq (  3 -  3) =        111.8  [cm-1]   --> A_2u L_2'          

     Calculation of q =    0.0000000   0.2500000   0.0000000

   Info: using nr1, nr2, nr3 values from input

   Info: using nr1, nr2, nr3 values from input

     Parallelization info
     --------------------
     sticks:   dense  smooth     PW     G-vecs:    dense   smooth      PW
     Min         297     148     49                 6733     2394     477
     Max         298     150     50                 6734     2395     481
     Sum        1189     595    199                26933     9577    1917



     bravais-lattice index     =            2
     lattice parameter (alat)  =      10.3743  a.u.
     unit-cell volume          =     279.1332 (a.u.)^3
     number of atoms/cell      =            1
     number of atomic types    =            1
     number of electrons       =         9.00
     number of Kohn-Sham states=            9
     kinetic-energy cutoff     =      40.0000  Ry
     charge density cutoff     =     320.0000  Ry
     Exchange-correlation      = SLA  PW   PBE  PBE ( 1  4  3  4 0 0)

     celldm(1)=  10.374260  celldm(2)=   0.000000  celldm(3)=   0.000000
     celldm(4)=   0.000000  celldm(5)=   0.000000  celldm(6)=   0.000000

     crystal axes: (cart. coord. in units of alat)
               a(1) = (  -0.500000   0.000000   0.500000 )  
               a(2) = (   0.000000   0.500000   0.500000 )  
               a(3) = (  -0.500000   0.500000   0.000000 )  

     reciprocal axes: (cart. coord. in units 2 pi/alat)
               b(1) = ( -1.000000 -1.000000  1.000000 )  
               b(2) = (  1.000000  1.000000  1.000000 )  
               b(3) = ( -1.000000  1.000000 -1.000000 )  


     PseudoPot. # 1 for Na read from file:
     /home/s1333534/quantum_espresso/qe-6.1/pseudo/Na_pbe_v1.uspp.F.UPF
     MD5 check sum: 76a99c7e9422403d3e93cbc85ab7bccb
     Pseudo is Ultrasoft, Zval =  9.0
     Generated by new atomic code, or converted to UPF format
     Using radial grid of  819 points,  5 beta functions with: 
                l(1) =   0
                l(2) =   0
                l(3) =   1
                l(4) =   1
                l(5) =   2
     Q(r) pseudized with  8 coefficients,  rinner =    1.250   1.250   1.250
                                                       1.250   1.250

     atomic species   valence    mass     pseudopotential
        Na             9.00    22.99000     Na( 1.00)

     48 Sym. Ops., with inversion, found



   Cartesian axes

     site n.     atom                  positions (alat units)
         1           Na  tau(   1) = (   0.0000000   0.0000000   0.0000000  )

     number of k points=  2940  Marzari-Vanderbilt smearing, width (Ry)=  0.0200

     Number of k-points >= 100: set verbosity='high' to print them.

     Dense  grid:    26933 G-vectors     FFT dimensions: (  45,  45,  45)

     Smooth grid:     9577 G-vectors     FFT dimensions: (  30,  30,  30)

     Estimated max dynamical RAM per process >       2.87MB

     Estimated total allocated dynamical RAM >      11.48MB

     The potential is recalculated from file :
     ./_ph0/na.fcc.save/charge-density.dat

     Starting wfc are    5 atomic +    4 random wfc

     Band Structure Calculation
     Davidson diagonalization with overlap

     ethr =  1.11E-10,  avg # of iterations = 21.0

     total cpu time spent up to now is      633.0 secs

     End of band structure calculation

     Number of k-points >= 100: set verbosity='high' to print the bands.

     the Fermi energy is     1.1739 ev

     Writing output data file na.fcc.save

                                                                                

     bravais-lattice index     =            2
     lattice parameter (alat)  =      10.3743  a.u.
     unit-cell volume          =     279.1332 (a.u.)^3
     number of atoms/cell      =            1
     number of atomic types    =            1
     kinetic-energy cut-off    =      40.0000  Ry
     charge density cut-off    =     320.0000  Ry
     convergence threshold     =      1.0E-12
     beta                      =       0.7000
     number of iterations used =            4
     Exchange-correlation      = SLA  PW   PBE  PBE ( 1  4  3  4 0 0)


     celldm(1)=   10.37426  celldm(2)=    0.00000  celldm(3)=    0.00000
     celldm(4)=    0.00000  celldm(5)=    0.00000  celldm(6)=    0.00000

     crystal axes: (cart. coord. in units of alat)
               a(1) = ( -0.5000  0.0000  0.5000 )  
               a(2) = (  0.0000  0.5000  0.5000 )  
               a(3) = ( -0.5000  0.5000  0.0000 )  

     reciprocal axes: (cart. coord. in units 2 pi/alat)
               b(1) = ( -1.0000 -1.0000  1.0000 )  
               b(2) = (  1.0000  1.0000  1.0000 )  
               b(3) = ( -1.0000  1.0000 -1.0000 )  


     Atoms inside the unit cell: 

     Cartesian axes

     site n.  atom      mass           positions (alat units)
        1     Na  22.9900   tau(    1) = (    0.00000    0.00000    0.00000  )

     Computing dynamical matrix for 
                    q = (   0.0000000   0.2500000   0.0000000 )

      8 Sym.Ops. (no q -> -q+G )


     G cutoff =  872.3776  (   6734 G-vectors)     FFT grid: ( 45, 45, 45)
     G cutoff =  436.1888  (   2394 G-vectors)  smooth grid: ( 30, 30, 30)

     number of k points=  2940  Marzari-Vanderbilt smearing, width (Ry)=  0.0200

     PseudoPot. # 1 for Na read from file:
     /home/s1333534/quantum_espresso/qe-6.1/pseudo/Na_pbe_v1.uspp.F.UPF
     MD5 check sum: 76a99c7e9422403d3e93cbc85ab7bccb
     Pseudo is Ultrasoft, Zval =  9.0
     Generated by new atomic code, or converted to UPF format
     Using radial grid of  819 points,  5 beta functions with: 
                l(1) =   0
                l(2) =   0
                l(3) =   1
                l(4) =   1
                l(5) =   2
     Q(r) pseudized with  8 coefficients,  rinner =    1.250   1.250   1.250
                                                       1.250   1.250

     Mode symmetry, C_4v (4mm)  point group:


     Atomic displacements:
     There are   2 irreducible representations

     Representation     1      1 modes -A_1  G_1 D_1  To be done

     Representation     2      2 modes -E    G_5 D_5  To be done



     Alpha used in Ewald sum =   2.8000
     PHONON       : 37m46.39s CPU    40m29.00s WALL



     Representation #  1 mode #   1

     Self-consistent Calculation

      iter #   1 total cpu time :  2446.6 secs   av.it.:   5.6
      thresh= 1.000E-02 alpha_mix =  0.700 |ddv_scf|^2 =  5.199E-02

      iter #   2 total cpu time :  2464.4 secs   av.it.:   6.7
      thresh= 1.000E-02 alpha_mix =  0.700 |ddv_scf|^2 =  1.722E+01

      iter #   3 total cpu time :  2482.1 secs   av.it.:   6.6
      thresh= 1.000E-02 alpha_mix =  0.700 |ddv_scf|^2 =  2.445E-05

      iter #   4 total cpu time :  2499.4 secs   av.it.:   6.4
      thresh= 4.944E-04 alpha_mix =  0.700 |ddv_scf|^2 =  6.713E-08

      iter #   5 total cpu time :  2518.4 secs   av.it.:   7.5
      thresh= 2.591E-05 alpha_mix =  0.700 |ddv_scf|^2 =  4.025E-09

      iter #   6 total cpu time :  2536.7 secs   av.it.:   7.0
      thresh= 6.344E-06 alpha_mix =  0.700 |ddv_scf|^2 =  2.448E-07

      iter #   7 total cpu time :  2550.8 secs   av.it.:   5.1
      thresh= 4.947E-05 alpha_mix =  0.700 |ddv_scf|^2 =  2.677E-11

      iter #   8 total cpu time :  2571.8 secs   av.it.:   8.2
      thresh= 5.174E-07 alpha_mix =  0.700 |ddv_scf|^2 =  6.909E-13

     End of self-consistent calculation

     Convergence has been achieved 


     Representation #  2 modes #   2  3

     Self-consistent Calculation

      iter #   1 total cpu time :  2607.0 secs   av.it.:   5.4
      thresh= 1.000E-02 alpha_mix =  0.700 |ddv_scf|^2 =  1.892E-06

      iter #   2 total cpu time :  2649.4 secs   av.it.:   8.4
      thresh= 1.375E-04 alpha_mix =  0.700 |ddv_scf|^2 =  3.327E-08

      iter #   3 total cpu time :  2692.3 secs   av.it.:   8.6
      thresh= 1.824E-05 alpha_mix =  0.700 |ddv_scf|^2 =  1.097E-09

      iter #   4 total cpu time :  2733.5 secs   av.it.:   8.4
      thresh= 3.313E-06 alpha_mix =  0.700 |ddv_scf|^2 =  3.774E-12

      iter #   5 total cpu time :  2775.6 secs   av.it.:   8.6
      thresh= 1.943E-07 alpha_mix =  0.700 |ddv_scf|^2 =  4.891E-15

     End of self-consistent calculation

     Convergence has been achieved 

     Number of q in the star =    6
     List of q in the star:
          1   0.000000000   0.250000000   0.000000000
          2   0.000000000  -0.250000000   0.000000000
          3   0.250000000   0.000000000   0.000000000
          4   0.000000000   0.000000000   0.250000000
          5   0.000000000   0.000000000  -0.250000000
          6  -0.250000000   0.000000000   0.000000000

     Diagonalizing the dynamical matrix

     q = (    0.000000000   0.250000000   0.000000000 ) 

 **************************************************************************
     freq (    1) =       0.669730 [THz] =      22.339773 [cm-1]
     freq (    2) =       0.669730 [THz] =      22.339773 [cm-1]
     freq (    3) =       2.517485 [THz] =      83.974250 [cm-1]
 **************************************************************************

     Mode symmetry, C_4v (4mm)  point group:

     freq (  1 -  2) =         22.3  [cm-1]   --> E    G_5 D_5       
     freq (  3 -  3) =         84.0  [cm-1]   --> A_1  G_1 D_1       

     Calculation of q =   -0.1250000   0.3750000  -0.1250000

   Info: using nr1, nr2, nr3 values from input

   Info: using nr1, nr2, nr3 values from input

     Parallelization info
     --------------------
     sticks:   dense  smooth     PW     G-vecs:    dense   smooth      PW
     Min         297     148     52                 6733     2394     497
     Max         298     150     54                 6734     2395     498
     Sum        1189     595    211                26933     9577    1989



     bravais-lattice index     =            2
     lattice parameter (alat)  =      10.3743  a.u.
     unit-cell volume          =     279.1332 (a.u.)^3
     number of atoms/cell      =            1
     number of atomic types    =            1
     number of electrons       =         9.00
     number of Kohn-Sham states=            9
     kinetic-energy cutoff     =      40.0000  Ry
     charge density cutoff     =     320.0000  Ry
     Exchange-correlation      = SLA  PW   PBE  PBE ( 1  4  3  4 0 0)

     celldm(1)=  10.374260  celldm(2)=   0.000000  celldm(3)=   0.000000
     celldm(4)=   0.000000  celldm(5)=   0.000000  celldm(6)=   0.000000

     crystal axes: (cart. coord. in units of alat)
               a(1) = (  -0.500000   0.000000   0.500000 )  
               a(2) = (   0.000000   0.500000   0.500000 )  
               a(3) = (  -0.500000   0.500000   0.000000 )  

     reciprocal axes: (cart. coord. in units 2 pi/alat)
               b(1) = ( -1.000000 -1.000000  1.000000 )  
               b(2) = (  1.000000  1.000000  1.000000 )  
               b(3) = ( -1.000000  1.000000 -1.000000 )  


     PseudoPot. # 1 for Na read from file:
     /home/s1333534/quantum_espresso/qe-6.1/pseudo/Na_pbe_v1.uspp.F.UPF
     MD5 check sum: 76a99c7e9422403d3e93cbc85ab7bccb
     Pseudo is Ultrasoft, Zval =  9.0
     Generated by new atomic code, or converted to UPF format
     Using radial grid of  819 points,  5 beta functions with: 
                l(1) =   0
                l(2) =   0
                l(3) =   1
                l(4) =   1
                l(5) =   2
     Q(r) pseudized with  8 coefficients,  rinner =    1.250   1.250   1.250
                                                       1.250   1.250

     atomic species   valence    mass     pseudopotential
        Na             9.00    22.99000     Na( 1.00)

     48 Sym. Ops., with inversion, found



   Cartesian axes

     site n.     atom                  positions (alat units)
         1           Na  tau(   1) = (   0.0000000   0.0000000   0.0000000  )

     number of k points= 11368  Marzari-Vanderbilt smearing, width (Ry)=  0.0200

     Number of k-points >= 100: set verbosity='high' to print them.

     Dense  grid:    26933 G-vectors     FFT dimensions: (  45,  45,  45)

     Smooth grid:     9577 G-vectors     FFT dimensions: (  30,  30,  30)

     Estimated max dynamical RAM per process >       2.87MB

     Estimated total allocated dynamical RAM >      11.48MB

     The potential is recalculated from file :
     ./_ph0/na.fcc.save/charge-density.dat

     Starting wfc are    5 atomic +    4 random wfc

     Band Structure Calculation
     Davidson diagonalization with overlap

     ethr =  1.11E-10,  avg # of iterations = 21.0

     total cpu time spent up to now is     1045.4 secs

     End of band structure calculation

     Number of k-points >= 100: set verbosity='high' to print the bands.

     the Fermi energy is     1.1739 ev

     Writing output data file na.fcc.save

                                                                                

     bravais-lattice index     =            2
     lattice parameter (alat)  =      10.3743  a.u.
     unit-cell volume          =     279.1332 (a.u.)^3
     number of atoms/cell      =            1
     number of atomic types    =            1
     kinetic-energy cut-off    =      40.0000  Ry
     charge density cut-off    =     320.0000  Ry
     convergence threshold     =      1.0E-12
     beta                      =       0.7000
     number of iterations used =            4
     Exchange-correlation      = SLA  PW   PBE  PBE ( 1  4  3  4 0 0)


     celldm(1)=   10.37426  celldm(2)=    0.00000  celldm(3)=    0.00000
     celldm(4)=    0.00000  celldm(5)=    0.00000  celldm(6)=    0.00000

     crystal axes: (cart. coord. in units of alat)
               a(1) = ( -0.5000  0.0000  0.5000 )  
               a(2) = (  0.0000  0.5000  0.5000 )  
               a(3) = ( -0.5000  0.5000  0.0000 )  

     reciprocal axes: (cart. coord. in units 2 pi/alat)
               b(1) = ( -1.0000 -1.0000  1.0000 )  
               b(2) = (  1.0000  1.0000  1.0000 )  
               b(3) = ( -1.0000  1.0000 -1.0000 )  


     Atoms inside the unit cell: 

     Cartesian axes

     site n.  atom      mass           positions (alat units)
        1     Na  22.9900   tau(    1) = (    0.00000    0.00000    0.00000  )

     Computing dynamical matrix for 
                    q = (  -0.1250000   0.3750000  -0.1250000 )

      2 Sym.Ops. (no q -> -q+G )


     G cutoff =  872.3776  (   6734 G-vectors)     FFT grid: ( 45, 45, 45)
     G cutoff =  436.1888  (   2394 G-vectors)  smooth grid: ( 30, 30, 30)

     number of k points= 11368  Marzari-Vanderbilt smearing, width (Ry)=  0.0200

     PseudoPot. # 1 for Na read from file:
     /home/s1333534/quantum_espresso/qe-6.1/pseudo/Na_pbe_v1.uspp.F.UPF
     MD5 check sum: 76a99c7e9422403d3e93cbc85ab7bccb
     Pseudo is Ultrasoft, Zval =  9.0
     Generated by new atomic code, or converted to UPF format
     Using radial grid of  819 points,  5 beta functions with: 
                l(1) =   0
                l(2) =   0
                l(3) =   1
                l(4) =   1
                l(5) =   2
     Q(r) pseudized with  8 coefficients,  rinner =    1.250   1.250   1.250
                                                       1.250   1.250

     Mode symmetry, C_s (m)     point group:


     Atomic displacements:
     There are   3 irreducible representations

     Representation     1      1 modes -A'  To be done

     Representation     2      1 modes -A'  To be done

     Representation     3      1 modes -A''  To be done



     Alpha used in Ewald sum =   2.8000
     PHONON       : 50m13.86s CPU    53m43.69s WALL



     Representation #  1 mode #   1

     Self-consistent Calculation

      iter #   1 total cpu time :  3295.4 secs   av.it.:   5.7
      thresh= 1.000E-02 alpha_mix =  0.700 |ddv_scf|^2 =  2.171E-03

      iter #   2 total cpu time :  3363.0 secs   av.it.:   6.5
      thresh= 4.659E-03 alpha_mix =  0.700 |ddv_scf|^2 =  7.761E-02

      iter #   3 total cpu time :  3425.0 secs   av.it.:   5.6
      thresh= 1.000E-02 alpha_mix =  0.700 |ddv_scf|^2 =  1.164E-06

      iter #   4 total cpu time :  3501.2 secs   av.it.:   7.7
      thresh= 1.079E-04 alpha_mix =  0.700 |ddv_scf|^2 =  8.404E-09

      iter #   5 total cpu time :  3582.1 secs   av.it.:   8.3
      thresh= 9.167E-06 alpha_mix =  0.700 |ddv_scf|^2 =  8.530E-10

      iter #   6 total cpu time :  3661.3 secs   av.it.:   8.1
      thresh= 2.921E-06 alpha_mix =  0.700 |ddv_scf|^2 =  1.166E-10

      iter #   7 total cpu time :  3738.0 secs   av.it.:   7.7
      thresh= 1.080E-06 alpha_mix =  0.700 |ddv_scf|^2 =  9.561E-10

      iter #   8 total cpu time :  3803.1 secs   av.it.:   6.2
      thresh= 3.092E-06 alpha_mix =  0.700 |ddv_scf|^2 =  7.620E-13

     End of self-consistent calculation

     Convergence has been achieved 


     Representation #  2 mode #   2

     Self-consistent Calculation

      iter #   1 total cpu time :  3875.0 secs   av.it.:   5.7
      thresh= 1.000E-02 alpha_mix =  0.700 |ddv_scf|^2 =  3.344E-04

      iter #   2 total cpu time :  3948.0 secs   av.it.:   7.1
      thresh= 1.829E-03 alpha_mix =  0.700 |ddv_scf|^2 =  1.171E-02

      iter #   3 total cpu time :  4003.4 secs   av.it.:   4.7
      thresh= 1.000E-02 alpha_mix =  0.700 |ddv_scf|^2 =  1.298E-07

      iter #   4 total cpu time :  4085.1 secs   av.it.:   8.4
      thresh= 3.603E-05 alpha_mix =  0.700 |ddv_scf|^2 =  6.283E-09

      iter #   5 total cpu time :  4164.3 secs   av.it.:   8.0
      thresh= 7.927E-06 alpha_mix =  0.700 |ddv_scf|^2 =  2.057E-10

      iter #   6 total cpu time :  4243.9 secs   av.it.:   8.2
      thresh= 1.434E-06 alpha_mix =  0.700 |ddv_scf|^2 =  1.903E-10

      iter #   7 total cpu time :  4310.3 secs   av.it.:   6.4
      thresh= 1.380E-06 alpha_mix =  0.700 |ddv_scf|^2 =  8.810E-11

      iter #   8 total cpu time :  4385.4 secs   av.it.:   7.5
      thresh= 9.386E-07 alpha_mix =  0.700 |ddv_scf|^2 =  1.149E-11

      iter #   9 total cpu time :  4455.6 secs   av.it.:   6.9
      thresh= 3.389E-07 alpha_mix =  0.700 |ddv_scf|^2 =  5.338E-12

      iter #  10 total cpu time :  4527.4 secs   av.it.:   7.1
      thresh= 2.310E-07 alpha_mix =  0.700 |ddv_scf|^2 =  8.735E-15

     End of self-consistent calculation

     Convergence has been achieved 


     Representation #  3 mode #   3

     Self-consistent Calculation

      iter #   1 total cpu time :  4599.1 secs   av.it.:   5.4
      thresh= 1.000E-02 alpha_mix =  0.700 |ddv_scf|^2 =  7.865E-06

      iter #   2 total cpu time :  4675.6 secs   av.it.:   7.8
      thresh= 2.804E-04 alpha_mix =  0.700 |ddv_scf|^2 =  1.308E-07

      iter #   3 total cpu time :  4753.4 secs   av.it.:   8.0
      thresh= 3.617E-05 alpha_mix =  0.700 |ddv_scf|^2 =  5.610E-09

      iter #   4 total cpu time :  4829.1 secs   av.it.:   7.7
      thresh= 7.490E-06 alpha_mix =  0.700 |ddv_scf|^2 =  1.930E-11

      iter #   5 total cpu time :  4907.6 secs   av.it.:   8.0
      thresh= 4.393E-07 alpha_mix =  0.700 |ddv_scf|^2 =  1.990E-14

     End of self-consistent calculation

     Convergence has been achieved 

     Number of q in the star =   24
     List of q in the star:
          1  -0.125000000   0.375000000  -0.125000000
          2  -0.125000000   0.375000000   0.125000000
          3   0.125000000   0.375000000  -0.125000000
          4   0.125000000   0.375000000   0.125000000
          5   0.125000000  -0.375000000   0.125000000
          6   0.375000000  -0.125000000   0.125000000
          7   0.125000000  -0.125000000   0.375000000
          8  -0.125000000  -0.375000000  -0.125000000
          9   0.125000000  -0.375000000  -0.125000000
         10  -0.125000000  -0.375000000   0.125000000
         11   0.125000000  -0.125000000  -0.375000000
         12   0.375000000  -0.125000000  -0.125000000
         13  -0.375000000  -0.125000000   0.125000000
         14   0.375000000   0.125000000   0.125000000
         15  -0.125000000  -0.125000000   0.375000000
         16   0.125000000   0.125000000   0.375000000
         17  -0.375000000   0.125000000  -0.125000000
         18  -0.125000000   0.125000000  -0.375000000
         19  -0.375000000  -0.125000000  -0.125000000
         20   0.125000000   0.125000000  -0.375000000
         21   0.375000000   0.125000000  -0.125000000
         22  -0.125000000  -0.125000000  -0.375000000
         23  -0.375000000   0.125000000   0.125000000
         24  -0.125000000   0.125000000   0.375000000

     Diagonalizing the dynamical matrix

     q = (   -0.125000000   0.375000000  -0.125000000 ) 

 **************************************************************************
     freq (    1) =       1.168901 [THz] =      38.990332 [cm-1]
     freq (    2) =       1.610914 [THz] =      53.734318 [cm-1]
     freq (    3) =       2.943470 [THz] =      98.183585 [cm-1]
 **************************************************************************

     Mode symmetry, C_s (m)     point group:

     freq (  1 -  1) =         39.0  [cm-1]   --> A''                
     freq (  2 -  2) =         53.7  [cm-1]   --> A'                 
     freq (  3 -  3) =         98.2  [cm-1]   --> A'                 

     Calculation of q =   -0.2500000   0.5000000  -0.2500000

   Info: using nr1, nr2, nr3 values from input

   Info: using nr1, nr2, nr3 values from input

     Parallelization info
     --------------------
     sticks:   dense  smooth     PW     G-vecs:    dense   smooth      PW
     Min         297     148     52                 6733     2394     520
     Max         298     150     53                 6734     2395     522
     Sum        1189     595    211                26933     9577    2085



     bravais-lattice index     =            2
     lattice parameter (alat)  =      10.3743  a.u.
     unit-cell volume          =     279.1332 (a.u.)^3
     number of atoms/cell      =            1
     number of atomic types    =            1
     number of electrons       =         9.00
     number of Kohn-Sham states=            9
     kinetic-energy cutoff     =      40.0000  Ry
     charge density cutoff     =     320.0000  Ry
     Exchange-correlation      = SLA  PW   PBE  PBE ( 1  4  3  4 0 0)

     celldm(1)=  10.374260  celldm(2)=   0.000000  celldm(3)=   0.000000
     celldm(4)=   0.000000  celldm(5)=   0.000000  celldm(6)=   0.000000

     crystal axes: (cart. coord. in units of alat)
               a(1) = (  -0.500000   0.000000   0.500000 )  
               a(2) = (   0.000000   0.500000   0.500000 )  
               a(3) = (  -0.500000   0.500000   0.000000 )  

     reciprocal axes: (cart. coord. in units 2 pi/alat)
               b(1) = ( -1.000000 -1.000000  1.000000 )  
               b(2) = (  1.000000  1.000000  1.000000 )  
               b(3) = ( -1.000000  1.000000 -1.000000 )  


     PseudoPot. # 1 for Na read from file:
     /home/s1333534/quantum_espresso/qe-6.1/pseudo/Na_pbe_v1.uspp.F.UPF
     MD5 check sum: 76a99c7e9422403d3e93cbc85ab7bccb
     Pseudo is Ultrasoft, Zval =  9.0
     Generated by new atomic code, or converted to UPF format
     Using radial grid of  819 points,  5 beta functions with: 
                l(1) =   0
                l(2) =   0
                l(3) =   1
                l(4) =   1
                l(5) =   2
     Q(r) pseudized with  8 coefficients,  rinner =    1.250   1.250   1.250
                                                       1.250   1.250

     atomic species   valence    mass     pseudopotential
        Na             9.00    22.99000     Na( 1.00)

     48 Sym. Ops., with inversion, found



   Cartesian axes

     site n.     atom                  positions (alat units)
         1           Na  tau(   1) = (   0.0000000   0.0000000   0.0000000  )

     number of k points= 11368  Marzari-Vanderbilt smearing, width (Ry)=  0.0200

     Number of k-points >= 100: set verbosity='high' to print them.

     Dense  grid:    26933 G-vectors     FFT dimensions: (  45,  45,  45)

     Smooth grid:     9577 G-vectors     FFT dimensions: (  30,  30,  30)

     Estimated max dynamical RAM per process >       2.87MB

     Estimated total allocated dynamical RAM >      11.48MB

     The potential is recalculated from file :
     ./_ph0/na.fcc.save/charge-density.dat

     Starting wfc are    5 atomic +    4 random wfc

     Band Structure Calculation
     Davidson diagonalization with overlap

     ethr =  1.11E-10,  avg # of iterations = 20.9

     total cpu time spent up to now is     1466.4 secs

     End of band structure calculation

     Number of k-points >= 100: set verbosity='high' to print the bands.

     the Fermi energy is     1.1739 ev

     Writing output data file na.fcc.save

                                                                                

     bravais-lattice index     =            2
     lattice parameter (alat)  =      10.3743  a.u.
     unit-cell volume          =     279.1332 (a.u.)^3
     number of atoms/cell      =            1
     number of atomic types    =            1
     kinetic-energy cut-off    =      40.0000  Ry
     charge density cut-off    =     320.0000  Ry
     convergence threshold     =      1.0E-12
     beta                      =       0.7000
     number of iterations used =            4
     Exchange-correlation      = SLA  PW   PBE  PBE ( 1  4  3  4 0 0)


     celldm(1)=   10.37426  celldm(2)=    0.00000  celldm(3)=    0.00000
     celldm(4)=    0.00000  celldm(5)=    0.00000  celldm(6)=    0.00000

     crystal axes: (cart. coord. in units of alat)
               a(1) = ( -0.5000  0.0000  0.5000 )  
               a(2) = (  0.0000  0.5000  0.5000 )  
               a(3) = ( -0.5000  0.5000  0.0000 )  

     reciprocal axes: (cart. coord. in units 2 pi/alat)
               b(1) = ( -1.0000 -1.0000  1.0000 )  
               b(2) = (  1.0000  1.0000  1.0000 )  
               b(3) = ( -1.0000  1.0000 -1.0000 )  


     Atoms inside the unit cell: 

     Cartesian axes

     site n.  atom      mass           positions (alat units)
        1     Na  22.9900   tau(    1) = (    0.00000    0.00000    0.00000  )

     Computing dynamical matrix for 
                    q = (  -0.2500000   0.5000000  -0.2500000 )

      2 Sym.Ops. (no q -> -q+G )


     G cutoff =  872.3776  (   6734 G-vectors)     FFT grid: ( 45, 45, 45)
     G cutoff =  436.1888  (   2394 G-vectors)  smooth grid: ( 30, 30, 30)

     number of k points= 11368  Marzari-Vanderbilt smearing, width (Ry)=  0.0200

     PseudoPot. # 1 for Na read from file:
     /home/s1333534/quantum_espresso/qe-6.1/pseudo/Na_pbe_v1.uspp.F.UPF
     MD5 check sum: 76a99c7e9422403d3e93cbc85ab7bccb
     Pseudo is Ultrasoft, Zval =  9.0
     Generated by new atomic code, or converted to UPF format
     Using radial grid of  819 points,  5 beta functions with: 
                l(1) =   0
                l(2) =   0
                l(3) =   1
                l(4) =   1
                l(5) =   2
     Q(r) pseudized with  8 coefficients,  rinner =    1.250   1.250   1.250
                                                       1.250   1.250

     Mode symmetry, C_s (m)     point group:


     Atomic displacements:
     There are   3 irreducible representations

     Representation     1      1 modes -A'  To be done

     Representation     2      1 modes -A'  To be done

     Representation     3      1 modes -A''  To be done



     Alpha used in Ewald sum =   2.8000
     PHONON       :     1h23m CPU        1h29m WALL



     Representation #  1 mode #   1

     Self-consistent Calculation

      iter #   1 total cpu time :  5432.3 secs   av.it.:   5.8
      thresh= 1.000E-02 alpha_mix =  0.700 |ddv_scf|^2 =  2.070E-04

      iter #   2 total cpu time :  5504.0 secs   av.it.:   7.1
      thresh= 1.439E-03 alpha_mix =  0.700 |ddv_scf|^2 =  1.063E-03

      iter #   3 total cpu time :  5567.7 secs   av.it.:   5.9
      thresh= 3.260E-03 alpha_mix =  0.700 |ddv_scf|^2 =  2.078E-07

      iter #   4 total cpu time :  5648.4 secs   av.it.:   8.3
      thresh= 4.558E-05 alpha_mix =  0.700 |ddv_scf|^2 =  4.217E-09

      iter #   5 total cpu time :  5729.7 secs   av.it.:   8.5
      thresh= 6.494E-06 alpha_mix =  0.700 |ddv_scf|^2 =  3.919E-10

      iter #   6 total cpu time :  5810.2 secs   av.it.:   8.3
      thresh= 1.980E-06 alpha_mix =  0.700 |ddv_scf|^2 =  2.025E-11

      iter #   7 total cpu time :  5890.0 secs   av.it.:   8.3
      thresh= 4.500E-07 alpha_mix =  0.700 |ddv_scf|^2 =  1.532E-12

      iter #   8 total cpu time :  5965.3 secs   av.it.:   7.5
      thresh= 1.238E-07 alpha_mix =  0.700 |ddv_scf|^2 =  5.261E-12

      iter #   9 total cpu time :  6032.4 secs   av.it.:   6.5
      thresh= 2.294E-07 alpha_mix =  0.700 |ddv_scf|^2 =  1.801E-13

     End of self-consistent calculation

     Convergence has been achieved 


     Representation #  2 mode #   2

     Self-consistent Calculation

      iter #   1 total cpu time :  6104.1 secs   av.it.:   5.7
      thresh= 1.000E-02 alpha_mix =  0.700 |ddv_scf|^2 =  6.010E-05

      iter #   2 total cpu time :  6181.7 secs   av.it.:   7.5
      thresh= 7.753E-04 alpha_mix =  0.700 |ddv_scf|^2 =  2.691E-04

      iter #   3 total cpu time :  6245.1 secs   av.it.:   6.0
      thresh= 1.640E-03 alpha_mix =  0.700 |ddv_scf|^2 =  2.516E-07

      iter #   4 total cpu time :  6324.1 secs   av.it.:   8.1
      thresh= 5.016E-05 alpha_mix =  0.700 |ddv_scf|^2 =  5.337E-09

      iter #   5 total cpu time :  6405.1 secs   av.it.:   8.3
      thresh= 7.305E-06 alpha_mix =  0.700 |ddv_scf|^2 =  2.944E-10

      iter #   6 total cpu time :  6484.8 secs   av.it.:   8.3
      thresh= 1.716E-06 alpha_mix =  0.700 |ddv_scf|^2 =  1.891E-11

      iter #   7 total cpu time :  6565.6 secs   av.it.:   8.3
      thresh= 4.349E-07 alpha_mix =  0.700 |ddv_scf|^2 =  7.119E-13

     End of self-consistent calculation

     Convergence has been achieved 


     Representation #  3 mode #   3

     Self-consistent Calculation

      iter #   1 total cpu time :  6634.9 secs   av.it.:   5.4
      thresh= 1.000E-02 alpha_mix =  0.700 |ddv_scf|^2 =  8.050E-06

      iter #   2 total cpu time :  6712.2 secs   av.it.:   7.8
      thresh= 2.837E-04 alpha_mix =  0.700 |ddv_scf|^2 =  1.301E-07

      iter #   3 total cpu time :  6790.9 secs   av.it.:   8.0
      thresh= 3.606E-05 alpha_mix =  0.700 |ddv_scf|^2 =  6.325E-09

      iter #   4 total cpu time :  6867.3 secs   av.it.:   7.7
      thresh= 7.953E-06 alpha_mix =  0.700 |ddv_scf|^2 =  2.220E-11

      iter #   5 total cpu time :  6945.4 secs   av.it.:   8.0
      thresh= 4.712E-07 alpha_mix =  0.700 |ddv_scf|^2 =  2.193E-14

     End of self-consistent calculation

     Convergence has been achieved 

     Number of q in the star =   24
     List of q in the star:
          1  -0.250000000   0.500000000  -0.250000000
          2  -0.250000000   0.500000000   0.250000000
          3   0.250000000   0.500000000  -0.250000000
          4   0.250000000   0.500000000   0.250000000
          5   0.250000000  -0.500000000   0.250000000
          6   0.500000000  -0.250000000   0.250000000
          7   0.250000000  -0.250000000   0.500000000
          8  -0.250000000  -0.500000000  -0.250000000
          9   0.250000000  -0.500000000  -0.250000000
         10  -0.250000000  -0.500000000   0.250000000
         11   0.250000000  -0.250000000  -0.500000000
         12   0.500000000  -0.250000000  -0.250000000
         13  -0.500000000  -0.250000000   0.250000000
         14   0.500000000   0.250000000   0.250000000
         15  -0.250000000  -0.250000000   0.500000000
         16   0.250000000   0.250000000   0.500000000
         17  -0.500000000   0.250000000  -0.250000000
         18  -0.250000000   0.250000000  -0.500000000
         19  -0.500000000  -0.250000000  -0.250000000
         20   0.250000000   0.250000000  -0.500000000
         21   0.500000000   0.250000000  -0.250000000
         22  -0.250000000  -0.250000000  -0.500000000
         23  -0.500000000   0.250000000   0.250000000
         24  -0.250000000   0.250000000   0.500000000

     Diagonalizing the dynamical matrix

     q = (   -0.250000000   0.500000000  -0.250000000 ) 

 **************************************************************************
     freq (    1) =       1.438425 [THz] =      47.980687 [cm-1]
     freq (    2) =       1.990010 [THz] =      66.379591 [cm-1]
     freq (    3) =       3.255080 [THz] =     108.577773 [cm-1]
 **************************************************************************

     Mode symmetry, C_s (m)     point group:

     freq (  1 -  1) =         48.0  [cm-1]   --> A''                
     freq (  2 -  2) =         66.4  [cm-1]   --> A'                 
     freq (  3 -  3) =        108.6  [cm-1]   --> A'                 

     Calculation of q =    0.6250000  -0.3750000   0.6250000

   Info: using nr1, nr2, nr3 values from input

   Info: using nr1, nr2, nr3 values from input

     Parallelization info
     --------------------
     sticks:   dense  smooth     PW     G-vecs:    dense   smooth      PW
     Min         297     148     55                 6733     2394     556
     Max         298     150     56                 6734     2395     558
     Sum        1189     595    223                26933     9577    2229



     bravais-lattice index     =            2
     lattice parameter (alat)  =      10.3743  a.u.
     unit-cell volume          =     279.1332 (a.u.)^3
     number of atoms/cell      =            1
     number of atomic types    =            1
     number of electrons       =         9.00
     number of Kohn-Sham states=            9
     kinetic-energy cutoff     =      40.0000  Ry
     charge density cutoff     =     320.0000  Ry
     Exchange-correlation      = SLA  PW   PBE  PBE ( 1  4  3  4 0 0)

     celldm(1)=  10.374260  celldm(2)=   0.000000  celldm(3)=   0.000000
     celldm(4)=   0.000000  celldm(5)=   0.000000  celldm(6)=   0.000000

     crystal axes: (cart. coord. in units of alat)
               a(1) = (  -0.500000   0.000000   0.500000 )  
               a(2) = (   0.000000   0.500000   0.500000 )  
               a(3) = (  -0.500000   0.500000   0.000000 )  

     reciprocal axes: (cart. coord. in units 2 pi/alat)
               b(1) = ( -1.000000 -1.000000  1.000000 )  
               b(2) = (  1.000000  1.000000  1.000000 )  
               b(3) = ( -1.000000  1.000000 -1.000000 )  


     PseudoPot. # 1 for Na read from file:
     /home/s1333534/quantum_espresso/qe-6.1/pseudo/Na_pbe_v1.uspp.F.UPF
     MD5 check sum: 76a99c7e9422403d3e93cbc85ab7bccb
     Pseudo is Ultrasoft, Zval =  9.0
     Generated by new atomic code, or converted to UPF format
[...]

     PseudoPot. # 1 for Na read from file:
     /home/s1333534/quantum_espresso/qe-6.1/pseudo/Na_pbe_v1.uspp.F.UPF
     MD5 check sum: 76a99c7e9422403d3e93cbc85ab7bccb
     Pseudo is Ultrasoft, Zval =  9.0
     Generated by new atomic code, or converted to UPF format
     Using radial grid of  819 points,  5 beta functions with: 
                l(1) =   0
                l(2) =   0
                l(3) =   1
                l(4) =   1
                l(5) =   2
     Q(r) pseudized with  8 coefficients,  rinner =    1.250   1.250   1.250
                                                       1.250   1.250

     Mode symmetry, C_2v (mm2)  point group:


     Atomic displacements:
     There are   3 irreducible representations

     Representation     1      1 modes -A_1  D_1  S_1  To be done

     Representation     2      1 modes -B_1  D_3  S_3  To be done

     Representation     3      1 modes -B_2  D_4  S_4  To be done



     Alpha used in Ewald sum =   2.8000
     PHONON       :    11h50m CPU       13h19m WALL



     Representation #  1 mode #   1

     Self-consistent Calculation

      iter #   1 total cpu time : 48007.0 secs   av.it.:   5.6
      thresh= 1.000E-02 alpha_mix =  0.700 |ddv_scf|^2 =  1.116E-05

      iter #   2 total cpu time : 48045.6 secs   av.it.:   8.0
      thresh= 3.341E-04 alpha_mix =  0.700 |ddv_scf|^2 =  3.120E-07

      iter #   3 total cpu time : 48084.1 secs   av.it.:   8.0
      thresh= 5.586E-05 alpha_mix =  0.700 |ddv_scf|^2 =  1.702E-08

      iter #   4 total cpu time : 48123.0 secs   av.it.:   8.1
      thresh= 1.304E-05 alpha_mix =  0.700 |ddv_scf|^2 =  1.166E-09

      iter #   5 total cpu time : 48162.1 secs   av.it.:   8.1
      thresh= 3.414E-06 alpha_mix =  0.700 |ddv_scf|^2 =  3.513E-11

      iter #   6 total cpu time : 48201.2 secs   av.it.:   8.2
      thresh= 5.927E-07 alpha_mix =  0.700 |ddv_scf|^2 =  3.054E-12

      iter #   7 total cpu time : 48241.5 secs   av.it.:   8.3
      thresh= 1.748E-07 alpha_mix =  0.700 |ddv_scf|^2 =  3.407E-14

     End of self-consistent calculation

     Convergence has been achieved 


     Representation #  2 mode #   2

     Self-consistent Calculation

      iter #   1 total cpu time : 48275.4 secs   av.it.:   5.6
      thresh= 1.000E-02 alpha_mix =  0.700 |ddv_scf|^2 =  1.164E-05

      iter #   2 total cpu time : 48313.8 secs   av.it.:   7.9
      thresh= 3.412E-04 alpha_mix =  0.700 |ddv_scf|^2 =  1.850E-07

      iter #   3 total cpu time : 48351.6 secs   av.it.:   8.0
      thresh= 4.301E-05 alpha_mix =  0.700 |ddv_scf|^2 =  1.286E-08

      iter #   4 total cpu time : 48389.4 secs   av.it.:   8.0
      thresh= 1.134E-05 alpha_mix =  0.700 |ddv_scf|^2 =  1.638E-10

      iter #   5 total cpu time : 48424.5 secs   av.it.:   7.2
      thresh= 1.280E-06 alpha_mix =  0.700 |ddv_scf|^2 =  1.572E-13

     End of self-consistent calculation

     Convergence has been achieved 


     Representation #  3 mode #   3

     Self-consistent Calculation

      iter #   1 total cpu time : 48458.9 secs   av.it.:   5.6
      thresh= 1.000E-02 alpha_mix =  0.700 |ddv_scf|^2 =  2.893E-05

      iter #   2 total cpu time : 48496.8 secs   av.it.:   7.7
      thresh= 5.379E-04 alpha_mix =  0.700 |ddv_scf|^2 =  4.142E-06

      iter #   3 total cpu time : 48532.9 secs   av.it.:   7.3
      thresh= 2.035E-04 alpha_mix =  0.700 |ddv_scf|^2 =  3.044E-08

      iter #   4 total cpu time : 48572.3 secs   av.it.:   8.1
      thresh= 1.745E-05 alpha_mix =  0.700 |ddv_scf|^2 =  1.370E-10

      iter #   5 total cpu time : 48605.8 secs   av.it.:   6.7
      thresh= 1.171E-06 alpha_mix =  0.700 |ddv_scf|^2 =  2.042E-13

     End of self-consistent calculation

     Convergence has been achieved 

     Number of q in the star =   12
     List of q in the star:
          1  -0.250000000  -1.000000000   0.000000000
          2   0.000000000  -1.000000000   0.250000000
          3   0.000000000  -1.000000000  -0.250000000
          4   0.250000000  -1.000000000   0.000000000
          5  -1.000000000   0.000000000  -0.250000000
          6   1.000000000   0.000000000   0.250000000
          7  -1.000000000  -0.250000000  -0.000000000
          8  -0.000000000  -0.250000000  -1.000000000
          9  -0.000000000   0.250000000  -1.000000000
         10   1.000000000   0.250000000   0.000000000
         11  -0.250000000  -0.000000000   1.000000000
         12   0.250000000  -0.000000000   1.000000000

     Diagonalizing the dynamical matrix

     q = (   -0.250000000  -1.000000000   0.000000000 ) 

 **************************************************************************
     freq (    1) =       2.396589 [THz] =      79.941592 [cm-1]
     freq (    2) =       2.948741 [THz] =      98.359407 [cm-1]
     freq (    3) =       3.754744 [THz] =     125.244762 [cm-1]
 **************************************************************************

     Mode symmetry, C_2v (mm2)  point group:

     freq (  1 -  1) =         79.9  [cm-1]   --> A_1  D_1  S_1      
     freq (  2 -  2) =         98.4  [cm-1]   --> B_1  D_3  S_3      
     freq (  3 -  3) =        125.2  [cm-1]   --> B_2  D_4  S_4      

     Calculation of q =   -0.5000000  -1.0000000   0.0000000

   Info: using nr1, nr2, nr3 values from input

   Info: using nr1, nr2, nr3 values from input

     Parallelization info
     --------------------
     sticks:   dense  smooth     PW     G-vecs:    dense   smooth      PW
     Min         297     148     55                 6733     2394     556
     Max         298     150     56                 6734     2395     558
     Sum        1189     595    223                26933     9577    2229



     bravais-lattice index     =            2
     lattice parameter (alat)  =      10.3743  a.u.
     unit-cell volume          =     279.1332 (a.u.)^3
     number of atoms/cell      =            1
     number of atomic types    =            1
     number of electrons       =         9.00
     number of Kohn-Sham states=            9
     kinetic-energy cutoff     =      40.0000  Ry
     charge density cutoff     =     320.0000  Ry
     Exchange-correlation      = SLA  PW   PBE  PBE ( 1  4  3  4 0 0)

     celldm(1)=  10.374260  celldm(2)=   0.000000  celldm(3)=   0.000000
     celldm(4)=   0.000000  celldm(5)=   0.000000  celldm(6)=   0.000000

     crystal axes: (cart. coord. in units of alat)
               a(1) = (  -0.500000   0.000000   0.500000 )  
               a(2) = (   0.000000   0.500000   0.500000 )  
               a(3) = (  -0.500000   0.500000   0.000000 )  

     reciprocal axes: (cart. coord. in units 2 pi/alat)
               b(1) = ( -1.000000 -1.000000  1.000000 )  
               b(2) = (  1.000000  1.000000  1.000000 )  
               b(3) = ( -1.000000  1.000000 -1.000000 )  


     PseudoPot. # 1 for Na read from file:
     /home/s1333534/quantum_espresso/qe-6.1/pseudo/Na_pbe_v1.uspp.F.UPF
     MD5 check sum: 76a99c7e9422403d3e93cbc85ab7bccb
     Pseudo is Ultrasoft, Zval =  9.0
     Generated by new atomic code, or converted to UPF format
     Using radial grid of  819 points,  5 beta functions with: 
                l(1) =   0
                l(2) =   0
                l(3) =   1
                l(4) =   1
                l(5) =   2
     Q(r) pseudized with  8 coefficients,  rinner =    1.250   1.250   1.250
                                                       1.250   1.250

     atomic species   valence    mass     pseudopotential
        Na             9.00    22.99000     Na( 1.00)

     48 Sym. Ops., with inversion, found



   Cartesian axes

     site n.     atom                  positions (alat units)
         1           Na  tau(   1) = (   0.0000000   0.0000000   0.0000000  )

     number of k points=  2744  Marzari-Vanderbilt smearing, width (Ry)=  0.0200

     Number of k-points >= 100: set verbosity='high' to print them.

     Dense  grid:    26933 G-vectors     FFT dimensions: (  45,  45,  45)

     Smooth grid:     9577 G-vectors     FFT dimensions: (  30,  30,  30)

     Estimated max dynamical RAM per process >       2.87MB

     Estimated total allocated dynamical RAM >      11.48MB

     The potential is recalculated from file :
     ./_ph0/na.fcc.save/charge-density.dat

     Starting wfc are    5 atomic +    4 random wfc

     Band Structure Calculation
     Davidson diagonalization with overlap

     ethr =  1.11E-10,  avg # of iterations = 20.8

     total cpu time spent up to now is     8922.2 secs

     End of band structure calculation

     Number of k-points >= 100: set verbosity='high' to print the bands.

     the Fermi energy is     1.1739 ev

     Writing output data file na.fcc.save

                                                                                

     bravais-lattice index     =            2
     lattice parameter (alat)  =      10.3743  a.u.
     unit-cell volume          =     279.1332 (a.u.)^3
     number of atoms/cell      =            1
     number of atomic types    =            1
     kinetic-energy cut-off    =      40.0000  Ry
     charge density cut-off    =     320.0000  Ry
     convergence threshold     =      1.0E-12
     beta                      =       0.7000
     number of iterations used =            4
     Exchange-correlation      = SLA  PW   PBE  PBE ( 1  4  3  4 0 0)


     celldm(1)=   10.37426  celldm(2)=    0.00000  celldm(3)=    0.00000
     celldm(4)=    0.00000  celldm(5)=    0.00000  celldm(6)=    0.00000

     crystal axes: (cart. coord. in units of alat)
               a(1) = ( -0.5000  0.0000  0.5000 )  
               a(2) = (  0.0000  0.5000  0.5000 )  
               a(3) = ( -0.5000  0.5000  0.0000 )  

     reciprocal axes: (cart. coord. in units 2 pi/alat)
               b(1) = ( -1.0000 -1.0000  1.0000 )  
               b(2) = (  1.0000  1.0000  1.0000 )  
               b(3) = ( -1.0000  1.0000 -1.0000 )  


     Atoms inside the unit cell: 

     Cartesian axes

     site n.  atom      mass           positions (alat units)
        1     Na  22.9900   tau(    1) = (    0.00000    0.00000    0.00000  )

     Computing dynamical matrix for 
                    q = (  -0.5000000  -1.0000000   0.0000000 )

      8 Sym.Ops. (no q -> -q+G )


     G cutoff =  872.3776  (   6734 G-vectors)     FFT grid: ( 45, 45, 45)
     G cutoff =  436.1888  (   2394 G-vectors)  smooth grid: ( 30, 30, 30)

     number of k points=  2744  Marzari-Vanderbilt smearing, width (Ry)=  0.0200

     PseudoPot. # 1 for Na read from file:
     /home/s1333534/quantum_espresso/qe-6.1/pseudo/Na_pbe_v1.uspp.F.UPF
     MD5 check sum: 76a99c7e9422403d3e93cbc85ab7bccb
     Pseudo is Ultrasoft, Zval =  9.0
     Generated by new atomic code, or converted to UPF format
     Using radial grid of  819 points,  5 beta functions with: 
                l(1) =   0
                l(2) =   0
                l(3) =   1
                l(4) =   1
                l(5) =   2
     Q(r) pseudized with  8 coefficients,  rinner =    1.250   1.250   1.250
                                                       1.250   1.250

     Mode symmetry, D_2d (-42m) point group:


     Atomic displacements:
     There are   2 irreducible representations

     Representation     1      1 modes -B_2  X_3  W_2  To be done

     Representation     2      2 modes -E    X_5  W_3  To be done



     Alpha used in Ewald sum =   2.8000
     PHONON       :    12h 2m CPU       13h31m WALL



     Representation #  1 mode #   1

     Self-consistent Calculation

      iter #   1 total cpu time : 48731.3 secs   av.it.:   5.6
      thresh= 1.000E-02 alpha_mix =  0.700 |ddv_scf|^2 =  1.257E-05

      iter #   2 total cpu time : 48750.4 secs   av.it.:   8.0
      thresh= 3.546E-04 alpha_mix =  0.700 |ddv_scf|^2 =  4.062E-07

      iter #   3 total cpu time : 48769.0 secs   av.it.:   7.8
      thresh= 6.373E-05 alpha_mix =  0.700 |ddv_scf|^2 =  1.149E-08

      iter #   4 total cpu time : 48788.5 secs   av.it.:   8.2
      thresh= 1.072E-05 alpha_mix =  0.700 |ddv_scf|^2 =  3.124E-10

      iter #   5 total cpu time : 48806.3 secs   av.it.:   7.5
      thresh= 1.768E-06 alpha_mix =  0.700 |ddv_scf|^2 =  4.651E-13

     End of self-consistent calculation

     Convergence has been achieved 


     Representation #  2 modes #   2  3

     Self-consistent Calculation

      iter #   1 total cpu time : 48840.3 secs   av.it.:   5.7
      thresh= 1.000E-02 alpha_mix =  0.700 |ddv_scf|^2 =  4.572E-06

      iter #   2 total cpu time : 48879.5 secs   av.it.:   8.3
      thresh= 2.138E-04 alpha_mix =  0.700 |ddv_scf|^2 =  2.454E-07

      iter #   3 total cpu time : 48917.7 secs   av.it.:   8.1
      thresh= 4.954E-05 alpha_mix =  0.700 |ddv_scf|^2 =  5.105E-09

      iter #   4 total cpu time : 48958.1 secs   av.it.:   8.6
      thresh= 7.145E-06 alpha_mix =  0.700 |ddv_scf|^2 =  4.009E-11

      iter #   5 total cpu time : 48995.2 secs   av.it.:   7.7
      thresh= 6.332E-07 alpha_mix =  0.700 |ddv_scf|^2 =  3.251E-14

     End of self-consistent calculation

     Convergence has been achieved 

     Number of q in the star =    6
     List of q in the star:
          1  -0.500000000  -1.000000000   0.000000000
          2   0.000000000   1.000000000   0.500000000
          3   0.500000000  -1.000000000   0.000000000
          4   0.000000000   1.000000000  -0.500000000
          5  -1.000000000  -0.500000000   0.000000000
          6   0.000000000  -0.500000000  -1.000000000

     Diagonalizing the dynamical matrix

     q = (   -0.500000000  -1.000000000   0.000000000 ) 

 **************************************************************************
     freq (    1) =       3.147878 [THz] =     105.001917 [cm-1]
     freq (    2) =       3.180599 [THz] =     106.093370 [cm-1]
     freq (    3) =       3.180599 [THz] =     106.093370 [cm-1]
 **************************************************************************

     Mode symmetry, D_2d (-42m) point group:

     freq (  1 -  1) =        105.0  [cm-1]   --> B_2  X_3  W_2      
     freq (  2 -  3) =        106.1  [cm-1]   --> E    X_5  W_3      

     init_run     :     11.25s CPU     11.55s WALL (      28 calls)
     electrons    :   8299.80s CPU   8742.98s WALL (      28 calls)

     Called by init_run:
     wfcinit      :      0.00s CPU      0.00s WALL (      28 calls)
     potinit      :      0.64s CPU      0.69s WALL (      28 calls)

     Called by electrons:
     c_bands      :   8298.54s CPU   8741.67s WALL (      28 calls)
     v_of_rho     :      0.54s CPU      0.54s WALL (      29 calls)
     newd         :      0.55s CPU      0.56s WALL (      29 calls)

     Called by c_bands:
     init_us_2    :    451.85s CPU    430.18s WALL ( 3377801 calls)
     cegterg      :   7623.73s CPU   7992.90s WALL (  329170 calls)

     Called by sum_band:

     Called by *egterg:
     h_psi        :  28106.73s CPU  29686.85s WALL (29258462 calls)
     s_psi        :    586.05s CPU    671.22s WALL (55308831 calls)
     g_psi        :     40.28s CPU     54.98s WALL ( 5020384 calls)
     cdiaghg      :   1136.50s CPU   1070.24s WALL ( 5260288 calls)

     Called by h_psi:
     h_psi:pot    :  28001.48s CPU  29551.67s WALL (29258462 calls)
     h_psi:calbec :    494.87s CPU    557.72s WALL (29258462 calls)
     vloc_psi     :  27071.91s CPU  28508.41s WALL (29258462 calls)
     add_vuspsi   :    367.90s CPU    398.26s WALL (29258462 calls)

     General routines
     calbec       :   1158.24s CPU   1168.70s WALL (61176084 calls)
     fft          :      5.95s CPU      6.35s WALL (    8887 calls)
     ffts         :     46.05s CPU     49.35s WALL (  363576 calls)
     fftw         :  30299.23s CPU  31020.21s WALL (******** calls)
     interpolate  :      1.05s CPU      1.18s WALL (    1233 calls)
     davcio       :    228.04s CPU   3225.81s WALL (12730444 calls)

     Parallel routines
     fft_scatter  :   5488.19s CPU   6745.81s WALL (******** calls)

     PHONON       :    12h 6m CPU       13h36m WALL

     INITIALIZATION: 
     phq_setup    :      1.61s CPU      1.69s WALL (      29 calls)
     phq_init     :    591.64s CPU    619.84s WALL (      29 calls)

     phq_init     :    591.64s CPU    619.84s WALL (      29 calls)
     init_vloc    :      0.11s CPU      0.11s WALL (      29 calls)
     init_us_1    :      3.66s CPU      3.79s WALL (      29 calls)
     newd         :      0.55s CPU      0.56s WALL (      29 calls)
     dvanqq       :      2.03s CPU      2.04s WALL (      29 calls)
     drho         :    500.31s CPU    523.92s WALL (      29 calls)

     DYNAMICAL MATRIX:
     dynmat0      :     56.48s CPU     58.31s WALL (      29 calls)
     phqscf       :  34517.18s CPU  39443.64s WALL (      29 calls)
     dynmatrix    :      0.03s CPU      0.13s WALL (      29 calls)

     phqscf       :  34517.18s CPU  39443.64s WALL (      29 calls)
     solve_linter :  34319.94s CPU  39207.45s WALL (      76 calls)
     drhodv       :    197.14s CPU    235.41s WALL (      76 calls)

     dynmat0      :     56.48s CPU     58.31s WALL (      29 calls)
     dynmat_us    :     56.42s CPU     58.25s WALL (      29 calls)
     d2ionq       :      0.04s CPU      0.04s WALL (      29 calls)

     dynmat_us    :     56.42s CPU     58.25s WALL (      29 calls)
     addusdynmat  :      0.00s CPU      0.00s WALL (      29 calls)

     phqscf       :  34517.18s CPU  39443.64s WALL (      29 calls)
     solve_linter :  34319.94s CPU  39207.45s WALL (      76 calls)

     solve_linter :  34319.94s CPU  39207.45s WALL (      76 calls)
     dvqpsi_us    :    847.72s CPU    896.06s WALL (  360696 calls)
     ortho        :    460.03s CPU    497.88s WALL ( 2381365 calls)
     cgsolve      :  23806.49s CPU  25209.64s WALL ( 2381365 calls)
     incdrhoscf   :   2738.28s CPU   2938.91s WALL ( 2381365 calls)
     addusddens   :     14.87s CPU     19.91s WALL (     565 calls)
     vpsifft      :   2616.48s CPU   2819.65s WALL ( 2020669 calls)
     dv_of_drho   :      7.26s CPU      7.82s WALL (     544 calls)
     mix_pot      :      3.06s CPU     18.33s WALL (     489 calls)
     ef_shift     :      0.02s CPU      0.04s WALL (       6 calls)
     localdos     :      0.26s CPU      0.27s WALL (       1 calls)
     psymdvscf    :     10.32s CPU     10.79s WALL (     447 calls)
     newdq        :     13.22s CPU     13.31s WALL (     489 calls)
     adddvscf     :     76.62s CPU     97.33s WALL ( 2020669 calls)
     drhodvus     :      0.19s CPU      0.52s WALL (      76 calls)

     dvqpsi_us    :    847.72s CPU    896.06s WALL (  360696 calls)
     dvqpsi_us_on :     97.44s CPU     91.42s WALL (  360696 calls)

     cgsolve      :  23806.49s CPU  25209.64s WALL ( 2381365 calls)
     ch_psi       :  23418.19s CPU  24829.72s WALL (23669004 calls)

     ch_psi       :  23418.19s CPU  24829.72s WALL (23669004 calls)
     h_psi        :  28106.73s CPU  29686.85s WALL (29258462 calls)
     last         :   1118.09s CPU   1233.54s WALL (23669004 calls)

     h_psi        :  28106.73s CPU  29686.85s WALL (29258462 calls)
     add_vuspsi   :    367.90s CPU    398.26s WALL (29258462 calls)

     incdrhoscf   :   2738.28s CPU   2938.91s WALL ( 2381365 calls)
     addusdbec    :    151.58s CPU    144.97s WALL ( 2742061 calls)

     drhodvus     :      0.19s CPU      0.52s WALL (      76 calls)

      General routines
     calbec       :   1158.24s CPU   1168.70s WALL (61176084 calls)
     fft          :      5.95s CPU      6.35s WALL (    8887 calls)
     ffts         :     46.05s CPU     49.35s WALL (  363576 calls)
     fftw         :  30299.23s CPU  31020.21s WALL (******** calls)
     davcio       :    228.04s CPU   3225.81s WALL (12730444 calls)
     write_rec    :      0.46s CPU      3.48s WALL (     565 calls)


     PHONON       :    12h 6m CPU       13h36m WALL


   This run was terminated on:   1:52: 4  22Dec2017            

=------------------------------------------------------------------------------=
   JOB DONE.
=------------------------------------------------------------------------------=
