
     Program PWSCF v.5.4.0 starts on  4Jun2016 at 13:38:17 

     This program is part of the open-source Quantum ESPRESSO suite
     for quantum simulation of materials; please cite
         "P. Giannozzi et al., J. Phys.:Condens. Matter 21 395502 (2009);
          URL http://www.quantum-espresso.org", 
     in publications or presentations arising from this work. More details at
     http://www.quantum-espresso.org/quote

     Parallel version (MPI), running on   384 processors
     K-points division:     npool     =     384
     Waiting for input...
     Reading input from standard input
     Message from routine read_cards :
     DEPRECATED: no units specified in ATOMIC_POSITIONS card
     Message from routine read_cards :
     ATOMIC_POSITIONS: units set to alat

     Current dimensions of program PWSCF are:
     Max number of different atomic species (ntypx) = 10
     Max number of k-points (npk) = 400000
     Max angular momentum in pseudopotentials (lmaxx) =  3

     Subspace diagonalization in iterative solution of the eigenvalue problem:
     a serial algorithm will be used

 
     G-vector sticks info
     --------------------
     sticks:   dense  smooth     PW     G-vecs:    dense   smooth      PW
     Sum         955     475    163                19195     6735    1363
 


     bravais-lattice index     =            2
     lattice parameter (alat)  =       7.5481  a.u.
     unit-cell volume          =     107.5096 (a.u.)^3
     number of atoms/cell      =            1
     number of atomic types    =            1
     number of electrons       =         3.00
     number of Kohn-Sham states=            6
     kinetic-energy cutoff     =      60.0000  Ry
     charge density cutoff     =     480.0000  Ry
     convergence threshold     =      1.0E-11
     mixing beta               =       0.7000
     number of iterations used =            8  plain     mixing
     Exchange-correlation      =  SLA  PW   PBX  PBC ( 1  4  3  4 0 0)

     celldm(1)=   7.548066  celldm(2)=   0.000000  celldm(3)=   0.000000
     celldm(4)=   0.000000  celldm(5)=   0.000000  celldm(6)=   0.000000

     crystal axes: (cart. coord. in units of alat)
               a(1) = (  -0.500000   0.000000   0.500000 )  
               a(2) = (   0.000000   0.500000   0.500000 )  
               a(3) = (  -0.500000   0.500000   0.000000 )  

     reciprocal axes: (cart. coord. in units 2 pi/alat)
               b(1) = ( -1.000000 -1.000000  1.000000 )  
               b(2) = (  1.000000  1.000000  1.000000 )  
               b(3) = ( -1.000000  1.000000 -1.000000 )  


     PseudoPot. # 1 for Li read from file:
     ../Li.pbe-s-gbrv14.UPF
     MD5 check sum: 7ca33c4f951f001da2db5c8738379802
     Pseudo is Ultrasoft, Zval =  3.0
     Generated by new atomic code, or converted to UPF format
     Using radial grid of  751 points,  5 beta functions with: 
                l(1) =   0
                l(2) =   0
                l(3) =   0
                l(4) =   1
                l(5) =   1
     Q(r) pseudized with 10 coefficients,  rinner =    1.150   1.150   1.150


     atomic species   valence    mass     pseudopotential
        Li             3.00     6.94100     Li( 1.00)

     48 Sym. Ops., with inversion, found



   Cartesian axes

     site n.     atom                  positions (alat units)
         1           Li  tau(   1) = (   0.0000000   0.0000000   0.0000000  )

     number of k points=  2030  Marzari-Vanderbilt smearing, width (Ry)=  0.0200

     Number of k-points >= 100: set verbosity='high' to print them.

     Dense  grid:    19195 G-vectors     FFT dimensions: (  40,  40,  40)

     Smooth grid:     6735 G-vectors     FFT dimensions: (  27,  27,  27)

     Largest allocated arrays     est. size (Mb)     dimensions
        Kohn-Sham Wavefunctions         0.08 Mb     (     876,    6)
        NL pseudopotentials             0.12 Mb     (     876,    9)
        Each V/rho on FFT grid          0.98 Mb     (   64000)
        Each G-vector array             0.15 Mb     (   19195)
        G-vector shells                 0.00 Mb     (     234)
     Largest temporary arrays     est. size (Mb)     dimensions
        Auxiliary wavefunctions         0.32 Mb     (     876,   24)
        Each subspace H/S matrix        0.01 Mb     (      24,   24)
        Each <psi_i|beta_j> matrix      0.00 Mb     (       9,    6)
        Arrays for rho mixing           7.81 Mb     (   64000,    8)

     Initial potential from superposition of free atoms

     starting charge    2.54926, renormalised to    3.00000
     Starting wfc are    5 randomized atomic wfcs +    1 random wfc

     total cpu time spent up to now is        2.1 secs

     per-process dynamical memory:    20.4 Mb

     Self-consistent Calculation

     iteration #  1     ecut=    60.00 Ry     beta=0.70
     Davidson diagonalization with overlap
     ethr =  1.00E-02,  avg # of iterations =  5.1

     total cpu time spent up to now is        2.4 secs

     total energy              =     -14.46258643 Ry
     Harris-Foulkes estimate   =     -14.57637387 Ry
     estimated scf accuracy    <       0.15928473 Ry

     iteration #  2     ecut=    60.00 Ry     beta=0.70
     Davidson diagonalization with overlap
     ethr =  5.31E-03,  avg # of iterations =  1.0

     total cpu time spent up to now is        2.6 secs

     total energy              =     -14.46645783 Ry
     Harris-Foulkes estimate   =     -14.47158662 Ry
     estimated scf accuracy    <       0.00698541 Ry

     iteration #  3     ecut=    60.00 Ry     beta=0.70
     Davidson diagonalization with overlap
     ethr =  2.33E-04,  avg # of iterations =  2.1

     total cpu time spent up to now is        2.8 secs

     total energy              =     -14.46812061 Ry
     Harris-Foulkes estimate   =     -14.46811399 Ry
     estimated scf accuracy    <       0.00003599 Ry

     iteration #  4     ecut=    60.00 Ry     beta=0.70
     Davidson diagonalization with overlap
     ethr =  1.20E-06,  avg # of iterations =  3.3

     total cpu time spent up to now is        3.1 secs

     total energy              =     -14.46812595 Ry
     Harris-Foulkes estimate   =     -14.46812622 Ry
     estimated scf accuracy    <       0.00000089 Ry

     iteration #  5     ecut=    60.00 Ry     beta=0.70
     Davidson diagonalization with overlap
     ethr =  2.96E-08,  avg # of iterations =  2.2

     total cpu time spent up to now is        3.3 secs

     total energy              =     -14.46812635 Ry
     Harris-Foulkes estimate   =     -14.46812636 Ry
     estimated scf accuracy    <       0.00000002 Ry

     iteration #  6     ecut=    60.00 Ry     beta=0.70
     Davidson diagonalization with overlap
     ethr =  5.88E-10,  avg # of iterations =  2.1

     total cpu time spent up to now is        3.5 secs

     total energy              =     -14.46812635 Ry
     Harris-Foulkes estimate   =     -14.46812635 Ry
     estimated scf accuracy    <          5.5E-11 Ry

     iteration #  7     ecut=    60.00 Ry     beta=0.70
     Davidson diagonalization with overlap
     ethr =  1.83E-12,  avg # of iterations =  2.5

     total cpu time spent up to now is        3.7 secs

     End of self-consistent calculation

     Number of k-points >= 100: set verbosity='high' to print the bands.

     the Fermi energy is     1.7700 ev

!    total energy              =     -14.46812635 Ry
     Harris-Foulkes estimate   =     -14.46812635 Ry
     estimated scf accuracy    <          8.0E-13 Ry

     The total energy is the sum of the following terms:

     one-electron contribution =      -9.06899175 Ry
     hartree contribution      =       3.48121734 Ry
     xc contribution           =      -3.41346997 Ry
     ewald contribution        =      -5.46679887 Ry
     smearing contrib. (-TS)   =      -0.00008311 Ry

     convergence has been achieved in   7 iterations


     entering subroutine stress ...

          total   stress  (Ry/bohr**3)                   (kbar)     P=   49.09
   0.00033373   0.00000000   0.00000000         49.09      0.00      0.00
   0.00000000   0.00033373  -0.00000000          0.00     49.09     -0.00
   0.00000000  -0.00000000   0.00033373          0.00     -0.00     49.09


     Writing output data file li-fcc.save
 
     init_run     :      0.28s CPU      0.29s WALL (       1 calls)
     electrons    :      1.60s CPU      1.64s WALL (       1 calls)
     stress       :      0.11s CPU      0.11s WALL (       1 calls)

     Called by init_run:
     wfcinit      :      0.03s CPU      0.03s WALL (       1 calls)
     potinit      :      0.06s CPU      0.06s WALL (       1 calls)

     Called by electrons:
     c_bands      :      0.72s CPU      0.75s WALL (       7 calls)
     sum_band     :      0.33s CPU      0.33s WALL (       7 calls)
     v_of_rho     :      0.33s CPU      0.33s WALL (       8 calls)
     newd         :      0.12s CPU      0.13s WALL (       8 calls)
     mix_rho      :      0.03s CPU      0.04s WALL (       7 calls)

     Called by c_bands:
     init_us_2    :      0.02s CPU      0.02s WALL (      96 calls)
     cegterg      :      0.64s CPU      0.63s WALL (      42 calls)

     Called by sum_band:
     sum_band:bec :      0.00s CPU      0.00s WALL (      42 calls)
     addusdens    :      0.12s CPU      0.13s WALL (       7 calls)

     Called by *egterg:
     h_psi        :      0.60s CPU      0.61s WALL (     175 calls)
     s_psi        :      0.01s CPU      0.00s WALL (     175 calls)
     g_psi        :      0.00s CPU      0.00s WALL (     127 calls)
     cdiaghg      :      0.01s CPU      0.02s WALL (     169 calls)

     Called by h_psi:
     add_vuspsi   :      0.00s CPU      0.00s WALL (     175 calls)

     General routines
     calbec       :      0.01s CPU      0.01s WALL (     223 calls)
     fft          :      0.20s CPU      0.21s WALL (     129 calls)
     ffts         :      0.01s CPU      0.01s WALL (      15 calls)
     fftw         :      0.61s CPU      0.61s WALL (    1716 calls)
     interpolate  :      0.03s CPU      0.04s WALL (      15 calls)
     davcio       :      0.00s CPU      0.00s WALL (       6 calls)
 
     Parallel routines
     fft_scatter  :      0.07s CPU      0.06s WALL (    1860 calls)
 
     PWSCF        :  0m 9.42s CPU     5m21.16s WALL

 
   This run was terminated on:  13:43:38   4Jun2016            

=------------------------------------------------------------------------------=
   JOB DONE.
=------------------------------------------------------------------------------=
Application 21915969 resources: utime ~122832s, stime ~66s, Rss ~46396, inblocks ~2185555, outblocks ~2590252
