
     Program PHONON v.5.4.0 starts on  4Jun2016 at 13:43:49 

     This program is part of the open-source Quantum ESPRESSO suite
     for quantum simulation of materials; please cite
         "P. Giannozzi et al., J. Phys.:Condens. Matter 21 395502 (2009);
          URL http://www.quantum-espresso.org", 
     in publications or presentations arising from this work. More details at
     http://www.quantum-espresso.org/quote

     Parallel version (MPI), running on   384 processors
     K-points division:     npool     =     384

     Reading data from directory:
     ./tmp/li-fcc.save

   Info: using nr1, nr2, nr3 values from input

   Info: using nr1, nr2, nr3 values from input

     IMPORTANT: XC functional enforced from input :
     Exchange-correlation      =  SLA  PW   PBX  PBC ( 1  4  3  4 0 0)
     Any further DFT definition will be discarded
     Please, verify this is what you really want

 
     G-vector sticks info
     --------------------
     sticks:   dense  smooth     PW     G-vecs:    dense   smooth      PW
     Sum         955     475    163                19195     6735    1363
 


     Dynamical matrices for ( 8, 8, 8)  uniform grid of q-points
     (  29q-points):
       N         xq(1)         xq(2)         xq(3) 
       1   0.000000000   0.000000000   0.000000000
       2  -0.125000000   0.125000000  -0.125000000
       3  -0.250000000   0.250000000  -0.250000000
       4  -0.375000000   0.375000000  -0.375000000
       5   0.500000000  -0.500000000   0.500000000
       6   0.000000000   0.250000000   0.000000000
       7  -0.125000000   0.375000000  -0.125000000
       8  -0.250000000   0.500000000  -0.250000000
       9   0.625000000  -0.375000000   0.625000000
      10   0.500000000  -0.250000000   0.500000000
      11   0.375000000  -0.125000000   0.375000000
      12   0.250000000   0.000000000   0.250000000
      13   0.000000000   0.500000000   0.000000000
      14  -0.125000000   0.625000000  -0.125000000
      15   0.750000000  -0.250000000   0.750000000
      16   0.625000000  -0.125000000   0.625000000
      17   0.500000000   0.000000000   0.500000000
      18   0.000000000   0.750000000   0.000000000
      19   0.875000000  -0.125000000   0.875000000
      20   0.750000000   0.000000000   0.750000000
      21   0.000000000  -1.000000000   0.000000000
      22  -0.250000000   0.500000000   0.000000000
      23   0.625000000  -0.375000000   0.875000000
      24   0.500000000  -0.250000000   0.750000000
      25   0.750000000  -0.250000000   1.000000000
      26   0.625000000  -0.125000000   0.875000000
      27   0.500000000   0.000000000   0.750000000
      28  -0.250000000  -1.000000000   0.000000000
      29  -0.500000000  -1.000000000   0.000000000

     Calculation of q =    0.0000000   0.0000000   0.0000000

                                                                                

     bravais-lattice index     =            2
     lattice parameter (alat)  =       7.5481  a.u.
     unit-cell volume          =     107.5096 (a.u.)^3
     number of atoms/cell      =            1
     number of atomic types    =            1
     kinetic-energy cut-off    =      60.0000  Ry
     charge density cut-off    =     480.0000  Ry
     convergence threshold     =      1.0E-16
     beta                      =       0.7000
     number of iterations used =            4
     Exchange-correlation      =  SLA  PW   PBX  PBC ( 1  4  3  4 0 0)


     celldm(1)=    7.54807  celldm(2)=    0.00000  celldm(3)=    0.00000
     celldm(4)=    0.00000  celldm(5)=    0.00000  celldm(6)=    0.00000

     crystal axes: (cart. coord. in units of alat)
               a(1) = ( -0.5000  0.0000  0.5000 )  
               a(2) = (  0.0000  0.5000  0.5000 )  
               a(3) = ( -0.5000  0.5000  0.0000 )  

     reciprocal axes: (cart. coord. in units 2 pi/alat)
               b(1) = ( -1.0000 -1.0000  1.0000 )  
               b(2) = (  1.0000  1.0000  1.0000 )  
               b(3) = ( -1.0000  1.0000 -1.0000 )  


     Atoms inside the unit cell: 

     Cartesian axes

     site n.  atom      mass           positions (alat units)
        1     Li   6.9410   tau(    1) = (    0.00000    0.00000    0.00000  )

     Computing dynamical matrix for 
                    q = (   0.0000000   0.0000000   0.0000000 )
 
     49 Sym.Ops. (with q -> -q+G )


     G cutoff =  692.7123  (  19195 G-vectors)     FFT grid: ( 40, 40, 40)
     G cutoff =  346.3561  (   6735 G-vectors)  smooth grid: ( 27, 27, 27)

     number of k points=  2030  Marzari-Vanderbilt smearing, width (Ry)=  0.0200

     PseudoPot. # 1 for Li read from file:
     ../Li.pbe-s-gbrv14.UPF
     MD5 check sum: 7ca33c4f951f001da2db5c8738379802
     Pseudo is Ultrasoft, Zval =  3.0
     Generated by new atomic code, or converted to UPF format
     Using radial grid of  751 points,  5 beta functions with: 
                l(1) =   0
                l(2) =   0
                l(3) =   0
                l(4) =   1
                l(5) =   1
     Q(r) pseudized with 10 coefficients,  rinner =    1.150   1.150   1.150


     Mode symmetry, O_h (m-3m)  point group:


     Atomic displacements:
     There are   1 irreducible representations

     Representation     1      3 modes -T_1u G_15  G_4-  To be done



     Alpha used in Ewald sum =   2.8000
     PHONON       :  0m22.52s CPU     1m 0.38s WALL



     Representation #  1 modes #   1  2  3

     Self-consistent Calculation
 
     Pert. #  1: Fermi energy shift (Ry) =     1.7233E-26     0.0000E+00
     Pert. #  2: Fermi energy shift (Ry) =    -5.2776E-26     3.9183E-39
     Pert. #  3: Fermi energy shift (Ry) =    -4.5236E-26    -1.1755E-38

      iter #   1 total cpu time :    61.2 secs   av.it.:   5.5
      thresh= 1.000E-02 alpha_mix =  0.700 |ddv_scf|^2 =  1.316E-07
 
     Pert. #  1: Fermi energy shift (Ry) =    -6.8932E-26    -4.8979E-40
     Pert. #  2: Fermi energy shift (Ry) =     2.5419E-25    -3.0612E-40
     Pert. #  3: Fermi energy shift (Ry) =    -2.2403E-25    -2.6020E-40

      iter #   2 total cpu time :    71.5 secs   av.it.:   9.4
      thresh= 3.627E-05 alpha_mix =  0.700 |ddv_scf|^2 =  8.000E-09
 
     Pert. #  1: Fermi energy shift (Ry) =    -5.1699E-26     7.6530E-42
     Pert. #  2: Fermi energy shift (Ry) =     7.3240E-26    -1.1479E-41
     Pert. #  3: Fermi energy shift (Ry) =     2.5849E-25     0.0000E+00

      iter #   3 total cpu time :    74.3 secs   av.it.:   9.6
      thresh= 8.944E-06 alpha_mix =  0.700 |ddv_scf|^2 =  3.756E-11
 
     Pert. #  1: Fermi energy shift (Ry) =     0.0000E+00    -6.6963E-42
     Pert. #  2: Fermi energy shift (Ry) =     3.8774E-26     4.0656E-42
     Pert. #  3: Fermi energy shift (Ry) =    -2.5849E-26     7.8921E-42

      iter #   4 total cpu time :    77.8 secs   av.it.:   9.1
      thresh= 6.129E-07 alpha_mix =  0.700 |ddv_scf|^2 =  1.023E-13
 
     Pert. #  1: Fermi energy shift (Ry) =     5.1699E-26    -7.6530E-42
     Pert. #  2: Fermi energy shift (Ry) =     4.0928E-26    -4.7831E-42
     Pert. #  3: Fermi energy shift (Ry) =     1.3786E-25    -4.0656E-42

      iter #   5 total cpu time :    80.8 secs   av.it.:   8.3
      thresh= 3.198E-08 alpha_mix =  0.700 |ddv_scf|^2 =  2.284E-15
 
     Pert. #  1: Fermi energy shift (Ry) =     1.7233E-25    -7.6530E-42
     Pert. #  2: Fermi energy shift (Ry) =    -1.0771E-26    -4.7831E-42
     Pert. #  3: Fermi energy shift (Ry) =    -1.7233E-26    -4.0656E-42

      iter #   6 total cpu time :    89.3 secs   av.it.:   8.6
      thresh= 4.779E-09 alpha_mix =  0.700 |ddv_scf|^2 =  4.800E-19

     End of self-consistent calculation

     Convergence has been achieved 
 
     Number of q in the star =    1
     List of q in the star:
          1   0.000000000   0.000000000   0.000000000

     Diagonalizing the dynamical matrix

     q = (    0.000000000   0.000000000   0.000000000 ) 

 **************************************************************************
     freq (    1) =       0.145340 [THz] =       4.848030 [cm-1]
     freq (    2) =       0.145340 [THz] =       4.848030 [cm-1]
     freq (    3) =       0.145340 [THz] =       4.848030 [cm-1]
 **************************************************************************

     Mode symmetry, O_h (m-3m)  point group:

     freq (  1 -  3) =          4.8  [cm-1]   --> T_1u G_15  G_4- I  

     Calculation of q =   -0.1250000   0.1250000  -0.1250000
 
     G-vector sticks info
     --------------------
     sticks:   dense  smooth     PW     G-vecs:    dense   smooth      PW
     Sum         955     475    163                19195     6735    1459
 


     bravais-lattice index     =            2
     lattice parameter (alat)  =       7.5481  a.u.
     unit-cell volume          =     107.5096 (a.u.)^3
     number of atoms/cell      =            1
     number of atomic types    =            1
     number of electrons       =         3.00
     number of Kohn-Sham states=            6
     kinetic-energy cutoff     =      60.0000  Ry
     charge density cutoff     =     480.0000  Ry
     Exchange-correlation      =  SLA  PW   PBX  PBC ( 1  4  3  4 0 0)

     celldm(1)=   7.548066  celldm(2)=   0.000000  celldm(3)=   0.000000
     celldm(4)=   0.000000  celldm(5)=   0.000000  celldm(6)=   0.000000

     crystal axes: (cart. coord. in units of alat)
               a(1) = (  -0.500000   0.000000   0.500000 )  
               a(2) = (   0.000000   0.500000   0.500000 )  
               a(3) = (  -0.500000   0.500000   0.000000 )  

     reciprocal axes: (cart. coord. in units 2 pi/alat)
               b(1) = ( -1.000000 -1.000000  1.000000 )  
               b(2) = (  1.000000  1.000000  1.000000 )  
               b(3) = ( -1.000000  1.000000 -1.000000 )  


     PseudoPot. # 1 for Li read from file:
     ../Li.pbe-s-gbrv14.UPF
     MD5 check sum: 7ca33c4f951f001da2db5c8738379802
     Pseudo is Ultrasoft, Zval =  3.0
     Generated by new atomic code, or converted to UPF format
     Using radial grid of  751 points,  5 beta functions with: 
                l(1) =   0
                l(2) =   0
                l(3) =   0
                l(4) =   1
                l(5) =   1
     Q(r) pseudized with 10 coefficients,  rinner =    1.150   1.150   1.150


     atomic species   valence    mass     pseudopotential
        Li             3.00     6.94100     Li( 1.00)

     48 Sym. Ops., with inversion, found



   Cartesian axes

     site n.     atom                  positions (alat units)
         1           Li  tau(   1) = (   0.0000000   0.0000000   0.0000000  )

     number of k points= 30856  Marzari-Vanderbilt smearing, width (Ry)=  0.0200

     Number of k-points >= 100: set verbosity='high' to print them.

     Dense  grid:    19195 G-vectors     FFT dimensions: (  40,  40,  40)

     Smooth grid:     6735 G-vectors     FFT dimensions: (  27,  27,  27)

     Largest allocated arrays     est. size (Mb)     dimensions
        Kohn-Sham Wavefunctions         0.08 Mb     (     877,    6)
        NL pseudopotentials             0.12 Mb     (     877,    9)
        Each V/rho on FFT grid          0.98 Mb     (   64000)
        Each G-vector array             0.15 Mb     (   19195)
        G-vector shells                 0.00 Mb     (     234)
     Largest temporary arrays     est. size (Mb)     dimensions
        Auxiliary wavefunctions         0.32 Mb     (     877,   24)
        Each subspace H/S matrix        0.01 Mb     (      24,   24)
        Each <psi_i|beta_j> matrix      0.00 Mb     (       9,    6)

     The potential is recalculated from file :
     ./tmp/_ph0/li-fcc.save/charge-density.dat

     Starting wfc are    5 atomic +    1 random wfc

     Band Structure Calculation
     Davidson diagonalization with overlap

     ethr =  3.33E-10,  avg # of iterations = 14.9

     total cpu time spent up to now is        7.8 secs

     End of band structure calculation

     Number of k-points >= 100: set verbosity='high' to print the bands.

     the Fermi energy is     1.7700 ev

                                                                                

     bravais-lattice index     =            2
     lattice parameter (alat)  =       7.5481  a.u.
     unit-cell volume          =     107.5096 (a.u.)^3
     number of atoms/cell      =            1
     number of atomic types    =            1
     kinetic-energy cut-off    =      60.0000  Ry
     charge density cut-off    =     480.0000  Ry
     convergence threshold     =      1.0E-16
     beta                      =       0.7000
     number of iterations used =            4
     Exchange-correlation      =  SLA  PW   PBX  PBC ( 1  4  3  4 0 0)


     celldm(1)=    7.54807  celldm(2)=    0.00000  celldm(3)=    0.00000
     celldm(4)=    0.00000  celldm(5)=    0.00000  celldm(6)=    0.00000

     crystal axes: (cart. coord. in units of alat)
               a(1) = ( -0.5000  0.0000  0.5000 )  
               a(2) = (  0.0000  0.5000  0.5000 )  
               a(3) = ( -0.5000  0.5000  0.0000 )  

     reciprocal axes: (cart. coord. in units 2 pi/alat)
               b(1) = ( -1.0000 -1.0000  1.0000 )  
               b(2) = (  1.0000  1.0000  1.0000 )  
               b(3) = ( -1.0000  1.0000 -1.0000 )  


     Atoms inside the unit cell: 

     Cartesian axes

     site n.  atom      mass           positions (alat units)
        1     Li   6.9410   tau(    1) = (    0.00000    0.00000    0.00000  )

     Computing dynamical matrix for 
                    q = (  -0.1250000   0.1250000  -0.1250000 )
 
      6 Sym.Ops. (no q -> -q+G )


     G cutoff =  692.7123  (  19195 G-vectors)     FFT grid: ( 40, 40, 40)
     G cutoff =  346.3561  (   6735 G-vectors)  smooth grid: ( 27, 27, 27)

     number of k points= 30856  Marzari-Vanderbilt smearing, width (Ry)=  0.0200

     PseudoPot. # 1 for Li read from file:
     ../Li.pbe-s-gbrv14.UPF
     MD5 check sum: 7ca33c4f951f001da2db5c8738379802
     Pseudo is Ultrasoft, Zval =  3.0
     Generated by new atomic code, or converted to UPF format
     Using radial grid of  751 points,  5 beta functions with: 
                l(1) =   0
                l(2) =   0
                l(3) =   0
                l(4) =   1
                l(5) =   1
     Q(r) pseudized with 10 coefficients,  rinner =    1.150   1.150   1.150


     Mode symmetry, C_3v (3m)   point group:


     Atomic displacements:
     There are   2 irreducible representations

     Representation     1      1 modes -A_1  L_1  To be done

     Representation     2      2 modes -E    L_3  To be done



     Alpha used in Ewald sum =   2.8000
     PHONON       :  1m14.35s CPU     1m55.98s WALL



     Representation #  1 mode #   1

     Self-consistent Calculation

      iter #   1 total cpu time :   117.0 secs   av.it.:   6.5
      thresh= 1.000E-02 alpha_mix =  0.700 |ddv_scf|^2 =  1.088E-01

      iter #   2 total cpu time :   119.9 secs   av.it.:   8.0
      thresh= 1.000E-02 alpha_mix =  0.700 |ddv_scf|^2 =  9.514E+01

      iter #   3 total cpu time :   121.4 secs   av.it.:   8.0
      thresh= 1.000E-02 alpha_mix =  0.700 |ddv_scf|^2 =  7.792E-04

      iter #   4 total cpu time :   129.3 secs   av.it.:   4.9
      thresh= 2.791E-03 alpha_mix =  0.700 |ddv_scf|^2 =  3.882E-08

      iter #   5 total cpu time :   133.5 secs   av.it.:   8.3
      thresh= 1.970E-05 alpha_mix =  0.700 |ddv_scf|^2 =  4.481E-10

      iter #   6 total cpu time :   144.7 secs   av.it.:   8.7
      thresh= 2.117E-06 alpha_mix =  0.700 |ddv_scf|^2 =  6.208E-11

      iter #   7 total cpu time :   147.6 secs   av.it.:   7.6
      thresh= 7.879E-07 alpha_mix =  0.700 |ddv_scf|^2 =  6.836E-09

      iter #   8 total cpu time :   150.8 secs   av.it.:   4.8
      thresh= 8.268E-06 alpha_mix =  0.700 |ddv_scf|^2 =  4.563E-13

      iter #   9 total cpu time :   153.0 secs   av.it.:   7.2
      thresh= 6.755E-08 alpha_mix =  0.700 |ddv_scf|^2 =  1.339E-13

      iter #  10 total cpu time :   155.7 secs   av.it.:   6.9
      thresh= 3.659E-08 alpha_mix =  0.700 |ddv_scf|^2 =  1.692E-14

      iter #  11 total cpu time :   160.3 secs   av.it.:   6.4
      thresh= 1.301E-08 alpha_mix =  0.700 |ddv_scf|^2 =  4.005E-17

     End of self-consistent calculation

     Convergence has been achieved 


     Representation #  2 modes #   2  3

     Self-consistent Calculation

      iter #   1 total cpu time :   164.9 secs   av.it.:   5.6
      thresh= 1.000E-02 alpha_mix =  0.700 |ddv_scf|^2 =  2.989E-07

      iter #   2 total cpu time :   169.1 secs   av.it.:   9.3
      thresh= 5.467E-05 alpha_mix =  0.700 |ddv_scf|^2 =  1.812E-08

      iter #   3 total cpu time :   172.5 secs   av.it.:   9.5
      thresh= 1.346E-05 alpha_mix =  0.700 |ddv_scf|^2 =  9.566E-11

      iter #   4 total cpu time :   175.8 secs   av.it.:   9.0
      thresh= 9.781E-07 alpha_mix =  0.700 |ddv_scf|^2 =  2.259E-13

      iter #   5 total cpu time :   191.9 secs   av.it.:   8.7
      thresh= 4.752E-08 alpha_mix =  0.700 |ddv_scf|^2 =  4.946E-15

      iter #   6 total cpu time :   199.0 secs   av.it.:   8.6
      thresh= 7.033E-09 alpha_mix =  0.700 |ddv_scf|^2 =  1.276E-18

     End of self-consistent calculation

     Convergence has been achieved 
 
     Number of q in the star =    8
     List of q in the star:
          1  -0.125000000   0.125000000  -0.125000000
          2   0.125000000  -0.125000000  -0.125000000
          3   0.125000000  -0.125000000   0.125000000
          4  -0.125000000   0.125000000   0.125000000
          5   0.125000000   0.125000000  -0.125000000
          6  -0.125000000  -0.125000000  -0.125000000
          7  -0.125000000  -0.125000000   0.125000000
          8   0.125000000   0.125000000   0.125000000

     Diagonalizing the dynamical matrix

     q = (   -0.125000000   0.125000000  -0.125000000 ) 

 **************************************************************************
     freq (    1) =       1.475287 [THz] =      49.210282 [cm-1]
     freq (    2) =       1.475287 [THz] =      49.210282 [cm-1]
     freq (    3) =       4.450451 [THz] =     148.451065 [cm-1]
 **************************************************************************

     Mode symmetry, C_3v (3m)   point group:

     freq (  1 -  2) =         49.2  [cm-1]   --> E    L_3           
     freq (  3 -  3) =        148.5  [cm-1]   --> A_1  L_1           

     Calculation of q =   -0.2500000   0.2500000  -0.2500000
 
     G-vector sticks info
     --------------------
     sticks:   dense  smooth     PW     G-vecs:    dense   smooth      PW
     Sum         955     475    163                19195     6735    1459
 


     bravais-lattice index     =            2
     lattice parameter (alat)  =       7.5481  a.u.
     unit-cell volume          =     107.5096 (a.u.)^3
     number of atoms/cell      =            1
     number of atomic types    =            1
     number of electrons       =         3.00
     number of Kohn-Sham states=            6
     kinetic-energy cutoff     =      60.0000  Ry
     charge density cutoff     =     480.0000  Ry
     Exchange-correlation      =  SLA  PW   PBX  PBC ( 1  4  3  4 0 0)

     celldm(1)=   7.548066  celldm(2)=   0.000000  celldm(3)=   0.000000
     celldm(4)=   0.000000  celldm(5)=   0.000000  celldm(6)=   0.000000

     crystal axes: (cart. coord. in units of alat)
               a(1) = (  -0.500000   0.000000   0.500000 )  
               a(2) = (   0.000000   0.500000   0.500000 )  
               a(3) = (  -0.500000   0.500000   0.000000 )  

     reciprocal axes: (cart. coord. in units 2 pi/alat)
               b(1) = ( -1.000000 -1.000000  1.000000 )  
               b(2) = (  1.000000  1.000000  1.000000 )  
               b(3) = ( -1.000000  1.000000 -1.000000 )  


     PseudoPot. # 1 for Li read from file:
     ../Li.pbe-s-gbrv14.UPF
     MD5 check sum: 7ca33c4f951f001da2db5c8738379802
     Pseudo is Ultrasoft, Zval =  3.0
     Generated by new atomic code, or converted to UPF format
     Using radial grid of  751 points,  5 beta functions with: 
                l(1) =   0
                l(2) =   0
                l(3) =   0
                l(4) =   1
                l(5) =   1
     Q(r) pseudized with 10 coefficients,  rinner =    1.150   1.150   1.150


     atomic species   valence    mass     pseudopotential
        Li             3.00     6.94100     Li( 1.00)

     48 Sym. Ops., with inversion, found



   Cartesian axes

     site n.     atom                  positions (alat units)
         1           Li  tau(   1) = (   0.0000000   0.0000000   0.0000000  )

     number of k points= 30856  Marzari-Vanderbilt smearing, width (Ry)=  0.0200

     Number of k-points >= 100: set verbosity='high' to print them.

     Dense  grid:    19195 G-vectors     FFT dimensions: (  40,  40,  40)

     Smooth grid:     6735 G-vectors     FFT dimensions: (  27,  27,  27)

     Largest allocated arrays     est. size (Mb)     dimensions
        Kohn-Sham Wavefunctions         0.08 Mb     (     876,    6)
        NL pseudopotentials             0.12 Mb     (     876,    9)
        Each V/rho on FFT grid          0.98 Mb     (   64000)
        Each G-vector array             0.15 Mb     (   19195)
        G-vector shells                 0.00 Mb     (     234)
     Largest temporary arrays     est. size (Mb)     dimensions
        Auxiliary wavefunctions         0.32 Mb     (     876,   24)
        Each subspace H/S matrix        0.01 Mb     (      24,   24)
        Each <psi_i|beta_j> matrix      0.00 Mb     (       9,    6)

     The potential is recalculated from file :
     ./tmp/_ph0/li-fcc.save/charge-density.dat

     Starting wfc are    5 atomic +    1 random wfc

     Band Structure Calculation
     Davidson diagonalization with overlap

     ethr =  3.33E-10,  avg # of iterations = 14.9

     total cpu time spent up to now is       17.7 secs

     End of band structure calculation

     Number of k-points >= 100: set verbosity='high' to print the bands.

     the Fermi energy is     1.7700 ev

                                                                                

     bravais-lattice index     =            2
     lattice parameter (alat)  =       7.5481  a.u.
     unit-cell volume          =     107.5096 (a.u.)^3
     number of atoms/cell      =            1
     number of atomic types    =            1
     kinetic-energy cut-off    =      60.0000  Ry
     charge density cut-off    =     480.0000  Ry
     convergence threshold     =      1.0E-16
     beta                      =       0.7000
     number of iterations used =            4
     Exchange-correlation      =  SLA  PW   PBX  PBC ( 1  4  3  4 0 0)


     celldm(1)=    7.54807  celldm(2)=    0.00000  celldm(3)=    0.00000
     celldm(4)=    0.00000  celldm(5)=    0.00000  celldm(6)=    0.00000

     crystal axes: (cart. coord. in units of alat)
               a(1) = ( -0.5000  0.0000  0.5000 )  
               a(2) = (  0.0000  0.5000  0.5000 )  
               a(3) = ( -0.5000  0.5000  0.0000 )  

     reciprocal axes: (cart. coord. in units 2 pi/alat)
               b(1) = ( -1.0000 -1.0000  1.0000 )  
               b(2) = (  1.0000  1.0000  1.0000 )  
               b(3) = ( -1.0000  1.0000 -1.0000 )  


     Atoms inside the unit cell: 

     Cartesian axes

     site n.  atom      mass           positions (alat units)
        1     Li   6.9410   tau(    1) = (    0.00000    0.00000    0.00000  )

     Computing dynamical matrix for 
                    q = (  -0.2500000   0.2500000  -0.2500000 )
 
      6 Sym.Ops. (no q -> -q+G )


     G cutoff =  692.7123  (  19195 G-vectors)     FFT grid: ( 40, 40, 40)
     G cutoff =  346.3561  (   6735 G-vectors)  smooth grid: ( 27, 27, 27)

     number of k points= 30856  Marzari-Vanderbilt smearing, width (Ry)=  0.0200

     PseudoPot. # 1 for Li read from file:
     ../Li.pbe-s-gbrv14.UPF
     MD5 check sum: 7ca33c4f951f001da2db5c8738379802
     Pseudo is Ultrasoft, Zval =  3.0
     Generated by new atomic code, or converted to UPF format
     Using radial grid of  751 points,  5 beta functions with: 
                l(1) =   0
                l(2) =   0
                l(3) =   0
                l(4) =   1
                l(5) =   1
     Q(r) pseudized with 10 coefficients,  rinner =    1.150   1.150   1.150


     Mode symmetry, C_3v (3m)   point group:


     Atomic displacements:
     There are   2 irreducible representations

     Representation     1      1 modes -A_1  L_1  To be done

     Representation     2      2 modes -E    L_3  To be done



     Alpha used in Ewald sum =   2.8000
     PHONON       :  2m59.78s CPU     3m55.50s WALL



     Representation #  1 mode #   1

     Self-consistent Calculation

      iter #   1 total cpu time :   236.5 secs   av.it.:   6.5
      thresh= 1.000E-02 alpha_mix =  0.700 |ddv_scf|^2 =  1.284E-03

      iter #   2 total cpu time :   240.0 secs   av.it.:   7.8
      thresh= 3.583E-03 alpha_mix =  0.700 |ddv_scf|^2 =  4.673E-02

      iter #   3 total cpu time :   245.4 secs   av.it.:   6.5
      thresh= 1.000E-02 alpha_mix =  0.700 |ddv_scf|^2 =  8.845E-08

      iter #   4 total cpu time :   250.3 secs   av.it.:   8.9
      thresh= 2.974E-05 alpha_mix =  0.700 |ddv_scf|^2 =  4.431E-09

      iter #   5 total cpu time :   257.3 secs   av.it.:   8.9
      thresh= 6.656E-06 alpha_mix =  0.700 |ddv_scf|^2 =  1.148E-10

      iter #   6 total cpu time :   269.7 secs   av.it.:   8.1
      thresh= 1.071E-06 alpha_mix =  0.700 |ddv_scf|^2 =  2.175E-13

      iter #   7 total cpu time :   280.2 secs   av.it.:   9.6
      thresh= 4.664E-08 alpha_mix =  0.700 |ddv_scf|^2 =  1.906E-14

      iter #   8 total cpu time :   285.5 secs   av.it.:   8.5
      thresh= 1.380E-08 alpha_mix =  0.700 |ddv_scf|^2 =  7.212E-14

      iter #   9 total cpu time :   295.5 secs   av.it.:   6.3
      thresh= 2.686E-08 alpha_mix =  0.700 |ddv_scf|^2 =  1.384E-14

      iter #  10 total cpu time :   299.9 secs   av.it.:   6.6
      thresh= 1.177E-08 alpha_mix =  0.700 |ddv_scf|^2 =  5.504E-17

     End of self-consistent calculation

     Convergence has been achieved 


     Representation #  2 modes #   2  3

     Self-consistent Calculation

      iter #   1 total cpu time :   306.6 secs   av.it.:   5.6
      thresh= 1.000E-02 alpha_mix =  0.700 |ddv_scf|^2 =  3.056E-07

      iter #   2 total cpu time :   311.3 secs   av.it.:   9.5
      thresh= 5.528E-05 alpha_mix =  0.700 |ddv_scf|^2 =  1.842E-08

      iter #   3 total cpu time :   316.4 secs   av.it.:   9.6
      thresh= 1.357E-05 alpha_mix =  0.700 |ddv_scf|^2 =  1.187E-10

      iter #   4 total cpu time :   321.1 secs   av.it.:   9.1
      thresh= 1.089E-06 alpha_mix =  0.700 |ddv_scf|^2 =  2.234E-13

      iter #   5 total cpu time :   326.6 secs   av.it.:   9.0
      thresh= 4.727E-08 alpha_mix =  0.700 |ddv_scf|^2 =  4.662E-15

      iter #   6 total cpu time :   339.1 secs   av.it.:   8.2
      thresh= 6.828E-09 alpha_mix =  0.700 |ddv_scf|^2 =  1.465E-18

     End of self-consistent calculation

     Convergence has been achieved 
 
     Number of q in the star =    8
     List of q in the star:
          1  -0.250000000   0.250000000  -0.250000000
          2   0.250000000  -0.250000000  -0.250000000
          3   0.250000000  -0.250000000   0.250000000
          4  -0.250000000   0.250000000   0.250000000
          5   0.250000000   0.250000000  -0.250000000
          6  -0.250000000  -0.250000000  -0.250000000
          7  -0.250000000  -0.250000000   0.250000000
          8   0.250000000   0.250000000   0.250000000

     Diagonalizing the dynamical matrix

     q = (   -0.250000000   0.250000000  -0.250000000 ) 

 **************************************************************************
     freq (    1) =       2.760726 [THz] =      92.087910 [cm-1]
     freq (    2) =       2.760726 [THz] =      92.087910 [cm-1]
     freq (    3) =       8.862330 [THz] =     295.615513 [cm-1]
 **************************************************************************

     Mode symmetry, C_3v (3m)   point group:

     freq (  1 -  2) =         92.1  [cm-1]   --> E    L_3           
     freq (  3 -  3) =        295.6  [cm-1]   --> A_1  L_1           

     Calculation of q =   -0.3750000   0.3750000  -0.3750000
 
     G-vector sticks info
     --------------------
     sticks:   dense  smooth     PW     G-vecs:    dense   smooth      PW
     Sum         955     475    187                19195     6735    1639
 


     bravais-lattice index     =            2
     lattice parameter (alat)  =       7.5481  a.u.
     unit-cell volume          =     107.5096 (a.u.)^3
     number of atoms/cell      =            1
     number of atomic types    =            1
     number of electrons       =         3.00
     number of Kohn-Sham states=            6
     kinetic-energy cutoff     =      60.0000  Ry
     charge density cutoff     =     480.0000  Ry
     Exchange-correlation      =  SLA  PW   PBX  PBC ( 1  4  3  4 0 0)

     celldm(1)=   7.548066  celldm(2)=   0.000000  celldm(3)=   0.000000
     celldm(4)=   0.000000  celldm(5)=   0.000000  celldm(6)=   0.000000

     crystal axes: (cart. coord. in units of alat)
               a(1) = (  -0.500000   0.000000   0.500000 )  
               a(2) = (   0.000000   0.500000   0.500000 )  
               a(3) = (  -0.500000   0.500000   0.000000 )  

     reciprocal axes: (cart. coord. in units 2 pi/alat)
               b(1) = ( -1.000000 -1.000000  1.000000 )  
               b(2) = (  1.000000  1.000000  1.000000 )  
               b(3) = ( -1.000000  1.000000 -1.000000 )  


     PseudoPot. # 1 for Li read from file:
     ../Li.pbe-s-gbrv14.UPF
     MD5 check sum: 7ca33c4f951f001da2db5c8738379802
     Pseudo is Ultrasoft, Zval =  3.0
     Generated by new atomic code, or converted to UPF format
     Using radial grid of  751 points,  5 beta functions with: 
                l(1) =   0
                l(2) =   0
                l(3) =   0
                l(4) =   1
                l(5) =   1
     Q(r) pseudized with 10 coefficients,  rinner =    1.150   1.150   1.150


     atomic species   valence    mass     pseudopotential
        Li             3.00     6.94100     Li( 1.00)

     48 Sym. Ops., with inversion, found



   Cartesian axes

     site n.     atom                  positions (alat units)
         1           Li  tau(   1) = (   0.0000000   0.0000000   0.0000000  )

     number of k points= 30856  Marzari-Vanderbilt smearing, width (Ry)=  0.0200

     Number of k-points >= 100: set verbosity='high' to print them.

     Dense  grid:    19195 G-vectors     FFT dimensions: (  40,  40,  40)

     Smooth grid:     6735 G-vectors     FFT dimensions: (  27,  27,  27)

     Largest allocated arrays     est. size (Mb)     dimensions
        Kohn-Sham Wavefunctions         0.08 Mb     (     877,    6)
        NL pseudopotentials             0.12 Mb     (     877,    9)
        Each V/rho on FFT grid          0.98 Mb     (   64000)
        Each G-vector array             0.15 Mb     (   19195)
        G-vector shells                 0.00 Mb     (     234)
     Largest temporary arrays     est. size (Mb)     dimensions
        Auxiliary wavefunctions         0.32 Mb     (     877,   24)
        Each subspace H/S matrix        0.01 Mb     (      24,   24)
        Each <psi_i|beta_j> matrix      0.00 Mb     (       9,    6)

     The potential is recalculated from file :
     ./tmp/_ph0/li-fcc.save/charge-density.dat

     Starting wfc are    5 atomic +    1 random wfc

     Band Structure Calculation
     Davidson diagonalization with overlap

     ethr =  3.33E-10,  avg # of iterations = 14.9

     total cpu time spent up to now is       27.1 secs

     End of band structure calculation

     Number of k-points >= 100: set verbosity='high' to print the bands.

     the Fermi energy is     1.7700 ev

                                                                                

     bravais-lattice index     =            2
     lattice parameter (alat)  =       7.5481  a.u.
     unit-cell volume          =     107.5096 (a.u.)^3
     number of atoms/cell      =            1
     number of atomic types    =            1
     kinetic-energy cut-off    =      60.0000  Ry
     charge density cut-off    =     480.0000  Ry
     convergence threshold     =      1.0E-16
     beta                      =       0.7000
     number of iterations used =            4
     Exchange-correlation      =  SLA  PW   PBX  PBC ( 1  4  3  4 0 0)


     celldm(1)=    7.54807  celldm(2)=    0.00000  celldm(3)=    0.00000
     celldm(4)=    0.00000  celldm(5)=    0.00000  celldm(6)=    0.00000

     crystal axes: (cart. coord. in units of alat)
               a(1) = ( -0.5000  0.0000  0.5000 )  
               a(2) = (  0.0000  0.5000  0.5000 )  
               a(3) = ( -0.5000  0.5000  0.0000 )  

     reciprocal axes: (cart. coord. in units 2 pi/alat)
               b(1) = ( -1.0000 -1.0000  1.0000 )  
               b(2) = (  1.0000  1.0000  1.0000 )  
               b(3) = ( -1.0000  1.0000 -1.0000 )  


     Atoms inside the unit cell: 

     Cartesian axes

     site n.  atom      mass           positions (alat units)
        1     Li   6.9410   tau(    1) = (    0.00000    0.00000    0.00000  )

     Computing dynamical matrix for 
                    q = (  -0.3750000   0.3750000  -0.3750000 )
 
      6 Sym.Ops. (no q -> -q+G )


     G cutoff =  692.7123  (  19195 G-vectors)     FFT grid: ( 40, 40, 40)
     G cutoff =  346.3561  (   6735 G-vectors)  smooth grid: ( 27, 27, 27)

     number of k points= 30856  Marzari-Vanderbilt smearing, width (Ry)=  0.0200

     PseudoPot. # 1 for Li read from file:
     ../Li.pbe-s-gbrv14.UPF
     MD5 check sum: 7ca33c4f951f001da2db5c8738379802
     Pseudo is Ultrasoft, Zval =  3.0
     Generated by new atomic code, or converted to UPF format
     Using radial grid of  751 points,  5 beta functions with: 
                l(1) =   0
                l(2) =   0
                l(3) =   0
                l(4) =   1
                l(5) =   1
     Q(r) pseudized with 10 coefficients,  rinner =    1.150   1.150   1.150


     Mode symmetry, C_3v (3m)   point group:


     Atomic displacements:
     There are   2 irreducible representations

     Representation     1      1 modes -A_1  L_1  To be done

     Representation     2      2 modes -E    L_3  To be done



     Alpha used in Ewald sum =   2.8000
     PHONON       :  5m 1.33s CPU     6m11.84s WALL



     Representation #  1 mode #   1

     Self-consistent Calculation

      iter #   1 total cpu time :   372.9 secs   av.it.:   6.5
      thresh= 1.000E-02 alpha_mix =  0.700 |ddv_scf|^2 =  8.263E-05

      iter #   2 total cpu time :   378.9 secs   av.it.:   8.5
      thresh= 9.090E-04 alpha_mix =  0.700 |ddv_scf|^2 =  3.001E-04

      iter #   3 total cpu time :   390.6 secs   av.it.:   7.0
      thresh= 1.732E-03 alpha_mix =  0.700 |ddv_scf|^2 =  6.170E-08

      iter #   4 total cpu time :   393.8 secs   av.it.:   8.7
      thresh= 2.484E-05 alpha_mix =  0.700 |ddv_scf|^2 =  3.405E-09

      iter #   5 total cpu time :   400.7 secs   av.it.:   8.8
      thresh= 5.835E-06 alpha_mix =  0.700 |ddv_scf|^2 =  3.717E-12

      iter #   6 total cpu time :   416.0 secs   av.it.:   9.1
      thresh= 1.928E-07 alpha_mix =  0.700 |ddv_scf|^2 =  2.042E-13

      iter #   7 total cpu time :   418.9 secs   av.it.:   9.0
      thresh= 4.519E-08 alpha_mix =  0.700 |ddv_scf|^2 =  9.523E-16

      iter #   8 total cpu time :   422.4 secs   av.it.:   9.5
      thresh= 3.086E-09 alpha_mix =  0.700 |ddv_scf|^2 =  5.548E-16

      iter #   9 total cpu time :   424.3 secs   av.it.:   8.5
      thresh= 2.355E-09 alpha_mix =  0.700 |ddv_scf|^2 =  6.126E-18

     End of self-consistent calculation

     Convergence has been achieved 


     Representation #  2 modes #   2  3

     Self-consistent Calculation

      iter #   1 total cpu time :   444.0 secs   av.it.:   5.6
      thresh= 1.000E-02 alpha_mix =  0.700 |ddv_scf|^2 =  3.120E-07

      iter #   2 total cpu time :   454.5 secs   av.it.:   9.5
      thresh= 5.585E-05 alpha_mix =  0.700 |ddv_scf|^2 =  1.870E-08

      iter #   3 total cpu time :   458.2 secs   av.it.:   9.7
      thresh= 1.368E-05 alpha_mix =  0.700 |ddv_scf|^2 =  1.338E-10

      iter #   4 total cpu time :   462.9 secs   av.it.:   9.1
      thresh= 1.157E-06 alpha_mix =  0.700 |ddv_scf|^2 =  2.296E-13

      iter #   5 total cpu time :   466.7 secs   av.it.:   9.1
      thresh= 4.791E-08 alpha_mix =  0.700 |ddv_scf|^2 =  4.597E-15

      iter #   6 total cpu time :   470.1 secs   av.it.:   8.2
      thresh= 6.780E-09 alpha_mix =  0.700 |ddv_scf|^2 =  1.192E-18

     End of self-consistent calculation

     Convergence has been achieved 
 
     Number of q in the star =    8
     List of q in the star:
          1  -0.375000000   0.375000000  -0.375000000
          2   0.375000000  -0.375000000  -0.375000000
          3   0.375000000  -0.375000000   0.375000000
          4  -0.375000000   0.375000000   0.375000000
          5   0.375000000   0.375000000  -0.375000000
          6  -0.375000000  -0.375000000  -0.375000000
          7  -0.375000000  -0.375000000   0.375000000
          8   0.375000000   0.375000000   0.375000000

     Diagonalizing the dynamical matrix

     q = (   -0.375000000   0.375000000  -0.375000000 ) 

 **************************************************************************
     freq (    1) =       3.770454 [THz] =     125.768797 [cm-1]
     freq (    2) =       3.770454 [THz] =     125.768797 [cm-1]
     freq (    3) =      11.742022 [THz] =     391.671685 [cm-1]
 **************************************************************************

     Mode symmetry, C_3v (3m)   point group:

     freq (  1 -  2) =        125.8  [cm-1]   --> E    L_3           
     freq (  3 -  3) =        391.7  [cm-1]   --> A_1  L_1           

     Calculation of q =    0.5000000  -0.5000000   0.5000000
 
     G-vector sticks info
     --------------------
     sticks:   dense  smooth     PW     G-vecs:    dense   smooth      PW
     Sum         955     475    187                19195     6735    1687
 


     bravais-lattice index     =            2
     lattice parameter (alat)  =       7.5481  a.u.
     unit-cell volume          =     107.5096 (a.u.)^3
     number of atoms/cell      =            1
     number of atomic types    =            1
     number of electrons       =         3.00
     number of Kohn-Sham states=            6
     kinetic-energy cutoff     =      60.0000  Ry
     charge density cutoff     =     480.0000  Ry
     Exchange-correlation      =  SLA  PW   PBX  PBC ( 1  4  3  4 0 0)

     celldm(1)=   7.548066  celldm(2)=   0.000000  celldm(3)=   0.000000
     celldm(4)=   0.000000  celldm(5)=   0.000000  celldm(6)=   0.000000

     crystal axes: (cart. coord. in units of alat)
               a(1) = (  -0.500000   0.000000   0.500000 )  
               a(2) = (   0.000000   0.500000   0.500000 )  
               a(3) = (  -0.500000   0.500000   0.000000 )  

     reciprocal axes: (cart. coord. in units 2 pi/alat)
               b(1) = ( -1.000000 -1.000000  1.000000 )  
               b(2) = (  1.000000  1.000000  1.000000 )  
               b(3) = ( -1.000000  1.000000 -1.000000 )  


     PseudoPot. # 1 for Li read from file:
     ../Li.pbe-s-gbrv14.UPF
     MD5 check sum: 7ca33c4f951f001da2db5c8738379802
     Pseudo is Ultrasoft, Zval =  3.0
     Generated by new atomic code, or converted to UPF format
     Using radial grid of  751 points,  5 beta functions with: 
                l(1) =   0
                l(2) =   0
                l(3) =   0
                l(4) =   1
                l(5) =   1
     Q(r) pseudized with 10 coefficients,  rinner =    1.150   1.150   1.150


     atomic species   valence    mass     pseudopotential
        Li             3.00     6.94100     Li( 1.00)

     48 Sym. Ops., with inversion, found



   Cartesian axes

     site n.     atom                  positions (alat units)
         1           Li  tau(   1) = (   0.0000000   0.0000000   0.0000000  )

     number of k points= 15428  Marzari-Vanderbilt smearing, width (Ry)=  0.0200

     Number of k-points >= 100: set verbosity='high' to print them.

     Dense  grid:    19195 G-vectors     FFT dimensions: (  40,  40,  40)

     Smooth grid:     6735 G-vectors     FFT dimensions: (  27,  27,  27)

     Largest allocated arrays     est. size (Mb)     dimensions
        Kohn-Sham Wavefunctions         0.08 Mb     (     876,    6)
        NL pseudopotentials             0.12 Mb     (     876,    9)
        Each V/rho on FFT grid          0.98 Mb     (   64000)
        Each G-vector array             0.15 Mb     (   19195)
        G-vector shells                 0.00 Mb     (     234)
     Largest temporary arrays     est. size (Mb)     dimensions
        Auxiliary wavefunctions         0.32 Mb     (     876,   24)
        Each subspace H/S matrix        0.01 Mb     (      24,   24)
        Each <psi_i|beta_j> matrix      0.00 Mb     (       9,    6)

     The potential is recalculated from file :
     ./tmp/_ph0/li-fcc.save/charge-density.dat

     Starting wfc are    5 atomic +    1 random wfc

     Band Structure Calculation
     Davidson diagonalization with overlap

     ethr =  3.33E-10,  avg # of iterations = 14.9

     total cpu time spent up to now is       34.8 secs

     End of band structure calculation

     Number of k-points >= 100: set verbosity='high' to print the bands.

     the Fermi energy is     1.7700 ev

                                                                                

     bravais-lattice index     =            2
     lattice parameter (alat)  =       7.5481  a.u.
     unit-cell volume          =     107.5096 (a.u.)^3
     number of atoms/cell      =            1
     number of atomic types    =            1
     kinetic-energy cut-off    =      60.0000  Ry
     charge density cut-off    =     480.0000  Ry
     convergence threshold     =      1.0E-16
     beta                      =       0.7000
     number of iterations used =            4
     Exchange-correlation      =  SLA  PW   PBX  PBC ( 1  4  3  4 0 0)


     celldm(1)=    7.54807  celldm(2)=    0.00000  celldm(3)=    0.00000
     celldm(4)=    0.00000  celldm(5)=    0.00000  celldm(6)=    0.00000

     crystal axes: (cart. coord. in units of alat)
               a(1) = ( -0.5000  0.0000  0.5000 )  
               a(2) = (  0.0000  0.5000  0.5000 )  
               a(3) = ( -0.5000  0.5000  0.0000 )  

     reciprocal axes: (cart. coord. in units 2 pi/alat)
               b(1) = ( -1.0000 -1.0000  1.0000 )  
               b(2) = (  1.0000  1.0000  1.0000 )  
               b(3) = ( -1.0000  1.0000 -1.0000 )  


     Atoms inside the unit cell: 

     Cartesian axes

     site n.  atom      mass           positions (alat units)
        1     Li   6.9410   tau(    1) = (    0.00000    0.00000    0.00000  )

     Computing dynamical matrix for 
                    q = (   0.5000000  -0.5000000   0.5000000 )
 
     13 Sym.Ops. (with q -> -q+G )


     G cutoff =  692.7123  (  19195 G-vectors)     FFT grid: ( 40, 40, 40)
     G cutoff =  346.3561  (   6735 G-vectors)  smooth grid: ( 27, 27, 27)

     number of k points= 15428  Marzari-Vanderbilt smearing, width (Ry)=  0.0200

     PseudoPot. # 1 for Li read from file:
     ../Li.pbe-s-gbrv14.UPF
     MD5 check sum: 7ca33c4f951f001da2db5c8738379802
     Pseudo is Ultrasoft, Zval =  3.0
     Generated by new atomic code, or converted to UPF format
     Using radial grid of  751 points,  5 beta functions with: 
                l(1) =   0
                l(2) =   0
                l(3) =   0
                l(4) =   1
                l(5) =   1
     Q(r) pseudized with 10 coefficients,  rinner =    1.150   1.150   1.150


     Mode symmetry, D_3d (-3m)  point group:


     Atomic displacements:
     There are   2 irreducible representations

     Representation     1      1 modes -A_2u L_2'  To be done

     Representation     2      2 modes -E_u  L_3'  To be done



     Alpha used in Ewald sum =   2.8000
     PHONON       :  6m49.95s CPU     8m 9.49s WALL



     Representation #  1 mode #   1

     Self-consistent Calculation

      iter #   1 total cpu time :   490.1 secs   av.it.:   6.5
      thresh= 1.000E-02 alpha_mix =  0.700 |ddv_scf|^2 =  2.112E-05

      iter #   2 total cpu time :   500.6 secs   av.it.:   8.7
      thresh= 4.596E-04 alpha_mix =  0.700 |ddv_scf|^2 =  8.505E-06

      iter #   3 total cpu time :   508.6 secs   av.it.:   8.0
      thresh= 2.916E-04 alpha_mix =  0.700 |ddv_scf|^2 =  2.132E-08

      iter #   4 total cpu time :   510.2 secs   av.it.:   8.8
      thresh= 1.460E-05 alpha_mix =  0.700 |ddv_scf|^2 =  1.333E-11

      iter #   5 total cpu time :   510.8 secs   av.it.:   8.1
      thresh= 3.651E-07 alpha_mix =  0.700 |ddv_scf|^2 =  8.133E-13

      iter #   6 total cpu time :   512.8 secs   av.it.:   8.5
      thresh= 9.018E-08 alpha_mix =  0.700 |ddv_scf|^2 =  2.370E-15

      iter #   7 total cpu time :   517.8 secs   av.it.:   8.8
      thresh= 4.868E-09 alpha_mix =  0.700 |ddv_scf|^2 =  1.583E-18

     End of self-consistent calculation

     Convergence has been achieved 


     Representation #  2 modes #   2  3

     Self-consistent Calculation

      iter #   1 total cpu time :   520.6 secs   av.it.:   5.6
      thresh= 1.000E-02 alpha_mix =  0.700 |ddv_scf|^2 =  3.145E-07

      iter #   2 total cpu time :   525.6 secs   av.it.:   9.3
      thresh= 5.608E-05 alpha_mix =  0.700 |ddv_scf|^2 =  1.882E-08

      iter #   3 total cpu time :   528.3 secs   av.it.:   9.6
      thresh= 1.372E-05 alpha_mix =  0.700 |ddv_scf|^2 =  1.374E-10

      iter #   4 total cpu time :   536.2 secs   av.it.:   8.9
      thresh= 1.172E-06 alpha_mix =  0.700 |ddv_scf|^2 =  2.293E-13

      iter #   5 total cpu time :   539.5 secs   av.it.:   8.9
      thresh= 4.788E-08 alpha_mix =  0.700 |ddv_scf|^2 =  4.482E-15

      iter #   6 total cpu time :   551.8 secs   av.it.:   7.9
      thresh= 6.695E-09 alpha_mix =  0.700 |ddv_scf|^2 =  9.309E-19

     End of self-consistent calculation

     Convergence has been achieved 
 
     Number of q in the star =    4
     List of q in the star:
          1   0.500000000  -0.500000000   0.500000000
          2   0.500000000   0.500000000   0.500000000
          3  -0.500000000   0.500000000   0.500000000
          4   0.500000000   0.500000000  -0.500000000

     Diagonalizing the dynamical matrix

     q = (    0.500000000  -0.500000000   0.500000000 ) 

 **************************************************************************
     freq (    1) =       4.175010 [THz] =     139.263329 [cm-1]
     freq (    2) =       4.175010 [THz] =     139.263329 [cm-1]
     freq (    3) =      12.713525 [THz] =     424.077560 [cm-1]
 **************************************************************************

     Mode symmetry, D_3d (-3m)  point group:

     freq (  1 -  2) =        139.3  [cm-1]   --> E_u  L_3'          
     freq (  3 -  3) =        424.1  [cm-1]   --> A_2u L_2'          

     Calculation of q =    0.0000000   0.2500000   0.0000000
 
     G-vector sticks info
     --------------------
     sticks:   dense  smooth     PW     G-vecs:    dense   smooth      PW
     Sum         955     475    163                19195     6735    1459
 


     bravais-lattice index     =            2
     lattice parameter (alat)  =       7.5481  a.u.
     unit-cell volume          =     107.5096 (a.u.)^3
     number of atoms/cell      =            1
     number of atomic types    =            1
     number of electrons       =         3.00
     number of Kohn-Sham states=            6
     kinetic-energy cutoff     =      60.0000  Ry
     charge density cutoff     =     480.0000  Ry
     Exchange-correlation      =  SLA  PW   PBX  PBC ( 1  4  3  4 0 0)

     celldm(1)=   7.548066  celldm(2)=   0.000000  celldm(3)=   0.000000
     celldm(4)=   0.000000  celldm(5)=   0.000000  celldm(6)=   0.000000

     crystal axes: (cart. coord. in units of alat)
               a(1) = (  -0.500000   0.000000   0.500000 )  
               a(2) = (   0.000000   0.500000   0.500000 )  
               a(3) = (  -0.500000   0.500000   0.000000 )  

     reciprocal axes: (cart. coord. in units 2 pi/alat)
               b(1) = ( -1.000000 -1.000000  1.000000 )  
               b(2) = (  1.000000  1.000000  1.000000 )  
               b(3) = ( -1.000000  1.000000 -1.000000 )  


     PseudoPot. # 1 for Li read from file:
     ../Li.pbe-s-gbrv14.UPF
     MD5 check sum: 7ca33c4f951f001da2db5c8738379802
     Pseudo is Ultrasoft, Zval =  3.0
     Generated by new atomic code, or converted to UPF format
     Using radial grid of  751 points,  5 beta functions with: 
                l(1) =   0
                l(2) =   0
                l(3) =   0
                l(4) =   1
                l(5) =   1
     Q(r) pseudized with 10 coefficients,  rinner =    1.150   1.150   1.150


     atomic species   valence    mass     pseudopotential
        Li             3.00     6.94100     Li( 1.00)

     48 Sym. Ops., with inversion, found



   Cartesian axes

     site n.     atom                  positions (alat units)
         1           Li  tau(   1) = (   0.0000000   0.0000000   0.0000000  )

     number of k points= 22736  Marzari-Vanderbilt smearing, width (Ry)=  0.0200

     Number of k-points >= 100: set verbosity='high' to print them.

     Dense  grid:    19195 G-vectors     FFT dimensions: (  40,  40,  40)

     Smooth grid:     6735 G-vectors     FFT dimensions: (  27,  27,  27)

     Largest allocated arrays     est. size (Mb)     dimensions
        Kohn-Sham Wavefunctions         0.08 Mb     (     876,    6)
        NL pseudopotentials             0.12 Mb     (     876,    9)
        Each V/rho on FFT grid          0.98 Mb     (   64000)
        Each G-vector array             0.15 Mb     (   19195)
        G-vector shells                 0.00 Mb     (     234)
     Largest temporary arrays     est. size (Mb)     dimensions
        Auxiliary wavefunctions         0.32 Mb     (     876,   24)
        Each subspace H/S matrix        0.01 Mb     (      24,   24)
        Each <psi_i|beta_j> matrix      0.00 Mb     (       9,    6)

     The potential is recalculated from file :
     ./tmp/_ph0/li-fcc.save/charge-density.dat

     Starting wfc are    5 atomic +    1 random wfc

     Band Structure Calculation
     Davidson diagonalization with overlap

     ethr =  3.33E-10,  avg # of iterations = 14.9

     total cpu time spent up to now is       45.6 secs

     End of band structure calculation

     Number of k-points >= 100: set verbosity='high' to print the bands.

     the Fermi energy is     1.7700 ev

                                                                                

     bravais-lattice index     =            2
     lattice parameter (alat)  =       7.5481  a.u.
     unit-cell volume          =     107.5096 (a.u.)^3
     number of atoms/cell      =            1
     number of atomic types    =            1
     kinetic-energy cut-off    =      60.0000  Ry
     charge density cut-off    =     480.0000  Ry
     convergence threshold     =      1.0E-16
     beta                      =       0.7000
     number of iterations used =            4
     Exchange-correlation      =  SLA  PW   PBX  PBC ( 1  4  3  4 0 0)


     celldm(1)=    7.54807  celldm(2)=    0.00000  celldm(3)=    0.00000
     celldm(4)=    0.00000  celldm(5)=    0.00000  celldm(6)=    0.00000

     crystal axes: (cart. coord. in units of alat)
               a(1) = ( -0.5000  0.0000  0.5000 )  
               a(2) = (  0.0000  0.5000  0.5000 )  
               a(3) = ( -0.5000  0.5000  0.0000 )  

     reciprocal axes: (cart. coord. in units 2 pi/alat)
               b(1) = ( -1.0000 -1.0000  1.0000 )  
               b(2) = (  1.0000  1.0000  1.0000 )  
               b(3) = ( -1.0000  1.0000 -1.0000 )  


     Atoms inside the unit cell: 

     Cartesian axes

     site n.  atom      mass           positions (alat units)
        1     Li   6.9410   tau(    1) = (    0.00000    0.00000    0.00000  )

     Computing dynamical matrix for 
                    q = (   0.0000000   0.2500000   0.0000000 )
 
      8 Sym.Ops. (no q -> -q+G )


     G cutoff =  692.7123  (  19195 G-vectors)     FFT grid: ( 40, 40, 40)
     G cutoff =  346.3561  (   6735 G-vectors)  smooth grid: ( 27, 27, 27)

     number of k points= 22736  Marzari-Vanderbilt smearing, width (Ry)=  0.0200

     PseudoPot. # 1 for Li read from file:
     ../Li.pbe-s-gbrv14.UPF
     MD5 check sum: 7ca33c4f951f001da2db5c8738379802
     Pseudo is Ultrasoft, Zval =  3.0
     Generated by new atomic code, or converted to UPF format
     Using radial grid of  751 points,  5 beta functions with: 
                l(1) =   0
                l(2) =   0
                l(3) =   0
                l(4) =   1
                l(5) =   1
     Q(r) pseudized with 10 coefficients,  rinner =    1.150   1.150   1.150


     Mode symmetry, C_4v (4mm)  point group:


     Atomic displacements:
     There are   2 irreducible representations

     Representation     1      1 modes -A_1  G_1 D_1  To be done

     Representation     2      2 modes -E    G_5 D_5  To be done



     Alpha used in Ewald sum =   2.8000
     PHONON       :  7m52.88s CPU     9m30.15s WALL



     Representation #  1 mode #   1

     Self-consistent Calculation

      iter #   1 total cpu time :   570.9 secs   av.it.:   6.5
      thresh= 1.000E-02 alpha_mix =  0.700 |ddv_scf|^2 =  4.592E-02

      iter #   2 total cpu time :   574.1 secs   av.it.:   7.9
      thresh= 1.000E-02 alpha_mix =  0.700 |ddv_scf|^2 =  2.239E+01

      iter #   3 total cpu time :   587.0 secs   av.it.:   7.8
      thresh= 1.000E-02 alpha_mix =  0.700 |ddv_scf|^2 =  9.266E-05

      iter #   4 total cpu time :   589.5 secs   av.it.:   6.0
      thresh= 9.626E-04 alpha_mix =  0.700 |ddv_scf|^2 =  3.061E-08

      iter #   5 total cpu time :   591.4 secs   av.it.:   8.5
      thresh= 1.750E-05 alpha_mix =  0.700 |ddv_scf|^2 =  1.374E-10

      iter #   6 total cpu time :   594.8 secs   av.it.:   8.5
      thresh= 1.172E-06 alpha_mix =  0.700 |ddv_scf|^2 =  2.226E-11

      iter #   7 total cpu time :   598.1 secs   av.it.:   8.0
      thresh= 4.718E-07 alpha_mix =  0.700 |ddv_scf|^2 =  2.415E-09

      iter #   8 total cpu time :   607.8 secs   av.it.:   5.0
      thresh= 4.914E-06 alpha_mix =  0.700 |ddv_scf|^2 =  8.419E-14

      iter #   9 total cpu time :   616.6 secs   av.it.:   8.1
      thresh= 2.902E-08 alpha_mix =  0.700 |ddv_scf|^2 =  1.052E-15

      iter #  10 total cpu time :   628.7 secs   av.it.:   8.7
      thresh= 3.243E-09 alpha_mix =  0.700 |ddv_scf|^2 =  8.139E-15

      iter #  11 total cpu time :   632.3 secs   av.it.:   5.8
      thresh= 9.022E-09 alpha_mix =  0.700 |ddv_scf|^2 =  2.388E-17

     End of self-consistent calculation

     Convergence has been achieved 


     Representation #  2 modes #   2  3

     Self-consistent Calculation

      iter #   1 total cpu time :   633.9 secs   av.it.:   5.6
      thresh= 1.000E-02 alpha_mix =  0.700 |ddv_scf|^2 =  3.072E-07

      iter #   2 total cpu time :   637.3 secs   av.it.:   9.3
      thresh= 5.543E-05 alpha_mix =  0.700 |ddv_scf|^2 =  1.840E-08

      iter #   3 total cpu time :   645.5 secs   av.it.:   9.5
      thresh= 1.356E-05 alpha_mix =  0.700 |ddv_scf|^2 =  1.363E-10

      iter #   4 total cpu time :   652.2 secs   av.it.:   8.8
      thresh= 1.167E-06 alpha_mix =  0.700 |ddv_scf|^2 =  2.009E-13

      iter #   5 total cpu time :   655.2 secs   av.it.:   8.8
      thresh= 4.482E-08 alpha_mix =  0.700 |ddv_scf|^2 =  4.598E-15

      iter #   6 total cpu time :   662.1 secs   av.it.:   8.4
      thresh= 6.781E-09 alpha_mix =  0.700 |ddv_scf|^2 =  1.602E-18

     End of self-consistent calculation

     Convergence has been achieved 
 
     Number of q in the star =    6
     List of q in the star:
          1   0.000000000   0.250000000   0.000000000
          2   0.000000000  -0.250000000   0.000000000
          3   0.250000000   0.000000000   0.000000000
          4   0.000000000   0.000000000   0.250000000
          5   0.000000000   0.000000000  -0.250000000
          6  -0.250000000   0.000000000   0.000000000

     Diagonalizing the dynamical matrix

     q = (    0.000000000   0.250000000   0.000000000 ) 

 **************************************************************************
     freq (    1) =       2.567128 [THz] =      85.630173 [cm-1]
     freq (    2) =       2.567128 [THz] =      85.630173 [cm-1]
     freq (    3) =       4.146000 [THz] =     138.295675 [cm-1]
 **************************************************************************

     Mode symmetry, C_4v (4mm)  point group:

     freq (  1 -  2) =         85.6  [cm-1]   --> E    G_5 D_5       
     freq (  3 -  3) =        138.3  [cm-1]   --> A_1  G_1 D_1       

     Calculation of q =   -0.1250000   0.3750000  -0.1250000
 
     G-vector sticks info
     --------------------
     sticks:   dense  smooth     PW     G-vecs:    dense   smooth      PW
     Sum         955     475    169                19195     6735    1471
 


     bravais-lattice index     =            2
     lattice parameter (alat)  =       7.5481  a.u.
     unit-cell volume          =     107.5096 (a.u.)^3
     number of atoms/cell      =            1
     number of atomic types    =            1
     number of electrons       =         3.00
     number of Kohn-Sham states=            6
     kinetic-energy cutoff     =      60.0000  Ry
     charge density cutoff     =     480.0000  Ry
     Exchange-correlation      =  SLA  PW   PBX  PBC ( 1  4  3  4 0 0)

     celldm(1)=   7.548066  celldm(2)=   0.000000  celldm(3)=   0.000000
     celldm(4)=   0.000000  celldm(5)=   0.000000  celldm(6)=   0.000000

     crystal axes: (cart. coord. in units of alat)
               a(1) = (  -0.500000   0.000000   0.500000 )  
               a(2) = (   0.000000   0.500000   0.500000 )  
               a(3) = (  -0.500000   0.500000   0.000000 )  

     reciprocal axes: (cart. coord. in units 2 pi/alat)
               b(1) = ( -1.000000 -1.000000  1.000000 )  
               b(2) = (  1.000000  1.000000  1.000000 )  
               b(3) = ( -1.000000  1.000000 -1.000000 )  


     PseudoPot. # 1 for Li read from file:
     ../Li.pbe-s-gbrv14.UPF
     MD5 check sum: 7ca33c4f951f001da2db5c8738379802
     Pseudo is Ultrasoft, Zval =  3.0
     Generated by new atomic code, or converted to UPF format
     Using radial grid of  751 points,  5 beta functions with: 
                l(1) =   0
                l(2) =   0
                l(3) =   0
                l(4) =   1
                l(5) =   1
     Q(r) pseudized with 10 coefficients,  rinner =    1.150   1.150   1.150


     atomic species   valence    mass     pseudopotential
        Li             3.00     6.94100     Li( 1.00)

     48 Sym. Ops., with inversion, found



   Cartesian axes

     site n.     atom                  positions (alat units)
         1           Li  tau(   1) = (   0.0000000   0.0000000   0.0000000  )

     number of k points= 89376  Marzari-Vanderbilt smearing, width (Ry)=  0.0200

     Number of k-points >= 100: set verbosity='high' to print them.

     Dense  grid:    19195 G-vectors     FFT dimensions: (  40,  40,  40)

     Smooth grid:     6735 G-vectors     FFT dimensions: (  27,  27,  27)

     Largest allocated arrays     est. size (Mb)     dimensions
        Kohn-Sham Wavefunctions         0.08 Mb     (     877,    6)
        NL pseudopotentials             0.12 Mb     (     877,    9)
        Each V/rho on FFT grid          0.98 Mb     (   64000)
        Each G-vector array             0.15 Mb     (   19195)
        G-vector shells                 0.00 Mb     (     234)
     Largest temporary arrays     est. size (Mb)     dimensions
        Auxiliary wavefunctions         0.32 Mb     (     877,   24)
        Each subspace H/S matrix        0.01 Mb     (      24,   24)
        Each <psi_i|beta_j> matrix      0.00 Mb     (       9,    6)

     The potential is recalculated from file :
     ./tmp/_ph0/li-fcc.save/charge-density.dat

     Starting wfc are    5 atomic +    1 random wfc

     Band Structure Calculation
     Davidson diagonalization with overlap

     ethr =  3.33E-10,  avg # of iterations = 14.8

     total cpu time spent up to now is       69.0 secs

     End of band structure calculation

     Number of k-points >= 100: set verbosity='high' to print the bands.

     the Fermi energy is     1.7700 ev

                                                                                

     bravais-lattice index     =            2
     lattice parameter (alat)  =       7.5481  a.u.
     unit-cell volume          =     107.5096 (a.u.)^3
     number of atoms/cell      =            1
     number of atomic types    =            1
     kinetic-energy cut-off    =      60.0000  Ry
     charge density cut-off    =     480.0000  Ry
     convergence threshold     =      1.0E-16
     beta                      =       0.7000
     number of iterations used =            4
     Exchange-correlation      =  SLA  PW   PBX  PBC ( 1  4  3  4 0 0)


     celldm(1)=    7.54807  celldm(2)=    0.00000  celldm(3)=    0.00000
     celldm(4)=    0.00000  celldm(5)=    0.00000  celldm(6)=    0.00000

     crystal axes: (cart. coord. in units of alat)
               a(1) = ( -0.5000  0.0000  0.5000 )  
               a(2) = (  0.0000  0.5000  0.5000 )  
               a(3) = ( -0.5000  0.5000  0.0000 )  

     reciprocal axes: (cart. coord. in units 2 pi/alat)
               b(1) = ( -1.0000 -1.0000  1.0000 )  
               b(2) = (  1.0000  1.0000  1.0000 )  
               b(3) = ( -1.0000  1.0000 -1.0000 )  


     Atoms inside the unit cell: 

     Cartesian axes

     site n.  atom      mass           positions (alat units)
        1     Li   6.9410   tau(    1) = (    0.00000    0.00000    0.00000  )

     Computing dynamical matrix for 
                    q = (  -0.1250000   0.3750000  -0.1250000 )
 
      2 Sym.Ops. (no q -> -q+G )


     G cutoff =  692.7123  (  19195 G-vectors)     FFT grid: ( 40, 40, 40)
     G cutoff =  346.3561  (   6735 G-vectors)  smooth grid: ( 27, 27, 27)

     number of k points= 89376  Marzari-Vanderbilt smearing, width (Ry)=  0.0200

     PseudoPot. # 1 for Li read from file:
     ../Li.pbe-s-gbrv14.UPF
     MD5 check sum: 7ca33c4f951f001da2db5c8738379802
     Pseudo is Ultrasoft, Zval =  3.0
     Generated by new atomic code, or converted to UPF format
     Using radial grid of  751 points,  5 beta functions with: 
                l(1) =   0
                l(2) =   0
                l(3) =   0
                l(4) =   1
                l(5) =   1
     Q(r) pseudized with 10 coefficients,  rinner =    1.150   1.150   1.150


     Mode symmetry, C_s (m)     point group:


     Atomic displacements:
     There are   3 irreducible representations

     Representation     1      1 modes -A'  To be done

     Representation     2      1 modes -A'  To be done

     Representation     3      1 modes -A''  To be done



     Alpha used in Ewald sum =   2.8000
     PHONON       :  9m46.53s CPU    11m42.57s WALL



     Representation #  1 mode #   1

     Self-consistent Calculation

      iter #   1 total cpu time :   705.2 secs   av.it.:   6.5
      thresh= 1.000E-02 alpha_mix =  0.700 |ddv_scf|^2 =  1.514E-03

      iter #   2 total cpu time :   709.3 secs   av.it.:   7.8
      thresh= 3.891E-03 alpha_mix =  0.700 |ddv_scf|^2 =  6.980E-02

      iter #   3 total cpu time :   718.0 secs   av.it.:   6.5
      thresh= 1.000E-02 alpha_mix =  0.700 |ddv_scf|^2 =  9.880E-08

      iter #   4 total cpu time :   723.6 secs   av.it.:   9.0
      thresh= 3.143E-05 alpha_mix =  0.700 |ddv_scf|^2 =  6.282E-09

      iter #   5 total cpu time :   728.2 secs   av.it.:   8.9
      thresh= 7.926E-06 alpha_mix =  0.700 |ddv_scf|^2 =  9.981E-11

      iter #   6 total cpu time :   740.1 secs   av.it.:   8.6
      thresh= 9.990E-07 alpha_mix =  0.700 |ddv_scf|^2 =  4.945E-13

      iter #   7 total cpu time :   752.2 secs   av.it.:   9.1
      thresh= 7.032E-08 alpha_mix =  0.700 |ddv_scf|^2 =  8.007E-12

      iter #   8 total cpu time :   760.3 secs   av.it.:   6.2
      thresh= 2.830E-07 alpha_mix =  0.700 |ddv_scf|^2 =  4.747E-14

      iter #   9 total cpu time :   768.8 secs   av.it.:   8.8
      thresh= 2.179E-08 alpha_mix =  0.700 |ddv_scf|^2 =  2.275E-15

      iter #  10 total cpu time :   772.0 secs   av.it.:   7.1
      thresh= 4.769E-09 alpha_mix =  0.700 |ddv_scf|^2 =  4.529E-15

      iter #  11 total cpu time :   781.7 secs   av.it.:   6.8
      thresh= 6.730E-09 alpha_mix =  0.700 |ddv_scf|^2 =  3.953E-18

     End of self-consistent calculation

     Convergence has been achieved 


     Representation #  2 mode #   2

     Self-consistent Calculation

      iter #   1 total cpu time :   799.8 secs   av.it.:   6.3
      thresh= 1.000E-02 alpha_mix =  0.700 |ddv_scf|^2 =  2.298E-04

      iter #   2 total cpu time :   803.8 secs   av.it.:   7.9
      thresh= 1.516E-03 alpha_mix =  0.700 |ddv_scf|^2 =  1.054E-02

      iter #   3 total cpu time :   816.6 secs   av.it.:   5.7
      thresh= 1.000E-02 alpha_mix =  0.700 |ddv_scf|^2 =  6.111E-08

      iter #   4 total cpu time :   822.1 secs   av.it.:   9.2
      thresh= 2.472E-05 alpha_mix =  0.700 |ddv_scf|^2 =  3.302E-09

      iter #   5 total cpu time :   834.0 secs   av.it.:   9.0
      thresh= 5.747E-06 alpha_mix =  0.700 |ddv_scf|^2 =  5.236E-11

      iter #   6 total cpu time :   854.3 secs   av.it.:   8.8
      thresh= 7.236E-07 alpha_mix =  0.700 |ddv_scf|^2 =  1.476E-11

      iter #   7 total cpu time :   858.7 secs   av.it.:   6.6
      thresh= 3.842E-07 alpha_mix =  0.700 |ddv_scf|^2 =  1.119E-11

      iter #   8 total cpu time :   862.8 secs   av.it.:   7.0
      thresh= 3.346E-07 alpha_mix =  0.700 |ddv_scf|^2 =  1.048E-12

      iter #   9 total cpu time :   868.6 secs   av.it.:   6.6
      thresh= 1.024E-07 alpha_mix =  0.700 |ddv_scf|^2 =  2.350E-13

      iter #  10 total cpu time :   871.9 secs   av.it.:   7.7
      thresh= 4.847E-08 alpha_mix =  0.700 |ddv_scf|^2 =  1.252E-16

      iter #  11 total cpu time :   882.1 secs   av.it.:   9.0
      thresh= 1.119E-09 alpha_mix =  0.700 |ddv_scf|^2 =  9.111E-18

     End of self-consistent calculation

     Convergence has been achieved 


     Representation #  3 mode #   3

     Self-consistent Calculation

      iter #   1 total cpu time :   893.4 secs   av.it.:   5.6
      thresh= 1.000E-02 alpha_mix =  0.700 |ddv_scf|^2 =  1.275E-06

      iter #   2 total cpu time :   898.3 secs   av.it.:   8.6
      thresh= 1.129E-04 alpha_mix =  0.700 |ddv_scf|^2 =  7.518E-08

      iter #   3 total cpu time :   903.3 secs   av.it.:   8.9
      thresh= 2.742E-05 alpha_mix =  0.700 |ddv_scf|^2 =  7.714E-10

      iter #   4 total cpu time :   907.5 secs   av.it.:   8.2
      thresh= 2.777E-06 alpha_mix =  0.700 |ddv_scf|^2 =  8.178E-13

      iter #   5 total cpu time :   912.4 secs   av.it.:   8.3
      thresh= 9.043E-08 alpha_mix =  0.700 |ddv_scf|^2 =  1.900E-14

      iter #   6 total cpu time :   916.7 secs   av.it.:   7.7
      thresh= 1.378E-08 alpha_mix =  0.700 |ddv_scf|^2 =  1.132E-17

     End of self-consistent calculation

     Convergence has been achieved 
 
     Number of q in the star =   24
     List of q in the star:
          1  -0.125000000   0.375000000  -0.125000000
          2  -0.125000000   0.375000000   0.125000000
          3   0.125000000   0.375000000  -0.125000000
          4   0.125000000   0.375000000   0.125000000
          5   0.125000000  -0.375000000   0.125000000
          6   0.375000000  -0.125000000   0.125000000
          7   0.125000000  -0.125000000   0.375000000
          8  -0.125000000  -0.375000000  -0.125000000
          9   0.125000000  -0.375000000  -0.125000000
         10  -0.125000000  -0.375000000   0.125000000
         11   0.125000000  -0.125000000  -0.375000000
         12   0.375000000  -0.125000000  -0.125000000
         13  -0.375000000  -0.125000000   0.125000000
         14   0.375000000   0.125000000   0.125000000
         15  -0.125000000  -0.125000000   0.375000000
         16   0.125000000   0.125000000   0.375000000
         17  -0.375000000   0.125000000  -0.125000000
         18  -0.125000000   0.125000000  -0.375000000
         19  -0.375000000  -0.125000000  -0.125000000
         20   0.125000000   0.125000000  -0.375000000
         21   0.375000000   0.125000000  -0.125000000
         22  -0.125000000  -0.125000000  -0.375000000
         23  -0.375000000   0.125000000   0.125000000
         24  -0.125000000   0.125000000   0.375000000

     Diagonalizing the dynamical matrix

     q = (   -0.125000000   0.375000000  -0.125000000 ) 

 **************************************************************************
     freq (    1) =       3.735052 [THz] =     124.587923 [cm-1]
     freq (    2) =       4.030159 [THz] =     134.431630 [cm-1]
     freq (    3) =       7.598095 [THz] =     253.445176 [cm-1]
 **************************************************************************

     Mode symmetry, C_s (m)     point group:

     freq (  1 -  1) =        124.6  [cm-1]   --> A''                
     freq (  2 -  2) =        134.4  [cm-1]   --> A'                 
     freq (  3 -  3) =        253.4  [cm-1]   --> A'                 

     Calculation of q =   -0.2500000   0.5000000  -0.2500000
 
     G-vector sticks info
     --------------------
     sticks:   dense  smooth     PW     G-vecs:    dense   smooth      PW
     Sum         955     475    187                19195     6735    1639
 


     bravais-lattice index     =            2
     lattice parameter (alat)  =       7.5481  a.u.
     unit-cell volume          =     107.5096 (a.u.)^3
     number of atoms/cell      =            1
     number of atomic types    =            1
     number of electrons       =         3.00
     number of Kohn-Sham states=            6
     kinetic-energy cutoff     =      60.0000  Ry
     charge density cutoff     =     480.0000  Ry
     Exchange-correlation      =  SLA  PW   PBX  PBC ( 1  4  3  4 0 0)

     celldm(1)=   7.548066  celldm(2)=   0.000000  celldm(3)=   0.000000
     celldm(4)=   0.000000  celldm(5)=   0.000000  celldm(6)=   0.000000

     crystal axes: (cart. coord. in units of alat)
               a(1) = (  -0.500000   0.000000   0.500000 )  
               a(2) = (   0.000000   0.500000   0.500000 )  
               a(3) = (  -0.500000   0.500000   0.000000 )  

     reciprocal axes: (cart. coord. in units 2 pi/alat)
               b(1) = ( -1.000000 -1.000000  1.000000 )  
               b(2) = (  1.000000  1.000000  1.000000 )  
               b(3) = ( -1.000000  1.000000 -1.000000 )  


     PseudoPot. # 1 for Li read from file:
     ../Li.pbe-s-gbrv14.UPF
     MD5 check sum: 7ca33c4f951f001da2db5c8738379802
     Pseudo is Ultrasoft, Zval =  3.0
     Generated by new atomic code, or converted to UPF format
     Using radial grid of  751 points,  5 beta functions with: 
                l(1) =   0
                l(2) =   0
                l(3) =   0
                l(4) =   1
                l(5) =   1
     Q(r) pseudized with 10 coefficients,  rinner =    1.150   1.150   1.150


     atomic species   valence    mass     pseudopotential
        Li             3.00     6.94100     Li( 1.00)

     48 Sym. Ops., with inversion, found



   Cartesian axes

     site n.     atom                  positions (alat units)
         1           Li  tau(   1) = (   0.0000000   0.0000000   0.0000000  )

     number of k points= 89376  Marzari-Vanderbilt smearing, width (Ry)=  0.0200

     Number of k-points >= 100: set verbosity='high' to print them.

     Dense  grid:    19195 G-vectors     FFT dimensions: (  40,  40,  40)

     Smooth grid:     6735 G-vectors     FFT dimensions: (  27,  27,  27)

     Largest allocated arrays     est. size (Mb)     dimensions
        Kohn-Sham Wavefunctions         0.08 Mb     (     876,    6)
        NL pseudopotentials             0.12 Mb     (     876,    9)
        Each V/rho on FFT grid          0.98 Mb     (   64000)
        Each G-vector array             0.15 Mb     (   19195)
        G-vector shells                 0.00 Mb     (     234)
     Largest temporary arrays     est. size (Mb)     dimensions
        Auxiliary wavefunctions         0.32 Mb     (     876,   24)
        Each subspace H/S matrix        0.01 Mb     (      24,   24)
        Each <psi_i|beta_j> matrix      0.00 Mb     (       9,    6)

     The potential is recalculated from file :
     ./tmp/_ph0/li-fcc.save/charge-density.dat

     Starting wfc are    5 atomic +    1 random wfc

     Band Structure Calculation
     Davidson diagonalization with overlap

     ethr =  3.33E-10,  avg # of iterations = 14.8

     total cpu time spent up to now is       94.5 secs

     End of band structure calculation

     Number of k-points >= 100: set verbosity='high' to print the bands.

     the Fermi energy is     1.7700 ev

                                                                                

     bravais-lattice index     =            2
     lattice parameter (alat)  =       7.5481  a.u.
     unit-cell volume          =     107.5096 (a.u.)^3
     number of atoms/cell      =            1
     number of atomic types    =            1
     kinetic-energy cut-off    =      60.0000  Ry
     charge density cut-off    =     480.0000  Ry
     convergence threshold     =      1.0E-16
     beta                      =       0.7000
     number of iterations used =            4
     Exchange-correlation      =  SLA  PW   PBX  PBC ( 1  4  3  4 0 0)


     celldm(1)=    7.54807  celldm(2)=    0.00000  celldm(3)=    0.00000
     celldm(4)=    0.00000  celldm(5)=    0.00000  celldm(6)=    0.00000

     crystal axes: (cart. coord. in units of alat)
               a(1) = ( -0.5000  0.0000  0.5000 )  
               a(2) = (  0.0000  0.5000  0.5000 )  
               a(3) = ( -0.5000  0.5000  0.0000 )  

     reciprocal axes: (cart. coord. in units 2 pi/alat)
               b(1) = ( -1.0000 -1.0000  1.0000 )  
               b(2) = (  1.0000  1.0000  1.0000 )  
               b(3) = ( -1.0000  1.0000 -1.0000 )  


     Atoms inside the unit cell: 

     Cartesian axes

     site n.  atom      mass           positions (alat units)
        1     Li   6.9410   tau(    1) = (    0.00000    0.00000    0.00000  )

     Computing dynamical matrix for 
                    q = (  -0.2500000   0.5000000  -0.2500000 )
 
      2 Sym.Ops. (no q -> -q+G )


     G cutoff =  692.7123  (  19195 G-vectors)     FFT grid: ( 40, 40, 40)
     G cutoff =  346.3561  (   6735 G-vectors)  smooth grid: ( 27, 27, 27)

     number of k points= 89376  Marzari-Vanderbilt smearing, width (Ry)=  0.0200

     PseudoPot. # 1 for Li read from file:
     ../Li.pbe-s-gbrv14.UPF
     MD5 check sum: 7ca33c4f951f001da2db5c8738379802
     Pseudo is Ultrasoft, Zval =  3.0
     Generated by new atomic code, or converted to UPF format
     Using radial grid of  751 points,  5 beta functions with: 
                l(1) =   0
                l(2) =   0
                l(3) =   0
                l(4) =   1
                l(5) =   1
     Q(r) pseudized with 10 coefficients,  rinner =    1.150   1.150   1.150


     Mode symmetry, C_s (m)     point group:


     Atomic displacements:
     There are   3 irreducible representations

     Representation     1      1 modes -A'  To be done

     Representation     2      1 modes -A'  To be done

     Representation     3      1 modes -A''  To be done



     Alpha used in Ewald sum =   2.8000
     PHONON       : 13m34.32s CPU    15m53.67s WALL



     Representation #  1 mode #   1

     Self-consistent Calculation

      iter #   1 total cpu time :   956.3 secs   av.it.:   6.5
      thresh= 1.000E-02 alpha_mix =  0.700 |ddv_scf|^2 =  1.016E-04

      iter #   2 total cpu time :   966.7 secs   av.it.:   8.3
      thresh= 1.008E-03 alpha_mix =  0.700 |ddv_scf|^2 =  5.697E-04

      iter #   3 total cpu time :   978.2 secs   av.it.:   6.9
      thresh= 2.387E-03 alpha_mix =  0.700 |ddv_scf|^2 =  5.706E-08

      iter #   4 total cpu time :   985.6 secs   av.it.:   9.0
      thresh= 2.389E-05 alpha_mix =  0.700 |ddv_scf|^2 =  1.375E-09

      iter #   5 total cpu time :   989.1 secs   av.it.:   9.1
      thresh= 3.708E-06 alpha_mix =  0.700 |ddv_scf|^2 =  1.895E-11

      iter #   6 total cpu time :  1000.7 secs   av.it.:   8.9
      thresh= 4.353E-07 alpha_mix =  0.700 |ddv_scf|^2 =  1.822E-13

      iter #   7 total cpu time :  1003.7 secs   av.it.:   9.2
      thresh= 4.269E-08 alpha_mix =  0.700 |ddv_scf|^2 =  3.758E-13

      iter #   8 total cpu time :  1007.8 secs   av.it.:   7.1
      thresh= 6.130E-08 alpha_mix =  0.700 |ddv_scf|^2 =  3.689E-15

      iter #   9 total cpu time :  1011.1 secs   av.it.:   9.1
      thresh= 6.074E-09 alpha_mix =  0.700 |ddv_scf|^2 =  2.983E-16

      iter #  10 total cpu time :  1013.7 secs   av.it.:   7.9
      thresh= 1.727E-09 alpha_mix =  0.700 |ddv_scf|^2 =  2.135E-17

     End of self-consistent calculation

     Convergence has been achieved 


     Representation #  2 mode #   2

     Self-consistent Calculation

      iter #   1 total cpu time :  1046.9 secs   av.it.:   6.4
      thresh= 1.000E-02 alpha_mix =  0.700 |ddv_scf|^2 =  2.688E-05

      iter #   2 total cpu time :  1051.7 secs   av.it.:   8.7
      thresh= 5.184E-04 alpha_mix =  0.700 |ddv_scf|^2 =  1.418E-04

      iter #   3 total cpu time :  1055.8 secs   av.it.:   7.0
      thresh= 1.191E-03 alpha_mix =  0.700 |ddv_scf|^2 =  5.898E-08

      iter #   4 total cpu time :  1059.9 secs   av.it.:   9.0
      thresh= 2.429E-05 alpha_mix =  0.700 |ddv_scf|^2 =  1.885E-09

      iter #   5 total cpu time :  1063.7 secs   av.it.:   8.9
      thresh= 4.341E-06 alpha_mix =  0.700 |ddv_scf|^2 =  1.648E-11

      iter #   6 total cpu time :  1068.8 secs   av.it.:   9.2
      thresh= 4.060E-07 alpha_mix =  0.700 |ddv_scf|^2 =  2.897E-13

      iter #   7 total cpu time :  1072.3 secs   av.it.:   9.1
      thresh= 5.382E-08 alpha_mix =  0.700 |ddv_scf|^2 =  1.292E-12

      iter #   8 total cpu time :  1075.9 secs   av.it.:   7.0
      thresh= 1.137E-07 alpha_mix =  0.700 |ddv_scf|^2 =  1.615E-14

      iter #   9 total cpu time :  1089.5 secs   av.it.:   8.8
      thresh= 1.271E-08 alpha_mix =  0.700 |ddv_scf|^2 =  1.446E-14

      iter #  10 total cpu time :  1097.1 secs   av.it.:   8.0
      thresh= 1.202E-08 alpha_mix =  0.700 |ddv_scf|^2 =  9.622E-18

     End of self-consistent calculation

     Convergence has been achieved 


     Representation #  3 mode #   3

     Self-consistent Calculation

      iter #   1 total cpu time :  1118.0 secs   av.it.:   5.7
      thresh= 1.000E-02 alpha_mix =  0.700 |ddv_scf|^2 =  1.304E-06

      iter #   2 total cpu time :  1124.0 secs   av.it.:   8.6
      thresh= 1.142E-04 alpha_mix =  0.700 |ddv_scf|^2 =  7.651E-08

      iter #   3 total cpu time :  1136.5 secs   av.it.:   8.9
      thresh= 2.766E-05 alpha_mix =  0.700 |ddv_scf|^2 =  9.127E-10

      iter #   4 total cpu time :  1147.8 secs   av.it.:   8.2
      thresh= 3.021E-06 alpha_mix =  0.700 |ddv_scf|^2 =  9.073E-13

      iter #   5 total cpu time :  1165.6 secs   av.it.:   8.4
      thresh= 9.525E-08 alpha_mix =  0.700 |ddv_scf|^2 =  1.990E-14

      iter #   6 total cpu time :  1179.6 secs   av.it.:   7.8
      thresh= 1.411E-08 alpha_mix =  0.700 |ddv_scf|^2 =  1.511E-17

     End of self-consistent calculation

     Convergence has been achieved 
 
     Number of q in the star =   24
     List of q in the star:
          1  -0.250000000   0.500000000  -0.250000000
          2  -0.250000000   0.500000000   0.250000000
          3   0.250000000   0.500000000  -0.250000000
          4   0.250000000   0.500000000   0.250000000
          5   0.250000000  -0.500000000   0.250000000
[...]
      thresh= 1.000E-02 alpha_mix =  0.700 |ddv_scf|^2 =  2.128E-06

      iter #   2 total cpu time :  1222.6 secs   av.it.:   8.8
      thresh= 1.459E-04 alpha_mix =  0.700 |ddv_scf|^2 =  1.241E-07

      iter #   3 total cpu time :  1225.3 secs   av.it.:   8.8
      thresh= 3.522E-05 alpha_mix =  0.700 |ddv_scf|^2 =  7.266E-09

      iter #   4 total cpu time :  1228.5 secs   av.it.:   8.9
      thresh= 8.524E-06 alpha_mix =  0.700 |ddv_scf|^2 =  2.076E-10

      iter #   5 total cpu time :  1238.0 secs   av.it.:   8.2
      thresh= 1.441E-06 alpha_mix =  0.700 |ddv_scf|^2 =  1.794E-12

      iter #   6 total cpu time :  1245.0 secs   av.it.:   9.3
      thresh= 1.339E-07 alpha_mix =  0.700 |ddv_scf|^2 =  2.970E-15

      iter #   7 total cpu time :  1247.4 secs   av.it.:   9.5
      thresh= 5.450E-09 alpha_mix =  0.700 |ddv_scf|^2 =  2.368E-16

      iter #   8 total cpu time :  1258.5 secs   av.it.:   9.4
      thresh= 1.539E-09 alpha_mix =  0.700 |ddv_scf|^2 =  6.013E-19

     End of self-consistent calculation

     Convergence has been achieved 


     Representation #  2 mode #   2

     Self-consistent Calculation

      iter #   1 total cpu time :  1262.7 secs   av.it.:   6.2
      thresh= 1.000E-02 alpha_mix =  0.700 |ddv_scf|^2 =  2.047E-06

      iter #   2 total cpu time :  1265.1 secs   av.it.:   8.8
      thresh= 1.431E-04 alpha_mix =  0.700 |ddv_scf|^2 =  7.788E-08

      iter #   3 total cpu time :  1267.8 secs   av.it.:   8.8
      thresh= 2.791E-05 alpha_mix =  0.700 |ddv_scf|^2 =  3.872E-09

      iter #   4 total cpu time :  1269.8 secs   av.it.:   8.6
      thresh= 6.222E-06 alpha_mix =  0.700 |ddv_scf|^2 =  1.185E-11

      iter #   5 total cpu time :  1272.5 secs   av.it.:   8.6
      thresh= 3.442E-07 alpha_mix =  0.700 |ddv_scf|^2 =  8.925E-15

      iter #   6 total cpu time :  1275.5 secs   av.it.:   7.6
      thresh= 9.447E-09 alpha_mix =  0.700 |ddv_scf|^2 =  5.889E-16

      iter #   7 total cpu time :  1279.3 secs   av.it.:   7.9
      thresh= 2.427E-09 alpha_mix =  0.700 |ddv_scf|^2 =  1.248E-19

     End of self-consistent calculation

     Convergence has been achieved 


     Representation #  3 mode #   3

     Self-consistent Calculation

      iter #   1 total cpu time :  1283.4 secs   av.it.:   6.5
      thresh= 1.000E-02 alpha_mix =  0.700 |ddv_scf|^2 =  6.695E-06

      iter #   2 total cpu time :  1286.5 secs   av.it.:   8.8
      thresh= 2.587E-04 alpha_mix =  0.700 |ddv_scf|^2 =  4.907E-07

      iter #   3 total cpu time :  1295.8 secs   av.it.:   8.0
      thresh= 7.005E-05 alpha_mix =  0.700 |ddv_scf|^2 =  1.302E-08

      iter #   4 total cpu time :  1299.2 secs   av.it.:   8.7
      thresh= 1.141E-05 alpha_mix =  0.700 |ddv_scf|^2 =  5.380E-12

      iter #   5 total cpu time :  1301.8 secs   av.it.:   8.8
      thresh= 2.319E-07 alpha_mix =  0.700 |ddv_scf|^2 =  7.379E-14

      iter #   6 total cpu time :  1304.4 secs   av.it.:   8.7
      thresh= 2.716E-08 alpha_mix =  0.700 |ddv_scf|^2 =  1.042E-15

      iter #   7 total cpu time :  1313.3 secs   av.it.:   8.5
      thresh= 3.228E-09 alpha_mix =  0.700 |ddv_scf|^2 =  1.190E-18

     End of self-consistent calculation

     Convergence has been achieved 
 
     Number of q in the star =   12
     List of q in the star:
          1  -0.250000000  -1.000000000   0.000000000
          2   0.250000000   0.000000000   1.000000000
          3   0.250000000   1.000000000   0.000000000
          4   0.000000000  -1.000000000   0.250000000
          5   0.000000000  -1.000000000  -0.250000000
          6  -1.000000000   0.000000000  -0.250000000
          7   1.000000000   0.000000000   0.250000000
          8  -1.000000000  -0.250000000   0.000000000
          9   0.000000000  -0.250000000  -1.000000000
         10   0.000000000   0.250000000   1.000000000
         11   1.000000000   0.250000000   0.000000000
         12  -0.250000000   0.000000000   1.000000000

     Diagonalizing the dynamical matrix

     q = (   -0.250000000  -1.000000000   0.000000000 ) 

 **************************************************************************
     freq (    1) =       8.262403 [THz] =     275.604082 [cm-1]
     freq (    2) =       9.689361 [THz] =     323.202307 [cm-1]
     freq (    3) =      13.053698 [THz] =     435.424492 [cm-1]
 **************************************************************************

     Mode symmetry, C_2v (mm2)  point group:

     freq (  1 -  1) =        275.6  [cm-1]   --> A_1  D_1  S_1      
     freq (  2 -  2) =        323.2  [cm-1]   --> B_1  D_3  S_3      
     freq (  3 -  3) =        435.4  [cm-1]   --> B_2  D_4  S_4      

     Calculation of q =   -0.5000000  -1.0000000   0.0000000
 
     G-vector sticks info
     --------------------
     sticks:   dense  smooth     PW     G-vecs:    dense   smooth      PW
     Sum         955     475    199                19195     6735    1807
 


     bravais-lattice index     =            2
     lattice parameter (alat)  =       7.5481  a.u.
     unit-cell volume          =     107.5096 (a.u.)^3
     number of atoms/cell      =            1
     number of atomic types    =            1
     number of electrons       =         3.00
     number of Kohn-Sham states=            6
     kinetic-energy cutoff     =      60.0000  Ry
     charge density cutoff     =     480.0000  Ry
     Exchange-correlation      =  SLA  PW   PBX  PBC ( 1  4  3  4 0 0)

     celldm(1)=   7.548066  celldm(2)=   0.000000  celldm(3)=   0.000000
     celldm(4)=   0.000000  celldm(5)=   0.000000  celldm(6)=   0.000000

     crystal axes: (cart. coord. in units of alat)
               a(1) = (  -0.500000   0.000000   0.500000 )  
               a(2) = (   0.000000   0.500000   0.500000 )  
               a(3) = (  -0.500000   0.500000   0.000000 )  

     reciprocal axes: (cart. coord. in units 2 pi/alat)
               b(1) = ( -1.000000 -1.000000  1.000000 )  
               b(2) = (  1.000000  1.000000  1.000000 )  
               b(3) = ( -1.000000  1.000000 -1.000000 )  


     PseudoPot. # 1 for Li read from file:
     ../Li.pbe-s-gbrv14.UPF
     MD5 check sum: 7ca33c4f951f001da2db5c8738379802
     Pseudo is Ultrasoft, Zval =  3.0
     Generated by new atomic code, or converted to UPF format
     Using radial grid of  751 points,  5 beta functions with: 
                l(1) =   0
                l(2) =   0
                l(3) =   0
                l(4) =   1
                l(5) =   1
     Q(r) pseudized with 10 coefficients,  rinner =    1.150   1.150   1.150


     atomic species   valence    mass     pseudopotential
        Li             3.00     6.94100     Li( 1.00)

     48 Sym. Ops., with inversion, found



   Cartesian axes

     site n.     atom                  positions (alat units)
         1           Li  tau(   1) = (   0.0000000   0.0000000   0.0000000  )

     number of k points= 21952  Marzari-Vanderbilt smearing, width (Ry)=  0.0200

     Number of k-points >= 100: set verbosity='high' to print them.

     Dense  grid:    19195 G-vectors     FFT dimensions: (  40,  40,  40)

     Smooth grid:     6735 G-vectors     FFT dimensions: (  27,  27,  27)

     Largest allocated arrays     est. size (Mb)     dimensions
        Kohn-Sham Wavefunctions         0.08 Mb     (     876,    6)
        NL pseudopotentials             0.12 Mb     (     876,    9)
        Each V/rho on FFT grid          0.98 Mb     (   64000)
        Each G-vector array             0.15 Mb     (   19195)
        G-vector shells                 0.00 Mb     (     234)
     Largest temporary arrays     est. size (Mb)     dimensions
        Auxiliary wavefunctions         0.32 Mb     (     876,   24)
        Each subspace H/S matrix        0.01 Mb     (      24,   24)
        Each <psi_i|beta_j> matrix      0.00 Mb     (       9,    6)

     The potential is recalculated from file :
     ./tmp/_ph0/li-fcc.save/charge-density.dat

     Starting wfc are    5 atomic +    1 random wfc

     Band Structure Calculation
     Davidson diagonalization with overlap

     ethr =  3.33E-10,  avg # of iterations = 14.8

     total cpu time spent up to now is      206.3 secs

     End of band structure calculation

     Number of k-points >= 100: set verbosity='high' to print the bands.

     the Fermi energy is     1.7700 ev

                                                                                

     bravais-lattice index     =            2
     lattice parameter (alat)  =       7.5481  a.u.
     unit-cell volume          =     107.5096 (a.u.)^3
     number of atoms/cell      =            1
     number of atomic types    =            1
     kinetic-energy cut-off    =      60.0000  Ry
     charge density cut-off    =     480.0000  Ry
     convergence threshold     =      1.0E-16
     beta                      =       0.7000
     number of iterations used =            4
     Exchange-correlation      =  SLA  PW   PBX  PBC ( 1  4  3  4 0 0)


     celldm(1)=    7.54807  celldm(2)=    0.00000  celldm(3)=    0.00000
     celldm(4)=    0.00000  celldm(5)=    0.00000  celldm(6)=    0.00000

     crystal axes: (cart. coord. in units of alat)
               a(1) = ( -0.5000  0.0000  0.5000 )  
               a(2) = (  0.0000  0.5000  0.5000 )  
               a(3) = ( -0.5000  0.5000  0.0000 )  

     reciprocal axes: (cart. coord. in units 2 pi/alat)
               b(1) = ( -1.0000 -1.0000  1.0000 )  
               b(2) = (  1.0000  1.0000  1.0000 )  
               b(3) = ( -1.0000  1.0000 -1.0000 )  


     Atoms inside the unit cell: 

     Cartesian axes

     site n.  atom      mass           positions (alat units)
        1     Li   6.9410   tau(    1) = (    0.00000    0.00000    0.00000  )

     Computing dynamical matrix for 
                    q = (  -0.5000000  -1.0000000   0.0000000 )
 
      8 Sym.Ops. (no q -> -q+G )


     G cutoff =  692.7123  (  19195 G-vectors)     FFT grid: ( 40, 40, 40)
     G cutoff =  346.3561  (   6735 G-vectors)  smooth grid: ( 27, 27, 27)

     number of k points= 21952  Marzari-Vanderbilt smearing, width (Ry)=  0.0200

     PseudoPot. # 1 for Li read from file:
     ../Li.pbe-s-gbrv14.UPF
     MD5 check sum: 7ca33c4f951f001da2db5c8738379802
     Pseudo is Ultrasoft, Zval =  3.0
     Generated by new atomic code, or converted to UPF format
     Using radial grid of  751 points,  5 beta functions with: 
                l(1) =   0
                l(2) =   0
                l(3) =   0
                l(4) =   1
                l(5) =   1
     Q(r) pseudized with 10 coefficients,  rinner =    1.150   1.150   1.150


     Mode symmetry, D_2d (-42m) point group:


     Atomic displacements:
     There are   2 irreducible representations

     Representation     1      1 modes -B_2  X_3  W_2  To be done

     Representation     2      2 modes -E    X_5  W_3  To be done



     Alpha used in Ewald sum =   2.8000
     PHONON       : 19m11.83s CPU    22m21.06s WALL



     Representation #  1 mode #   1

     Self-consistent Calculation

      iter #   1 total cpu time :  1341.8 secs   av.it.:   6.2
      thresh= 1.000E-02 alpha_mix =  0.700 |ddv_scf|^2 =  2.554E-06

      iter #   2 total cpu time :  1344.3 secs   av.it.:   8.8
      thresh= 1.598E-04 alpha_mix =  0.700 |ddv_scf|^2 =  1.096E-07

      iter #   3 total cpu time :  1346.7 secs   av.it.:   8.7
      thresh= 3.310E-05 alpha_mix =  0.700 |ddv_scf|^2 =  5.988E-09

      iter #   4 total cpu time :  1347.7 secs   av.it.:   8.9
      thresh= 7.738E-06 alpha_mix =  0.700 |ddv_scf|^2 =  2.291E-11

      iter #   5 total cpu time :  1350.7 secs   av.it.:   8.8
      thresh= 4.787E-07 alpha_mix =  0.700 |ddv_scf|^2 =  5.431E-14

      iter #   6 total cpu time :  1352.2 secs   av.it.:   8.5
      thresh= 2.330E-08 alpha_mix =  0.700 |ddv_scf|^2 =  1.601E-15

      iter #   7 total cpu time :  1353.1 secs   av.it.:   8.4
      thresh= 4.001E-09 alpha_mix =  0.700 |ddv_scf|^2 =  6.935E-19

     End of self-consistent calculation

     Convergence has been achieved 


     Representation #  2 modes #   2  3

     Self-consistent Calculation

      iter #   1 total cpu time :  1357.2 secs   av.it.:   6.4
      thresh= 1.000E-02 alpha_mix =  0.700 |ddv_scf|^2 =  9.387E-07

      iter #   2 total cpu time :  1365.9 secs   av.it.:   9.4
      thresh= 9.689E-05 alpha_mix =  0.700 |ddv_scf|^2 =  3.393E-08

      iter #   3 total cpu time :  1385.0 secs   av.it.:   8.8
      thresh= 1.842E-05 alpha_mix =  0.700 |ddv_scf|^2 =  2.138E-09

      iter #   4 total cpu time :  1395.3 secs   av.it.:   9.2
      thresh= 4.624E-06 alpha_mix =  0.700 |ddv_scf|^2 =  1.783E-12

      iter #   5 total cpu time :  1398.0 secs   av.it.:   9.2
      thresh= 1.335E-07 alpha_mix =  0.700 |ddv_scf|^2 =  4.598E-15

      iter #   6 total cpu time :  1400.2 secs   av.it.:   9.0
      thresh= 6.781E-09 alpha_mix =  0.700 |ddv_scf|^2 =  2.471E-16

      iter #   7 total cpu time :  1403.8 secs   av.it.:   9.0
      thresh= 1.572E-09 alpha_mix =  0.700 |ddv_scf|^2 =  2.007E-19

     End of self-consistent calculation

     Convergence has been achieved 
 
     Number of q in the star =    6
     List of q in the star:
          1  -0.500000000  -1.000000000   0.000000000
          2   0.500000000   1.000000000   0.000000000
          3   0.000000000  -1.000000000   0.500000000
          4   0.000000000  -1.000000000  -0.500000000
          5  -1.000000000  -0.500000000   0.000000000
          6   0.000000000  -0.500000000  -1.000000000

     Diagonalizing the dynamical matrix

     q = (   -0.500000000  -1.000000000   0.000000000 ) 

 **************************************************************************
     freq (    1) =       8.309230 [THz] =     277.166083 [cm-1]
     freq (    2) =      11.725643 [THz] =     391.125339 [cm-1]
     freq (    3) =      11.725643 [THz] =     391.125339 [cm-1]
 **************************************************************************

     Mode symmetry, D_2d (-42m) point group:

     freq (  1 -  1) =        277.2  [cm-1]   --> B_2  X_3  W_2      
     freq (  2 -  3) =        391.1  [cm-1]   --> E    X_5  W_3      
 
     init_run     :      2.32s CPU      2.41s WALL (       8 calls)
     electrons    :    185.80s CPU    187.82s WALL (       8 calls)

     Called by init_run:
     wfcinit      :      0.00s CPU      0.02s WALL (       8 calls)
     potinit      :      0.55s CPU      0.60s WALL (       8 calls)

     Called by electrons:
     c_bands      :    185.49s CPU    187.48s WALL (       8 calls)
     v_of_rho     :      0.34s CPU      0.36s WALL (       9 calls)
     newd         :      0.12s CPU      0.14s WALL (       9 calls)

     Called by c_bands:
     init_us_2    :      5.04s CPU      5.13s WALL (   33761 calls)
     cegterg      :    115.24s CPU    116.24s WALL (    2348 calls)

     Called by sum_band:

     Called by *egterg:
     h_psi        :    112.69s CPU    113.79s WALL (   37559 calls)
     s_psi        :      7.02s CPU      6.94s WALL (  548955 calls)
     g_psi        :      0.69s CPU      0.70s WALL (   33201 calls)
     cdiaghg      :      4.34s CPU      4.58s WALL (   35211 calls)

     Called by h_psi:
     add_vuspsi   :      4.01s CPU      4.09s WALL (  280783 calls)

     General routines
     calbec       :      9.21s CPU      9.58s WALL (  603048 calls)
     fft          :      4.86s CPU      4.88s WALL (    3083 calls)
     ffts         :      1.85s CPU      1.94s WALL (    3532 calls)
     fftw         :    492.94s CPU    498.13s WALL ( 1380846 calls)
     interpolate  :      1.05s CPU      1.01s WALL (     424 calls)
     davcio       :      0.16s CPU      3.27s WALL (    6030 calls)
 
     Parallel routines
     fft_scatter  :     26.22s CPU     26.26s WALL ( 1387461 calls)
 
     PHONON       : 20m 7.54s CPU    23m27.97s WALL

     INITIALIZATION: 
     phq_setup    :      0.93s CPU      2.28s WALL (       8 calls)
     phq_init     :     17.91s CPU     18.33s WALL (       8 calls)
 
     phq_init     :     17.91s CPU     18.33s WALL (       8 calls)
     init_vloc    :      0.01s CPU      0.01s WALL (       9 calls)
     init_us_1    :      1.30s CPU      1.30s WALL (       9 calls)
     newd         :      0.12s CPU      0.14s WALL (       9 calls)
     dvanqq       :      0.71s CPU      0.73s WALL (       8 calls)
     drho         :     15.20s CPU     15.32s WALL (       8 calls)
 
     DYNAMICAL MATRIX:
     dynmat0      :      0.61s CPU      0.69s WALL (       8 calls)
     phqscf       :    961.90s CPU   1070.73s WALL (       8 calls)
     dynmatrix    :      8.96s CPU     10.06s WALL (       8 calls)
 
     phqscf       :    961.90s CPU   1070.73s WALL (       8 calls)
     solve_linter :    960.60s CPU   1064.22s WALL (      23 calls)
     drhodv       :      1.22s CPU      1.29s WALL (      23 calls)
 
     dynmat0      :      0.61s CPU      0.69s WALL (       8 calls)
     dynmat_us    :      0.57s CPU      0.59s WALL (       8 calls)
     d2ionq       :      0.02s CPU      0.02s WALL (       8 calls)
 
     dynmat_us    :      0.57s CPU      0.59s WALL (       8 calls)
     addusdynmat  :      0.00s CPU      0.00s WALL (       8 calls)
 
     phqscf       :    961.90s CPU   1070.73s WALL (       8 calls)
     solve_linter :    960.60s CPU   1064.22s WALL (      23 calls)
 
     solve_linter :    960.60s CPU   1064.22s WALL (      23 calls)
     dvqpsi_us    :     16.19s CPU     16.56s WALL (    3015 calls)
     ortho        :      2.41s CPU      2.50s WALL (   24948 calls)
     cgsolve      :    378.55s CPU    382.53s WALL (   24948 calls)
     incdrhoscf   :     41.23s CPU     42.12s WALL (   24948 calls)
     addusddens   :      3.76s CPU      3.76s WALL (     208 calls)
     vpsifft      :     34.35s CPU     34.33s WALL (   21933 calls)
     dv_of_drho   :      6.94s CPU      7.03s WALL (     192 calls)
     mix_pot      :      0.97s CPU      0.99s WALL (     185 calls)
     psymdvscf    :      1.65s CPU      1.65s WALL (     133 calls)
     newdq        :      3.41s CPU      3.44s WALL (     185 calls)
     adddvscf     :      0.86s CPU      0.95s WALL (   21933 calls)
     drhodvus     :      0.06s CPU      0.05s WALL (      23 calls)
 
     dvqpsi_us    :     16.19s CPU     16.56s WALL (    3015 calls)
     dvqpsi_us_on :      0.74s CPU      0.71s WALL (    3015 calls)
 
     cgsolve      :    378.55s CPU    382.53s WALL (   24948 calls)
     ch_psi       :    374.68s CPU    378.26s WALL (  243224 calls)
 
     ch_psi       :    374.68s CPU    378.26s WALL (  243224 calls)
     h_psiq       :    362.84s CPU    366.40s WALL (  243224 calls)
     last         :     10.09s CPU     10.21s WALL (  243224 calls)
 
     h_psiq       :    362.84s CPU    366.40s WALL (  243224 calls)
     firstfft     :    184.83s CPU    187.18s WALL (  436956 calls)
     secondfft    :    154.74s CPU    156.07s WALL (  436956 calls)
     add_vuspsi   :      4.01s CPU      4.09s WALL (  280783 calls)
 
     incdrhoscf   :     41.23s CPU     42.12s WALL (   24948 calls)
     addusdbec    :      1.10s CPU      1.12s WALL (   27963 calls)
 
     drhodvus     :      0.06s CPU      0.05s WALL (      23 calls)
 
      General routines
     calbec       :      9.21s CPU      9.58s WALL (  603048 calls)
     fft          :      4.86s CPU      4.88s WALL (    3083 calls)
     ffts         :      1.85s CPU      1.94s WALL (    3532 calls)
     fftw         :    492.94s CPU    498.13s WALL ( 1380846 calls)
     davcio       :      0.16s CPU      3.27s WALL (    6030 calls)
     write_rec    :      0.49s CPU    102.53s WALL (     208 calls)
 
 
     PHONON       : 20m 7.54s CPU    23m27.97s WALL

 
   This run was terminated on:   8:48:16   5Jun2016            

=------------------------------------------------------------------------------=
   JOB DONE.
=------------------------------------------------------------------------------=
Application 21922513 resources: utime ~517257s, stime ~2568s, Rss ~180004, inblocks ~290311941, outblocks ~446264878
