
     Program PHONON v.5.4.0 starts on  6Jun2016 at  3:23:58 

     This program is part of the open-source Quantum ESPRESSO suite
     for quantum simulation of materials; please cite
         "P. Giannozzi et al., J. Phys.:Condens. Matter 21 395502 (2009);
          URL http://www.quantum-espresso.org", 
     in publications or presentations arising from this work. More details at
     http://www.quantum-espresso.org/quote

     Parallel version (MPI), running on   384 processors
     K-points division:     npool     =     384

     Reading data from directory:
     ./tmp/li-fcc.save

   Info: using nr1, nr2, nr3 values from input

   Info: using nr1, nr2, nr3 values from input

     IMPORTANT: XC functional enforced from input :
     Exchange-correlation      =  SLA  PW   PBX  PBC ( 1  4  3  4 0 0)
     Any further DFT definition will be discarded
     Please, verify this is what you really want

 
     G-vector sticks info
     --------------------
     sticks:   dense  smooth     PW     G-vecs:    dense   smooth      PW
     Sum        1003     499    163                20539     7391    1459
 


     Dynamical matrices for ( 8, 8, 8)  uniform grid of q-points
     (  29q-points):
       N         xq(1)         xq(2)         xq(3) 
       1   0.000000000   0.000000000   0.000000000
       2  -0.125000000   0.125000000  -0.125000000
       3  -0.250000000   0.250000000  -0.250000000
       4  -0.375000000   0.375000000  -0.375000000
       5   0.500000000  -0.500000000   0.500000000
       6   0.000000000   0.250000000   0.000000000
       7  -0.125000000   0.375000000  -0.125000000
       8  -0.250000000   0.500000000  -0.250000000
       9   0.625000000  -0.375000000   0.625000000
      10   0.500000000  -0.250000000   0.500000000
      11   0.375000000  -0.125000000   0.375000000
      12   0.250000000   0.000000000   0.250000000
      13   0.000000000   0.500000000   0.000000000
      14  -0.125000000   0.625000000  -0.125000000
      15   0.750000000  -0.250000000   0.750000000
      16   0.625000000  -0.125000000   0.625000000
      17   0.500000000   0.000000000   0.500000000
      18   0.000000000   0.750000000   0.000000000
      19   0.875000000  -0.125000000   0.875000000
      20   0.750000000   0.000000000   0.750000000
      21   0.000000000  -1.000000000   0.000000000
      22  -0.250000000   0.500000000   0.000000000
      23   0.625000000  -0.375000000   0.875000000
      24   0.500000000  -0.250000000   0.750000000
      25   0.750000000  -0.250000000   1.000000000
      26   0.625000000  -0.125000000   0.875000000
      27   0.500000000   0.000000000   0.750000000
      28  -0.250000000  -1.000000000   0.000000000
      29  -0.500000000  -1.000000000   0.000000000

     Calculation of q =    0.0000000   0.0000000   0.0000000

                                                                                

     bravais-lattice index     =            2
     lattice parameter (alat)  =       7.7429  a.u.
     unit-cell volume          =     116.0512 (a.u.)^3
     number of atoms/cell      =            1
     number of atomic types    =            1
     kinetic-energy cut-off    =      60.0000  Ry
     charge density cut-off    =     480.0000  Ry
     convergence threshold     =      1.0E-16
     beta                      =       0.7000
     number of iterations used =            4
     Exchange-correlation      =  SLA  PW   PBX  PBC ( 1  4  3  4 0 0)


     celldm(1)=    7.74289  celldm(2)=    0.00000  celldm(3)=    0.00000
     celldm(4)=    0.00000  celldm(5)=    0.00000  celldm(6)=    0.00000

     crystal axes: (cart. coord. in units of alat)
               a(1) = ( -0.5000  0.0000  0.5000 )  
               a(2) = (  0.0000  0.5000  0.5000 )  
               a(3) = ( -0.5000  0.5000  0.0000 )  

     reciprocal axes: (cart. coord. in units 2 pi/alat)
               b(1) = ( -1.0000 -1.0000  1.0000 )  
               b(2) = (  1.0000  1.0000  1.0000 )  
               b(3) = ( -1.0000  1.0000 -1.0000 )  


     Atoms inside the unit cell: 

     Cartesian axes

     site n.  atom      mass           positions (alat units)
        1     Li   6.9410   tau(    1) = (    0.00000    0.00000    0.00000  )

     Computing dynamical matrix for 
                    q = (   0.0000000   0.0000000   0.0000000 )
 
     49 Sym.Ops. (with q -> -q+G )


     G cutoff =  728.9337  (  20539 G-vectors)     FFT grid: ( 40, 40, 40)
     G cutoff =  364.4668  (   7391 G-vectors)  smooth grid: ( 27, 27, 27)

     number of k points=  2030  Marzari-Vanderbilt smearing, width (Ry)=  0.0200

     PseudoPot. # 1 for Li read from file:
     ../Li.pbe-s-gbrv14.UPF
     MD5 check sum: 7ca33c4f951f001da2db5c8738379802
     Pseudo is Ultrasoft, Zval =  3.0
     Generated by new atomic code, or converted to UPF format
     Using radial grid of  751 points,  5 beta functions with: 
                l(1) =   0
                l(2) =   0
                l(3) =   0
                l(4) =   1
                l(5) =   1
     Q(r) pseudized with 10 coefficients,  rinner =    1.150   1.150   1.150


     Mode symmetry, O_h (m-3m)  point group:


     Atomic displacements:
     There are   1 irreducible representations

     Representation     1      3 modes -T_1u G_15  G_4-  To be done



     Alpha used in Ewald sum =   2.8000
     PHONON       :    14.80s CPU        26.85s WALL



     Representation #  1 modes #   1  2  3

     Self-consistent Calculation
 
     Pert. #  1: Fermi energy shift (Ry) =     1.0340E-25     1.2539E-37
     Pert. #  2: Fermi energy shift (Ry) =     5.9238E-26     7.8366E-38
     Pert. #  3: Fermi energy shift (Ry) =    -5.1699E-26     6.6611E-38

      iter #   1 total cpu time :    27.7 secs   av.it.:   5.4
      thresh= 1.000E-02 alpha_mix =  0.700 |ddv_scf|^2 =  1.248E-07
 
     Pert. #  1: Fermi energy shift (Ry) =     1.7233E-25    -3.9795E-40
     Pert. #  2: Fermi energy shift (Ry) =    -2.7788E-25    -1.0733E-39
     Pert. #  3: Fermi energy shift (Ry) =     6.8932E-26     5.0510E-40

      iter #   2 total cpu time :    29.5 secs   av.it.:   9.4
      thresh= 3.533E-05 alpha_mix =  0.700 |ddv_scf|^2 =  7.619E-09
 
     Pert. #  1: Fermi energy shift (Ry) =    -2.5849E-26     7.6530E-42
     Pert. #  2: Fermi energy shift (Ry) =    -9.6935E-27    -1.1479E-41
     Pert. #  3: Fermi energy shift (Ry) =    -1.0340E-25     0.0000E+00

      iter #   3 total cpu time :    31.1 secs   av.it.:   9.6
      thresh= 8.729E-06 alpha_mix =  0.700 |ddv_scf|^2 =  3.998E-11
 
     Pert. #  1: Fermi energy shift (Ry) =     2.5849E-26     0.0000E+00
     Pert. #  2: Fermi energy shift (Ry) =    -1.2063E-25     0.0000E+00
     Pert. #  3: Fermi energy shift (Ry) =    -3.4466E-26     2.8400E-43

      iter #   4 total cpu time :    35.3 secs   av.it.:   9.2
      thresh= 6.323E-07 alpha_mix =  0.700 |ddv_scf|^2 =  1.062E-13
 
     Pert. #  1: Fermi energy shift (Ry) =     2.5849E-26     0.0000E+00
     Pert. #  2: Fermi energy shift (Ry) =     1.3571E-25     0.0000E+00
     Pert. #  3: Fermi energy shift (Ry) =     1.3786E-25    -1.4200E-43

      iter #   5 total cpu time :    36.3 secs   av.it.:   8.6
      thresh= 3.258E-08 alpha_mix =  0.700 |ddv_scf|^2 =  2.251E-15
 
     Pert. #  1: Fermi energy shift (Ry) =    -8.6165E-26     0.0000E+00
     Pert. #  2: Fermi energy shift (Ry) =     5.4930E-26     0.0000E+00
     Pert. #  3: Fermi energy shift (Ry) =     8.6165E-27     0.0000E+00

      iter #   6 total cpu time :    37.4 secs   av.it.:   8.6
      thresh= 4.745E-09 alpha_mix =  0.700 |ddv_scf|^2 =  5.003E-19

     End of self-consistent calculation

     Convergence has been achieved 
 
     Number of q in the star =    1
     List of q in the star:
          1   0.000000000   0.000000000   0.000000000

     Diagonalizing the dynamical matrix

     q = (    0.000000000   0.000000000   0.000000000 ) 

 **************************************************************************
     freq (    1) =      -0.060194 [THz] =      -2.007858 [cm-1]
     freq (    2) =      -0.060194 [THz] =      -2.007858 [cm-1]
     freq (    3) =      -0.060194 [THz] =      -2.007858 [cm-1]
 **************************************************************************

     Mode symmetry, O_h (m-3m)  point group:

     freq (  1 -  3) =         -2.0  [cm-1]   --> T_1u G_15  G_4- I  

     Calculation of q =   -0.1250000   0.1250000  -0.1250000
 
     G-vector sticks info
     --------------------
     sticks:   dense  smooth     PW     G-vecs:    dense   smooth      PW
     Sum        1003     499    169                20539     7391    1471
 


     bravais-lattice index     =            2
     lattice parameter (alat)  =       7.7429  a.u.
     unit-cell volume          =     116.0512 (a.u.)^3
     number of atoms/cell      =            1
     number of atomic types    =            1
     number of electrons       =         3.00
     number of Kohn-Sham states=            6
     kinetic-energy cutoff     =      60.0000  Ry
     charge density cutoff     =     480.0000  Ry
     Exchange-correlation      =  SLA  PW   PBX  PBC ( 1  4  3  4 0 0)

     celldm(1)=   7.742893  celldm(2)=   0.000000  celldm(3)=   0.000000
     celldm(4)=   0.000000  celldm(5)=   0.000000  celldm(6)=   0.000000

     crystal axes: (cart. coord. in units of alat)
               a(1) = (  -0.500000   0.000000   0.500000 )  
               a(2) = (   0.000000   0.500000   0.500000 )  
               a(3) = (  -0.500000   0.500000   0.000000 )  

     reciprocal axes: (cart. coord. in units 2 pi/alat)
               b(1) = ( -1.000000 -1.000000  1.000000 )  
               b(2) = (  1.000000  1.000000  1.000000 )  
               b(3) = ( -1.000000  1.000000 -1.000000 )  


     PseudoPot. # 1 for Li read from file:
     ../Li.pbe-s-gbrv14.UPF
     MD5 check sum: 7ca33c4f951f001da2db5c8738379802
     Pseudo is Ultrasoft, Zval =  3.0
     Generated by new atomic code, or converted to UPF format
     Using radial grid of  751 points,  5 beta functions with: 
                l(1) =   0
                l(2) =   0
                l(3) =   0
                l(4) =   1
                l(5) =   1
     Q(r) pseudized with 10 coefficients,  rinner =    1.150   1.150   1.150


     atomic species   valence    mass     pseudopotential
        Li             3.00     6.94100     Li( 1.00)

     48 Sym. Ops., with inversion, found



   Cartesian axes

     site n.     atom                  positions (alat units)
         1           Li  tau(   1) = (   0.0000000   0.0000000   0.0000000  )

     number of k points= 30856  Marzari-Vanderbilt smearing, width (Ry)=  0.0200

     Number of k-points >= 100: set verbosity='high' to print them.

     Dense  grid:    20539 G-vectors     FFT dimensions: (  40,  40,  40)

     Smooth grid:     7391 G-vectors     FFT dimensions: (  27,  27,  27)

     Largest allocated arrays     est. size (Mb)     dimensions
        Kohn-Sham Wavefunctions         0.09 Mb     (     941,    6)
        NL pseudopotentials             0.13 Mb     (     941,    9)
        Each V/rho on FFT grid          0.98 Mb     (   64000)
        Each G-vector array             0.16 Mb     (   20539)
        G-vector shells                 0.00 Mb     (     246)
     Largest temporary arrays     est. size (Mb)     dimensions
        Auxiliary wavefunctions         0.34 Mb     (     941,   24)
        Each subspace H/S matrix        0.01 Mb     (      24,   24)
        Each <psi_i|beta_j> matrix      0.00 Mb     (       9,    6)

     The potential is recalculated from file :
     ./tmp/_ph0/li-fcc.save/charge-density.dat

     Starting wfc are    5 atomic +    1 random wfc

     Band Structure Calculation
     Davidson diagonalization with overlap

     ethr =  3.33E-10,  avg # of iterations = 15.1

     total cpu time spent up to now is        8.4 secs

     End of band structure calculation

     Number of k-points >= 100: set verbosity='high' to print the bands.

     the Fermi energy is     1.4865 ev

                                                                                

     bravais-lattice index     =            2
     lattice parameter (alat)  =       7.7429  a.u.
     unit-cell volume          =     116.0512 (a.u.)^3
     number of atoms/cell      =            1
     number of atomic types    =            1
     kinetic-energy cut-off    =      60.0000  Ry
     charge density cut-off    =     480.0000  Ry
     convergence threshold     =      1.0E-16
     beta                      =       0.7000
     number of iterations used =            4
     Exchange-correlation      =  SLA  PW   PBX  PBC ( 1  4  3  4 0 0)


     celldm(1)=    7.74289  celldm(2)=    0.00000  celldm(3)=    0.00000
     celldm(4)=    0.00000  celldm(5)=    0.00000  celldm(6)=    0.00000

     crystal axes: (cart. coord. in units of alat)
               a(1) = ( -0.5000  0.0000  0.5000 )  
               a(2) = (  0.0000  0.5000  0.5000 )  
               a(3) = ( -0.5000  0.5000  0.0000 )  

     reciprocal axes: (cart. coord. in units 2 pi/alat)
               b(1) = ( -1.0000 -1.0000  1.0000 )  
               b(2) = (  1.0000  1.0000  1.0000 )  
               b(3) = ( -1.0000  1.0000 -1.0000 )  


     Atoms inside the unit cell: 

     Cartesian axes

     site n.  atom      mass           positions (alat units)
        1     Li   6.9410   tau(    1) = (    0.00000    0.00000    0.00000  )

     Computing dynamical matrix for 
                    q = (  -0.1250000   0.1250000  -0.1250000 )
 
      6 Sym.Ops. (no q -> -q+G )


     G cutoff =  728.9337  (  20539 G-vectors)     FFT grid: ( 40, 40, 40)
     G cutoff =  364.4668  (   7391 G-vectors)  smooth grid: ( 27, 27, 27)

     number of k points= 30856  Marzari-Vanderbilt smearing, width (Ry)=  0.0200

     PseudoPot. # 1 for Li read from file:
     ../Li.pbe-s-gbrv14.UPF
     MD5 check sum: 7ca33c4f951f001da2db5c8738379802
     Pseudo is Ultrasoft, Zval =  3.0
     Generated by new atomic code, or converted to UPF format
     Using radial grid of  751 points,  5 beta functions with: 
                l(1) =   0
                l(2) =   0
                l(3) =   0
                l(4) =   1
                l(5) =   1
     Q(r) pseudized with 10 coefficients,  rinner =    1.150   1.150   1.150


     Mode symmetry, C_3v (3m)   point group:


     Atomic displacements:
     There are   2 irreducible representations

     Representation     1      1 modes -A_1  L_1  To be done

     Representation     2      2 modes -E    L_3  To be done



     Alpha used in Ewald sum =   2.8000
     PHONON       :    38.56s CPU        52.71s WALL



     Representation #  1 mode #   1

     Self-consistent Calculation

      iter #   1 total cpu time :    53.8 secs   av.it.:   6.4
      thresh= 1.000E-02 alpha_mix =  0.700 |ddv_scf|^2 =  9.798E-02

      iter #   2 total cpu time :    55.8 secs   av.it.:   8.0
      thresh= 1.000E-02 alpha_mix =  0.700 |ddv_scf|^2 =  8.531E+01

      iter #   3 total cpu time :    58.5 secs   av.it.:   8.0
      thresh= 1.000E-02 alpha_mix =  0.700 |ddv_scf|^2 =  6.924E-04

      iter #   4 total cpu time :    66.3 secs   av.it.:   5.0
      thresh= 2.631E-03 alpha_mix =  0.700 |ddv_scf|^2 =  4.062E-08

      iter #   5 total cpu time :    73.1 secs   av.it.:   8.3
      thresh= 2.015E-05 alpha_mix =  0.700 |ddv_scf|^2 =  4.679E-10

      iter #   6 total cpu time :    85.0 secs   av.it.:   8.6
      thresh= 2.163E-06 alpha_mix =  0.700 |ddv_scf|^2 =  6.661E-11

      iter #   7 total cpu time :    91.7 secs   av.it.:   7.6
      thresh= 8.161E-07 alpha_mix =  0.700 |ddv_scf|^2 =  7.901E-09

      iter #   8 total cpu time :    93.7 secs   av.it.:   4.8
      thresh= 8.889E-06 alpha_mix =  0.700 |ddv_scf|^2 =  4.766E-13

      iter #   9 total cpu time :    96.6 secs   av.it.:   7.2
      thresh= 6.903E-08 alpha_mix =  0.700 |ddv_scf|^2 =  1.564E-13

      iter #  10 total cpu time :    97.6 secs   av.it.:   6.9
      thresh= 3.954E-08 alpha_mix =  0.700 |ddv_scf|^2 =  1.832E-14

      iter #  11 total cpu time :   100.8 secs   av.it.:   6.5
      thresh= 1.353E-08 alpha_mix =  0.700 |ddv_scf|^2 =  5.521E-17

     End of self-consistent calculation

     Convergence has been achieved 


     Representation #  2 modes #   2  3

     Self-consistent Calculation

      iter #   1 total cpu time :   103.9 secs   av.it.:   5.5
      thresh= 1.000E-02 alpha_mix =  0.700 |ddv_scf|^2 =  2.834E-07

      iter #   2 total cpu time :   107.0 secs   av.it.:   9.3
      thresh= 5.323E-05 alpha_mix =  0.700 |ddv_scf|^2 =  1.726E-08

      iter #   3 total cpu time :   112.8 secs   av.it.:   9.5
      thresh= 1.314E-05 alpha_mix =  0.700 |ddv_scf|^2 =  1.013E-10

      iter #   4 total cpu time :   115.7 secs   av.it.:   9.1
      thresh= 1.006E-06 alpha_mix =  0.700 |ddv_scf|^2 =  2.337E-13

      iter #   5 total cpu time :   118.3 secs   av.it.:   8.8
      thresh= 4.835E-08 alpha_mix =  0.700 |ddv_scf|^2 =  4.809E-15

      iter #   6 total cpu time :   121.7 secs   av.it.:   8.1
      thresh= 6.935E-09 alpha_mix =  0.700 |ddv_scf|^2 =  1.379E-18

     End of self-consistent calculation

     Convergence has been achieved 
 
     Number of q in the star =    8
     List of q in the star:
          1  -0.125000000   0.125000000  -0.125000000
          2   0.125000000  -0.125000000  -0.125000000
          3   0.125000000  -0.125000000   0.125000000
          4  -0.125000000   0.125000000   0.125000000
          5   0.125000000   0.125000000  -0.125000000
          6  -0.125000000  -0.125000000  -0.125000000
          7  -0.125000000  -0.125000000   0.125000000
          8   0.125000000   0.125000000   0.125000000

     Diagonalizing the dynamical matrix

     q = (   -0.125000000   0.125000000  -0.125000000 ) 

 **************************************************************************
     freq (    1) =       1.461377 [THz] =      48.746297 [cm-1]
     freq (    2) =       1.461377 [THz] =      48.746297 [cm-1]
     freq (    3) =       4.162711 [THz] =     138.853109 [cm-1]
 **************************************************************************

     Mode symmetry, C_3v (3m)   point group:

     freq (  1 -  2) =         48.7  [cm-1]   --> E    L_3           
     freq (  3 -  3) =        138.9  [cm-1]   --> A_1  L_1           

     Calculation of q =   -0.2500000   0.2500000  -0.2500000
 
     G-vector sticks info
     --------------------
     sticks:   dense  smooth     PW     G-vecs:    dense   smooth      PW
     Sum        1003     499    187                20539     7391    1639
 


     bravais-lattice index     =            2
     lattice parameter (alat)  =       7.7429  a.u.
     unit-cell volume          =     116.0512 (a.u.)^3
     number of atoms/cell      =            1
     number of atomic types    =            1
     number of electrons       =         3.00
     number of Kohn-Sham states=            6
     kinetic-energy cutoff     =      60.0000  Ry
     charge density cutoff     =     480.0000  Ry
     Exchange-correlation      =  SLA  PW   PBX  PBC ( 1  4  3  4 0 0)

     celldm(1)=   7.742893  celldm(2)=   0.000000  celldm(3)=   0.000000
     celldm(4)=   0.000000  celldm(5)=   0.000000  celldm(6)=   0.000000

     crystal axes: (cart. coord. in units of alat)
               a(1) = (  -0.500000   0.000000   0.500000 )  
               a(2) = (   0.000000   0.500000   0.500000 )  
               a(3) = (  -0.500000   0.500000   0.000000 )  

     reciprocal axes: (cart. coord. in units 2 pi/alat)
               b(1) = ( -1.000000 -1.000000  1.000000 )  
               b(2) = (  1.000000  1.000000  1.000000 )  
               b(3) = ( -1.000000  1.000000 -1.000000 )  


     PseudoPot. # 1 for Li read from file:
     ../Li.pbe-s-gbrv14.UPF
     MD5 check sum: 7ca33c4f951f001da2db5c8738379802
     Pseudo is Ultrasoft, Zval =  3.0
     Generated by new atomic code, or converted to UPF format
     Using radial grid of  751 points,  5 beta functions with: 
                l(1) =   0
                l(2) =   0
                l(3) =   0
                l(4) =   1
                l(5) =   1
     Q(r) pseudized with 10 coefficients,  rinner =    1.150   1.150   1.150


     atomic species   valence    mass     pseudopotential
        Li             3.00     6.94100     Li( 1.00)

     48 Sym. Ops., with inversion, found



   Cartesian axes

     site n.     atom                  positions (alat units)
         1           Li  tau(   1) = (   0.0000000   0.0000000   0.0000000  )

     number of k points= 30856  Marzari-Vanderbilt smearing, width (Ry)=  0.0200

     Number of k-points >= 100: set verbosity='high' to print them.

     Dense  grid:    20539 G-vectors     FFT dimensions: (  40,  40,  40)

     Smooth grid:     7391 G-vectors     FFT dimensions: (  27,  27,  27)

     Largest allocated arrays     est. size (Mb)     dimensions
        Kohn-Sham Wavefunctions         0.09 Mb     (     934,    6)
        NL pseudopotentials             0.13 Mb     (     934,    9)
        Each V/rho on FFT grid          0.98 Mb     (   64000)
        Each G-vector array             0.16 Mb     (   20539)
        G-vector shells                 0.00 Mb     (     246)
     Largest temporary arrays     est. size (Mb)     dimensions
        Auxiliary wavefunctions         0.34 Mb     (     934,   24)
        Each subspace H/S matrix        0.01 Mb     (      24,   24)
        Each <psi_i|beta_j> matrix      0.00 Mb     (       9,    6)

     The potential is recalculated from file :
     ./tmp/_ph0/li-fcc.save/charge-density.dat

     Starting wfc are    5 atomic +    1 random wfc

     Band Structure Calculation
     Davidson diagonalization with overlap

     ethr =  3.33E-10,  avg # of iterations = 15.1

     total cpu time spent up to now is       18.1 secs

     End of band structure calculation

     Number of k-points >= 100: set verbosity='high' to print the bands.

     the Fermi energy is     1.4865 ev

                                                                                

     bravais-lattice index     =            2
     lattice parameter (alat)  =       7.7429  a.u.
     unit-cell volume          =     116.0512 (a.u.)^3
     number of atoms/cell      =            1
     number of atomic types    =            1
     kinetic-energy cut-off    =      60.0000  Ry
     charge density cut-off    =     480.0000  Ry
     convergence threshold     =      1.0E-16
     beta                      =       0.7000
     number of iterations used =            4
     Exchange-correlation      =  SLA  PW   PBX  PBC ( 1  4  3  4 0 0)


     celldm(1)=    7.74289  celldm(2)=    0.00000  celldm(3)=    0.00000
     celldm(4)=    0.00000  celldm(5)=    0.00000  celldm(6)=    0.00000

     crystal axes: (cart. coord. in units of alat)
               a(1) = ( -0.5000  0.0000  0.5000 )  
               a(2) = (  0.0000  0.5000  0.5000 )  
               a(3) = ( -0.5000  0.5000  0.0000 )  

     reciprocal axes: (cart. coord. in units 2 pi/alat)
               b(1) = ( -1.0000 -1.0000  1.0000 )  
               b(2) = (  1.0000  1.0000  1.0000 )  
               b(3) = ( -1.0000  1.0000 -1.0000 )  


     Atoms inside the unit cell: 

     Cartesian axes

     site n.  atom      mass           positions (alat units)
        1     Li   6.9410   tau(    1) = (    0.00000    0.00000    0.00000  )

     Computing dynamical matrix for 
                    q = (  -0.2500000   0.2500000  -0.2500000 )
 
      6 Sym.Ops. (no q -> -q+G )


     G cutoff =  728.9337  (  20539 G-vectors)     FFT grid: ( 40, 40, 40)
     G cutoff =  364.4668  (   7391 G-vectors)  smooth grid: ( 27, 27, 27)

     number of k points= 30856  Marzari-Vanderbilt smearing, width (Ry)=  0.0200

     PseudoPot. # 1 for Li read from file:
     ../Li.pbe-s-gbrv14.UPF
     MD5 check sum: 7ca33c4f951f001da2db5c8738379802
     Pseudo is Ultrasoft, Zval =  3.0
     Generated by new atomic code, or converted to UPF format
     Using radial grid of  751 points,  5 beta functions with: 
                l(1) =   0
                l(2) =   0
                l(3) =   0
                l(4) =   1
                l(5) =   1
     Q(r) pseudized with 10 coefficients,  rinner =    1.150   1.150   1.150


     Mode symmetry, C_3v (3m)   point group:


     Atomic displacements:
     There are   2 irreducible representations

     Representation     1      1 modes -A_1  L_1  To be done

     Representation     2      2 modes -E    L_3  To be done



     Alpha used in Ewald sum =   2.8000
     PHONON       :  1m56.24s CPU     2m15.25s WALL



     Representation #  1 mode #   1

     Self-consistent Calculation

      iter #   1 total cpu time :   136.3 secs   av.it.:   6.4
      thresh= 1.000E-02 alpha_mix =  0.700 |ddv_scf|^2 =  1.163E-03

      iter #   2 total cpu time :   137.5 secs   av.it.:   7.8
      thresh= 3.410E-03 alpha_mix =  0.700 |ddv_scf|^2 =  4.222E-02

      iter #   3 total cpu time :   140.2 secs   av.it.:   6.5
      thresh= 1.000E-02 alpha_mix =  0.700 |ddv_scf|^2 =  8.902E-08

      iter #   4 total cpu time :   142.3 secs   av.it.:   8.9
      thresh= 2.984E-05 alpha_mix =  0.700 |ddv_scf|^2 =  4.368E-09

      iter #   5 total cpu time :   143.4 secs   av.it.:   8.9
      thresh= 6.609E-06 alpha_mix =  0.700 |ddv_scf|^2 =  1.073E-10

      iter #   6 total cpu time :   144.6 secs   av.it.:   8.2
      thresh= 1.036E-06 alpha_mix =  0.700 |ddv_scf|^2 =  2.323E-13

      iter #   7 total cpu time :   145.7 secs   av.it.:   9.6
      thresh= 4.820E-08 alpha_mix =  0.700 |ddv_scf|^2 =  1.846E-14

      iter #   8 total cpu time :   146.8 secs   av.it.:   8.4
      thresh= 1.359E-08 alpha_mix =  0.700 |ddv_scf|^2 =  1.066E-14

      iter #   9 total cpu time :   147.8 secs   av.it.:   6.9
      thresh= 1.032E-08 alpha_mix =  0.700 |ddv_scf|^2 =  1.831E-14

      iter #  10 total cpu time :   148.7 secs   av.it.:   6.6
      thresh= 1.353E-08 alpha_mix =  0.700 |ddv_scf|^2 =  7.480E-17

     End of self-consistent calculation

     Convergence has been achieved 


     Representation #  2 modes #   2  3

     Self-consistent Calculation

      iter #   1 total cpu time :   151.5 secs   av.it.:   5.5
      thresh= 1.000E-02 alpha_mix =  0.700 |ddv_scf|^2 =  2.895E-07

      iter #   2 total cpu time :   153.7 secs   av.it.:   9.4
      thresh= 5.381E-05 alpha_mix =  0.700 |ddv_scf|^2 =  1.752E-08

      iter #   3 total cpu time :   157.8 secs   av.it.:   9.6
      thresh= 1.324E-05 alpha_mix =  0.700 |ddv_scf|^2 =  1.246E-10

      iter #   4 total cpu time :   161.9 secs   av.it.:   9.1
      thresh= 1.116E-06 alpha_mix =  0.700 |ddv_scf|^2 =  2.303E-13

      iter #   5 total cpu time :   164.3 secs   av.it.:   9.0
      thresh= 4.799E-08 alpha_mix =  0.700 |ddv_scf|^2 =  4.453E-15

      iter #   6 total cpu time :   169.4 secs   av.it.:   7.9
      thresh= 6.673E-09 alpha_mix =  0.700 |ddv_scf|^2 =  1.615E-18

     End of self-consistent calculation

     Convergence has been achieved 
 
     Number of q in the star =    8
     List of q in the star:
          1  -0.250000000   0.250000000  -0.250000000
          2   0.250000000  -0.250000000  -0.250000000
          3   0.250000000  -0.250000000   0.250000000
          4  -0.250000000   0.250000000   0.250000000
          5   0.250000000   0.250000000  -0.250000000
          6  -0.250000000  -0.250000000  -0.250000000
          7  -0.250000000  -0.250000000   0.250000000
          8   0.250000000   0.250000000   0.250000000

     Diagonalizing the dynamical matrix

     q = (   -0.250000000   0.250000000  -0.250000000 ) 

 **************************************************************************
     freq (    1) =       2.735061 [THz] =      91.231799 [cm-1]
     freq (    2) =       2.735061 [THz] =      91.231799 [cm-1]
     freq (    3) =       8.212212 [THz] =     273.929903 [cm-1]
 **************************************************************************

     Mode symmetry, C_3v (3m)   point group:

     freq (  1 -  2) =         91.2  [cm-1]   --> E    L_3           
     freq (  3 -  3) =        273.9  [cm-1]   --> A_1  L_1           

     Calculation of q =   -0.3750000   0.3750000  -0.3750000
 
     G-vector sticks info
     --------------------
     sticks:   dense  smooth     PW     G-vecs:    dense   smooth      PW
     Sum        1003     499    187                20539     7391    1687
 


     bravais-lattice index     =            2
     lattice parameter (alat)  =       7.7429  a.u.
     unit-cell volume          =     116.0512 (a.u.)^3
     number of atoms/cell      =            1
     number of atomic types    =            1
     number of electrons       =         3.00
     number of Kohn-Sham states=            6
     kinetic-energy cutoff     =      60.0000  Ry
     charge density cutoff     =     480.0000  Ry
     Exchange-correlation      =  SLA  PW   PBX  PBC ( 1  4  3  4 0 0)

     celldm(1)=   7.742893  celldm(2)=   0.000000  celldm(3)=   0.000000
     celldm(4)=   0.000000  celldm(5)=   0.000000  celldm(6)=   0.000000

     crystal axes: (cart. coord. in units of alat)
               a(1) = (  -0.500000   0.000000   0.500000 )  
               a(2) = (   0.000000   0.500000   0.500000 )  
               a(3) = (  -0.500000   0.500000   0.000000 )  

     reciprocal axes: (cart. coord. in units 2 pi/alat)
               b(1) = ( -1.000000 -1.000000  1.000000 )  
               b(2) = (  1.000000  1.000000  1.000000 )  
               b(3) = ( -1.000000  1.000000 -1.000000 )  


     PseudoPot. # 1 for Li read from file:
     ../Li.pbe-s-gbrv14.UPF
     MD5 check sum: 7ca33c4f951f001da2db5c8738379802
     Pseudo is Ultrasoft, Zval =  3.0
     Generated by new atomic code, or converted to UPF format
     Using radial grid of  751 points,  5 beta functions with: 
                l(1) =   0
                l(2) =   0
                l(3) =   0
                l(4) =   1
                l(5) =   1
     Q(r) pseudized with 10 coefficients,  rinner =    1.150   1.150   1.150


     atomic species   valence    mass     pseudopotential
        Li             3.00     6.94100     Li( 1.00)

     48 Sym. Ops., with inversion, found



   Cartesian axes

     site n.     atom                  positions (alat units)
         1           Li  tau(   1) = (   0.0000000   0.0000000   0.0000000  )

     number of k points= 30856  Marzari-Vanderbilt smearing, width (Ry)=  0.0200

     Number of k-points >= 100: set verbosity='high' to print them.

     Dense  grid:    20539 G-vectors     FFT dimensions: (  40,  40,  40)

     Smooth grid:     7391 G-vectors     FFT dimensions: (  27,  27,  27)

     Largest allocated arrays     est. size (Mb)     dimensions
        Kohn-Sham Wavefunctions         0.09 Mb     (     941,    6)
        NL pseudopotentials             0.13 Mb     (     941,    9)
        Each V/rho on FFT grid          0.98 Mb     (   64000)
        Each G-vector array             0.16 Mb     (   20539)
        G-vector shells                 0.00 Mb     (     246)
     Largest temporary arrays     est. size (Mb)     dimensions
        Auxiliary wavefunctions         0.34 Mb     (     941,   24)
        Each subspace H/S matrix        0.01 Mb     (      24,   24)
        Each <psi_i|beta_j> matrix      0.00 Mb     (       9,    6)

     The potential is recalculated from file :
     ./tmp/_ph0/li-fcc.save/charge-density.dat

     Starting wfc are    5 atomic +    1 random wfc

     Band Structure Calculation
     Davidson diagonalization with overlap

     ethr =  3.33E-10,  avg # of iterations = 15.1

     total cpu time spent up to now is       28.2 secs

     End of band structure calculation

     Number of k-points >= 100: set verbosity='high' to print the bands.

     the Fermi energy is     1.4865 ev

                                                                                

     bravais-lattice index     =            2
     lattice parameter (alat)  =       7.7429  a.u.
     unit-cell volume          =     116.0512 (a.u.)^3
     number of atoms/cell      =            1
     number of atomic types    =            1
     kinetic-energy cut-off    =      60.0000  Ry
     charge density cut-off    =     480.0000  Ry
     convergence threshold     =      1.0E-16
     beta                      =       0.7000
     number of iterations used =            4
     Exchange-correlation      =  SLA  PW   PBX  PBC ( 1  4  3  4 0 0)


     celldm(1)=    7.74289  celldm(2)=    0.00000  celldm(3)=    0.00000
     celldm(4)=    0.00000  celldm(5)=    0.00000  celldm(6)=    0.00000

     crystal axes: (cart. coord. in units of alat)
               a(1) = ( -0.5000  0.0000  0.5000 )  
               a(2) = (  0.0000  0.5000  0.5000 )  
               a(3) = ( -0.5000  0.5000  0.0000 )  

     reciprocal axes: (cart. coord. in units 2 pi/alat)
               b(1) = ( -1.0000 -1.0000  1.0000 )  
               b(2) = (  1.0000  1.0000  1.0000 )  
               b(3) = ( -1.0000  1.0000 -1.0000 )  


     Atoms inside the unit cell: 

     Cartesian axes

     site n.  atom      mass           positions (alat units)
        1     Li   6.9410   tau(    1) = (    0.00000    0.00000    0.00000  )

     Computing dynamical matrix for 
                    q = (  -0.3750000   0.3750000  -0.3750000 )
 
      6 Sym.Ops. (no q -> -q+G )


     G cutoff =  728.9337  (  20539 G-vectors)     FFT grid: ( 40, 40, 40)
     G cutoff =  364.4668  (   7391 G-vectors)  smooth grid: ( 27, 27, 27)

     number of k points= 30856  Marzari-Vanderbilt smearing, width (Ry)=  0.0200

     PseudoPot. # 1 for Li read from file:
     ../Li.pbe-s-gbrv14.UPF
     MD5 check sum: 7ca33c4f951f001da2db5c8738379802
     Pseudo is Ultrasoft, Zval =  3.0
     Generated by new atomic code, or converted to UPF format
     Using radial grid of  751 points,  5 beta functions with: 
                l(1) =   0
                l(2) =   0
                l(3) =   0
                l(4) =   1
                l(5) =   1
     Q(r) pseudized with 10 coefficients,  rinner =    1.150   1.150   1.150


     Mode symmetry, C_3v (3m)   point group:


     Atomic displacements:
     There are   2 irreducible representations

     Representation     1      1 modes -A_1  L_1  To be done

     Representation     2      2 modes -E    L_3  To be done



     Alpha used in Ewald sum =   2.8000
     PHONON       :  2m39.49s CPU     3m 2.69s WALL



     Representation #  1 mode #   1

     Self-consistent Calculation

      iter #   1 total cpu time :   183.8 secs   av.it.:   6.5
      thresh= 1.000E-02 alpha_mix =  0.700 |ddv_scf|^2 =  7.599E-05

      iter #   2 total cpu time :   184.9 secs   av.it.:   8.5
      thresh= 8.717E-04 alpha_mix =  0.700 |ddv_scf|^2 =  2.791E-04

      iter #   3 total cpu time :   186.0 secs   av.it.:   7.0
      thresh= 1.671E-03 alpha_mix =  0.700 |ddv_scf|^2 =  6.105E-08

      iter #   4 total cpu time :   187.1 secs   av.it.:   8.7
      thresh= 2.471E-05 alpha_mix =  0.700 |ddv_scf|^2 =  3.355E-09

      iter #   5 total cpu time :   188.2 secs   av.it.:   8.8
      thresh= 5.792E-06 alpha_mix =  0.700 |ddv_scf|^2 =  3.732E-12

      iter #   6 total cpu time :   190.0 secs   av.it.:   9.1
      thresh= 1.932E-07 alpha_mix =  0.700 |ddv_scf|^2 =  2.097E-13

      iter #   7 total cpu time :   191.6 secs   av.it.:   9.0
      thresh= 4.579E-08 alpha_mix =  0.700 |ddv_scf|^2 =  1.008E-15

      iter #   8 total cpu time :   193.9 secs   av.it.:   9.5
      thresh= 3.176E-09 alpha_mix =  0.700 |ddv_scf|^2 =  6.253E-16

      iter #   9 total cpu time :   195.9 secs   av.it.:   8.5
      thresh= 2.501E-09 alpha_mix =  0.700 |ddv_scf|^2 =  8.152E-18

     End of self-consistent calculation

     Convergence has been achieved 


     Representation #  2 modes #   2  3

     Self-consistent Calculation

      iter #   1 total cpu time :   204.0 secs   av.it.:   5.6
      thresh= 1.000E-02 alpha_mix =  0.700 |ddv_scf|^2 =  2.954E-07

      iter #   2 total cpu time :   206.3 secs   av.it.:   9.5
      thresh= 5.435E-05 alpha_mix =  0.700 |ddv_scf|^2 =  1.778E-08

      iter #   3 total cpu time :   209.2 secs   av.it.:   9.7
      thresh= 1.333E-05 alpha_mix =  0.700 |ddv_scf|^2 =  1.404E-10

      iter #   4 total cpu time :   215.0 secs   av.it.:   9.1
      thresh= 1.185E-06 alpha_mix =  0.700 |ddv_scf|^2 =  2.345E-13

      iter #   5 total cpu time :   228.6 secs   av.it.:   9.1
      thresh= 4.842E-08 alpha_mix =  0.700 |ddv_scf|^2 =  4.431E-15

      iter #   6 total cpu time :   230.5 secs   av.it.:   7.8
      thresh= 6.656E-09 alpha_mix =  0.700 |ddv_scf|^2 =  1.262E-18

     End of self-consistent calculation

     Convergence has been achieved 
 
     Number of q in the star =    8
     List of q in the star:
          1  -0.375000000   0.375000000  -0.375000000
          2   0.375000000  -0.375000000  -0.375000000
          3   0.375000000  -0.375000000   0.375000000
          4  -0.375000000   0.375000000   0.375000000
          5   0.375000000   0.375000000  -0.375000000
          6  -0.375000000  -0.375000000  -0.375000000
          7  -0.375000000  -0.375000000   0.375000000
          8   0.375000000   0.375000000   0.375000000

     Diagonalizing the dynamical matrix

     q = (   -0.375000000   0.375000000  -0.375000000 ) 

 **************************************************************************
     freq (    1) =       3.695831 [THz] =     123.279639 [cm-1]
     freq (    2) =       3.695831 [THz] =     123.279639 [cm-1]
     freq (    3) =      10.783619 [THz] =     359.702817 [cm-1]
 **************************************************************************

     Mode symmetry, C_3v (3m)   point group:

     freq (  1 -  2) =        123.3  [cm-1]   --> E    L_3           
     freq (  3 -  3) =        359.7  [cm-1]   --> A_1  L_1           

     Calculation of q =    0.5000000  -0.5000000   0.5000000
 
     G-vector sticks info
     --------------------
     sticks:   dense  smooth     PW     G-vecs:    dense   smooth      PW
     Sum        1003     499    199                20539     7391    1807
 


     bravais-lattice index     =            2
     lattice parameter (alat)  =       7.7429  a.u.
     unit-cell volume          =     116.0512 (a.u.)^3
     number of atoms/cell      =            1
     number of atomic types    =            1
     number of electrons       =         3.00
     number of Kohn-Sham states=            6
     kinetic-energy cutoff     =      60.0000  Ry
     charge density cutoff     =     480.0000  Ry
     Exchange-correlation      =  SLA  PW   PBX  PBC ( 1  4  3  4 0 0)

     celldm(1)=   7.742893  celldm(2)=   0.000000  celldm(3)=   0.000000
     celldm(4)=   0.000000  celldm(5)=   0.000000  celldm(6)=   0.000000

     crystal axes: (cart. coord. in units of alat)
               a(1) = (  -0.500000   0.000000   0.500000 )  
               a(2) = (   0.000000   0.500000   0.500000 )  
               a(3) = (  -0.500000   0.500000   0.000000 )  

     reciprocal axes: (cart. coord. in units 2 pi/alat)
               b(1) = ( -1.000000 -1.000000  1.000000 )  
               b(2) = (  1.000000  1.000000  1.000000 )  
               b(3) = ( -1.000000  1.000000 -1.000000 )  


     PseudoPot. # 1 for Li read from file:
     ../Li.pbe-s-gbrv14.UPF
     MD5 check sum: 7ca33c4f951f001da2db5c8738379802
     Pseudo is Ultrasoft, Zval =  3.0
     Generated by new atomic code, or converted to UPF format
     Using radial grid of  751 points,  5 beta functions with: 
                l(1) =   0
                l(2) =   0
                l(3) =   0
                l(4) =   1
                l(5) =   1
     Q(r) pseudized with 10 coefficients,  rinner =    1.150   1.150   1.150


     atomic species   valence    mass     pseudopotential
        Li             3.00     6.94100     Li( 1.00)

     48 Sym. Ops., with inversion, found



   Cartesian axes

     site n.     atom                  positions (alat units)
         1           Li  tau(   1) = (   0.0000000   0.0000000   0.0000000  )

     number of k points= 15428  Marzari-Vanderbilt smearing, width (Ry)=  0.0200

     Number of k-points >= 100: set verbosity='high' to print them.

     Dense  grid:    20539 G-vectors     FFT dimensions: (  40,  40,  40)

     Smooth grid:     7391 G-vectors     FFT dimensions: (  27,  27,  27)

     Largest allocated arrays     est. size (Mb)     dimensions
        Kohn-Sham Wavefunctions         0.09 Mb     (     934,    6)
        NL pseudopotentials             0.13 Mb     (     934,    9)
        Each V/rho on FFT grid          0.98 Mb     (   64000)
        Each G-vector array             0.16 Mb     (   20539)
        G-vector shells                 0.00 Mb     (     246)
     Largest temporary arrays     est. size (Mb)     dimensions
        Auxiliary wavefunctions         0.34 Mb     (     934,   24)
        Each subspace H/S matrix        0.01 Mb     (      24,   24)
        Each <psi_i|beta_j> matrix      0.00 Mb     (       9,    6)

     The potential is recalculated from file :
     ./tmp/_ph0/li-fcc.save/charge-density.dat

     Starting wfc are    5 atomic +    1 random wfc

     Band Structure Calculation
     Davidson diagonalization with overlap

     ethr =  3.33E-10,  avg # of iterations = 15.1

     total cpu time spent up to now is       33.5 secs

     End of band structure calculation

     Number of k-points >= 100: set verbosity='high' to print the bands.

     the Fermi energy is     1.4865 ev

                                                                                

     bravais-lattice index     =            2
     lattice parameter (alat)  =       7.7429  a.u.
     unit-cell volume          =     116.0512 (a.u.)^3
     number of atoms/cell      =            1
     number of atomic types    =            1
     kinetic-energy cut-off    =      60.0000  Ry
     charge density cut-off    =     480.0000  Ry
     convergence threshold     =      1.0E-16
     beta                      =       0.7000
     number of iterations used =            4
     Exchange-correlation      =  SLA  PW   PBX  PBC ( 1  4  3  4 0 0)


     celldm(1)=    7.74289  celldm(2)=    0.00000  celldm(3)=    0.00000
     celldm(4)=    0.00000  celldm(5)=    0.00000  celldm(6)=    0.00000

     crystal axes: (cart. coord. in units of alat)
               a(1) = ( -0.5000  0.0000  0.5000 )  
               a(2) = (  0.0000  0.5000  0.5000 )  
               a(3) = ( -0.5000  0.5000  0.0000 )  

     reciprocal axes: (cart. coord. in units 2 pi/alat)
               b(1) = ( -1.0000 -1.0000  1.0000 )  
               b(2) = (  1.0000  1.0000  1.0000 )  
               b(3) = ( -1.0000  1.0000 -1.0000 )  


     Atoms inside the unit cell: 

     Cartesian axes

     site n.  atom      mass           positions (alat units)
        1     Li   6.9410   tau(    1) = (    0.00000    0.00000    0.00000  )

     Computing dynamical matrix for 
                    q = (   0.5000000  -0.5000000   0.5000000 )
 
     13 Sym.Ops. (with q -> -q+G )


     G cutoff =  728.9337  (  20539 G-vectors)     FFT grid: ( 40, 40, 40)
     G cutoff =  364.4668  (   7391 G-vectors)  smooth grid: ( 27, 27, 27)

     number of k points= 15428  Marzari-Vanderbilt smearing, width (Ry)=  0.0200

     PseudoPot. # 1 for Li read from file:
     ../Li.pbe-s-gbrv14.UPF
     MD5 check sum: 7ca33c4f951f001da2db5c8738379802
     Pseudo is Ultrasoft, Zval =  3.0
     Generated by new atomic code, or converted to UPF format
     Using radial grid of  751 points,  5 beta functions with: 
                l(1) =   0
                l(2) =   0
                l(3) =   0
                l(4) =   1
                l(5) =   1
     Q(r) pseudized with 10 coefficients,  rinner =    1.150   1.150   1.150


     Mode symmetry, D_3d (-3m)  point group:


     Atomic displacements:
     There are   2 irreducible representations

     Representation     1      1 modes -A_2u L_2'  To be done

     Representation     2      2 modes -E_u  L_3'  To be done



     Alpha used in Ewald sum =   2.8000
     PHONON       :  3m47.27s CPU     4m12.16s WALL



     Representation #  1 mode #   1

     Self-consistent Calculation

      iter #   1 total cpu time :   252.8 secs   av.it.:   6.4
      thresh= 1.000E-02 alpha_mix =  0.700 |ddv_scf|^2 =  1.964E-05

      iter #   2 total cpu time :   253.5 secs   av.it.:   8.7
      thresh= 4.432E-04 alpha_mix =  0.700 |ddv_scf|^2 =  8.147E-06

      iter #   3 total cpu time :   254.1 secs   av.it.:   7.9
      thresh= 2.854E-04 alpha_mix =  0.700 |ddv_scf|^2 =  2.088E-08

      iter #   4 total cpu time :   254.7 secs   av.it.:   8.8
      thresh= 1.445E-05 alpha_mix =  0.700 |ddv_scf|^2 =  1.270E-11

      iter #   5 total cpu time :   256.3 secs   av.it.:   8.2
      thresh= 3.564E-07 alpha_mix =  0.700 |ddv_scf|^2 =  7.807E-13

      iter #   6 total cpu time :   256.9 secs   av.it.:   8.4
      thresh= 8.836E-08 alpha_mix =  0.700 |ddv_scf|^2 =  2.703E-15

      iter #   7 total cpu time :   257.8 secs   av.it.:   8.9
      thresh= 5.199E-09 alpha_mix =  0.700 |ddv_scf|^2 =  1.896E-18

     End of self-consistent calculation

     Convergence has been achieved 


     Representation #  2 modes #   2  3

     Self-consistent Calculation

      iter #   1 total cpu time :   261.0 secs   av.it.:   5.5
      thresh= 1.000E-02 alpha_mix =  0.700 |ddv_scf|^2 =  2.978E-07

      iter #   2 total cpu time :   262.5 secs   av.it.:   9.3
      thresh= 5.457E-05 alpha_mix =  0.700 |ddv_scf|^2 =  1.788E-08

      iter #   3 total cpu time :   264.2 secs   av.it.:   9.6
      thresh= 1.337E-05 alpha_mix =  0.700 |ddv_scf|^2 =  1.446E-10

      iter #   4 total cpu time :   266.2 secs   av.it.:   8.9
      thresh= 1.202E-06 alpha_mix =  0.700 |ddv_scf|^2 =  2.357E-13

      iter #   5 total cpu time :   267.4 secs   av.it.:   8.9
      thresh= 4.854E-08 alpha_mix =  0.700 |ddv_scf|^2 =  4.320E-15

      iter #   6 total cpu time :   268.4 secs   av.it.:   7.5
      thresh= 6.573E-09 alpha_mix =  0.700 |ddv_scf|^2 =  9.288E-19

     End of self-consistent calculation

     Convergence has been achieved 
 
     Number of q in the star =    4
     List of q in the star:
          1   0.500000000  -0.500000000   0.500000000
          2   0.500000000   0.500000000   0.500000000
          3  -0.500000000   0.500000000   0.500000000
          4   0.500000000   0.500000000  -0.500000000

     Diagonalizing the dynamical matrix

     q = (    0.500000000  -0.500000000   0.500000000 ) 

 **************************************************************************
     freq (    1) =       4.071083 [THz] =     135.796701 [cm-1]
     freq (    2) =       4.071083 [THz] =     135.796701 [cm-1]
     freq (    3) =      11.640313 [THz] =     388.279058 [cm-1]
 **************************************************************************

     Mode symmetry, D_3d (-3m)  point group:

     freq (  1 -  2) =        135.8  [cm-1]   --> E_u  L_3'          
     freq (  3 -  3) =        388.3  [cm-1]   --> A_2u L_2'          

     Calculation of q =    0.0000000   0.2500000   0.0000000
 
     G-vector sticks info
     --------------------
     sticks:   dense  smooth     PW     G-vecs:    dense   smooth      PW
     Sum        1003     499    169                20539     7391    1471
 


     bravais-lattice index     =            2
     lattice parameter (alat)  =       7.7429  a.u.
     unit-cell volume          =     116.0512 (a.u.)^3
     number of atoms/cell      =            1
     number of atomic types    =            1
     number of electrons       =         3.00
     number of Kohn-Sham states=            6
     kinetic-energy cutoff     =      60.0000  Ry
     charge density cutoff     =     480.0000  Ry
     Exchange-correlation      =  SLA  PW   PBX  PBC ( 1  4  3  4 0 0)

     celldm(1)=   7.742893  celldm(2)=   0.000000  celldm(3)=   0.000000
     celldm(4)=   0.000000  celldm(5)=   0.000000  celldm(6)=   0.000000

     crystal axes: (cart. coord. in units of alat)
               a(1) = (  -0.500000   0.000000   0.500000 )  
               a(2) = (   0.000000   0.500000   0.500000 )  
               a(3) = (  -0.500000   0.500000   0.000000 )  

     reciprocal axes: (cart. coord. in units 2 pi/alat)
               b(1) = ( -1.000000 -1.000000  1.000000 )  
               b(2) = (  1.000000  1.000000  1.000000 )  
               b(3) = ( -1.000000  1.000000 -1.000000 )  


     PseudoPot. # 1 for Li read from file:
     ../Li.pbe-s-gbrv14.UPF
     MD5 check sum: 7ca33c4f951f001da2db5c8738379802
     Pseudo is Ultrasoft, Zval =  3.0
     Generated by new atomic code, or converted to UPF format
     Using radial grid of  751 points,  5 beta functions with: 
                l(1) =   0
                l(2) =   0
                l(3) =   0
                l(4) =   1
                l(5) =   1
     Q(r) pseudized with 10 coefficients,  rinner =    1.150   1.150   1.150


     atomic species   valence    mass     pseudopotential
        Li             3.00     6.94100     Li( 1.00)

     48 Sym. Ops., with inversion, found



   Cartesian axes

     site n.     atom                  positions (alat units)
         1           Li  tau(   1) = (   0.0000000   0.0000000   0.0000000  )

     number of k points= 22736  Marzari-Vanderbilt smearing, width (Ry)=  0.0200

     Number of k-points >= 100: set verbosity='high' to print them.

     Dense  grid:    20539 G-vectors     FFT dimensions: (  40,  40,  40)

     Smooth grid:     7391 G-vectors     FFT dimensions: (  27,  27,  27)

     Largest allocated arrays     est. size (Mb)     dimensions
        Kohn-Sham Wavefunctions         0.09 Mb     (     934,    6)
        NL pseudopotentials             0.13 Mb     (     934,    9)
        Each V/rho on FFT grid          0.98 Mb     (   64000)
        Each G-vector array             0.16 Mb     (   20539)
        G-vector shells                 0.00 Mb     (     246)
     Largest temporary arrays     est. size (Mb)     dimensions
        Auxiliary wavefunctions         0.34 Mb     (     934,   24)
        Each subspace H/S matrix        0.01 Mb     (      24,   24)
        Each <psi_i|beta_j> matrix      0.00 Mb     (       9,    6)

     The potential is recalculated from file :
     ./tmp/_ph0/li-fcc.save/charge-density.dat

     Starting wfc are    5 atomic +    1 random wfc

     Band Structure Calculation
     Davidson diagonalization with overlap

     ethr =  3.33E-10,  avg # of iterations = 15.1

     total cpu time spent up to now is       49.2 secs

     End of band structure calculation

     Number of k-points >= 100: set verbosity='high' to print the bands.

     the Fermi energy is     1.4865 ev

                                                                                

     bravais-lattice index     =            2
     lattice parameter (alat)  =       7.7429  a.u.
     unit-cell volume          =     116.0512 (a.u.)^3
     number of atoms/cell      =            1
     number of atomic types    =            1
     kinetic-energy cut-off    =      60.0000  Ry
     charge density cut-off    =     480.0000  Ry
     convergence threshold     =      1.0E-16
     beta                      =       0.7000
     number of iterations used =            4
     Exchange-correlation      =  SLA  PW   PBX  PBC ( 1  4  3  4 0 0)


     celldm(1)=    7.74289  celldm(2)=    0.00000  celldm(3)=    0.00000
     celldm(4)=    0.00000  celldm(5)=    0.00000  celldm(6)=    0.00000

     crystal axes: (cart. coord. in units of alat)
               a(1) = ( -0.5000  0.0000  0.5000 )  
               a(2) = (  0.0000  0.5000  0.5000 )  
               a(3) = ( -0.5000  0.5000  0.0000 )  

     reciprocal axes: (cart. coord. in units 2 pi/alat)
               b(1) = ( -1.0000 -1.0000  1.0000 )  
               b(2) = (  1.0000  1.0000  1.0000 )  
               b(3) = ( -1.0000  1.0000 -1.0000 )  


     Atoms inside the unit cell: 

     Cartesian axes

     site n.  atom      mass           positions (alat units)
        1     Li   6.9410   tau(    1) = (    0.00000    0.00000    0.00000  )

     Computing dynamical matrix for 
                    q = (   0.0000000   0.2500000   0.0000000 )
 
      8 Sym.Ops. (no q -> -q+G )


     G cutoff =  728.9337  (  20539 G-vectors)     FFT grid: ( 40, 40, 40)
     G cutoff =  364.4668  (   7391 G-vectors)  smooth grid: ( 27, 27, 27)

     number of k points= 22736  Marzari-Vanderbilt smearing, width (Ry)=  0.0200

     PseudoPot. # 1 for Li read from file:
     ../Li.pbe-s-gbrv14.UPF
     MD5 check sum: 7ca33c4f951f001da2db5c8738379802
     Pseudo is Ultrasoft, Zval =  3.0
     Generated by new atomic code, or converted to UPF format
     Using radial grid of  751 points,  5 beta functions with: 
                l(1) =   0
                l(2) =   0
                l(3) =   0
                l(4) =   1
                l(5) =   1
     Q(r) pseudized with 10 coefficients,  rinner =    1.150   1.150   1.150


     Mode symmetry, C_4v (4mm)  point group:


     Atomic displacements:
     There are   2 irreducible representations

     Representation     1      1 modes -A_1  G_1 D_1  To be done

     Representation     2      2 modes -E    G_5 D_5  To be done



     Alpha used in Ewald sum =   2.8000
     PHONON       :  4m11.15s CPU     4m39.29s WALL



     Representation #  1 mode #   1

     Self-consistent Calculation

      iter #   1 total cpu time :   280.1 secs   av.it.:   6.5
      thresh= 1.000E-02 alpha_mix =  0.700 |ddv_scf|^2 =  4.158E-02

      iter #   2 total cpu time :   281.1 secs   av.it.:   7.8
      thresh= 1.000E-02 alpha_mix =  0.700 |ddv_scf|^2 =  2.028E+01

      iter #   3 total cpu time :   281.9 secs   av.it.:   7.8
      thresh= 1.000E-02 alpha_mix =  0.700 |ddv_scf|^2 =  8.312E-05

      iter #   4 total cpu time :   282.6 secs   av.it.:   6.0
      thresh= 9.117E-04 alpha_mix =  0.700 |ddv_scf|^2 =  3.121E-08

      iter #   5 total cpu time :   283.4 secs   av.it.:   8.5
      thresh= 1.767E-05 alpha_mix =  0.700 |ddv_scf|^2 =  1.388E-10

      iter #   6 total cpu time :   284.8 secs   av.it.:   8.4
      thresh= 1.178E-06 alpha_mix =  0.700 |ddv_scf|^2 =  1.960E-11

      iter #   7 total cpu time :   285.6 secs   av.it.:   8.0
      thresh= 4.428E-07 alpha_mix =  0.700 |ddv_scf|^2 =  1.458E-09

      iter #   8 total cpu time :   286.4 secs   av.it.:   4.9
      thresh= 3.818E-06 alpha_mix =  0.700 |ddv_scf|^2 =  7.975E-14

      iter #   9 total cpu time :   287.2 secs   av.it.:   8.1
      thresh= 2.824E-08 alpha_mix =  0.700 |ddv_scf|^2 =  1.536E-15

      iter #  10 total cpu time :   288.0 secs   av.it.:   8.4
      thresh= 3.920E-09 alpha_mix =  0.700 |ddv_scf|^2 =  2.475E-15

      iter #  11 total cpu time :   288.7 secs   av.it.:   6.0
      thresh= 4.975E-09 alpha_mix =  0.700 |ddv_scf|^2 =  2.059E-17

     End of self-consistent calculation

     Convergence has been achieved 


     Representation #  2 modes #   2  3

     Self-consistent Calculation

      iter #   1 total cpu time :   292.0 secs   av.it.:   5.5
      thresh= 1.000E-02 alpha_mix =  0.700 |ddv_scf|^2 =  2.911E-07

      iter #   2 total cpu time :   295.4 secs   av.it.:   9.3
      thresh= 5.395E-05 alpha_mix =  0.700 |ddv_scf|^2 =  1.750E-08

      iter #   3 total cpu time :   297.8 secs   av.it.:   9.5
      thresh= 1.323E-05 alpha_mix =  0.700 |ddv_scf|^2 =  1.428E-10

      iter #   4 total cpu time :   307.7 secs   av.it.:   8.9
      thresh= 1.195E-06 alpha_mix =  0.700 |ddv_scf|^2 =  2.103E-13

      iter #   5 total cpu time :   311.1 secs   av.it.:   8.8
      thresh= 4.586E-08 alpha_mix =  0.700 |ddv_scf|^2 =  4.423E-15

      iter #   6 total cpu time :   314.4 secs   av.it.:   8.2
      thresh= 6.650E-09 alpha_mix =  0.700 |ddv_scf|^2 =  1.921E-18

     End of self-consistent calculation

     Convergence has been achieved 
 
     Number of q in the star =    6
     List of q in the star:
          1   0.000000000   0.250000000   0.000000000
          2   0.000000000  -0.250000000   0.000000000
          3   0.250000000   0.000000000   0.000000000
          4   0.000000000   0.000000000   0.250000000
          5   0.000000000   0.000000000  -0.250000000
          6  -0.250000000   0.000000000   0.000000000

     Diagonalizing the dynamical matrix

     q = (    0.000000000   0.250000000   0.000000000 ) 

 **************************************************************************
     freq (    1) =       2.544923 [THz] =      84.889494 [cm-1]
     freq (    2) =       2.544923 [THz] =      84.889494 [cm-1]
     freq (    3) =       3.787887 [THz] =     126.350298 [cm-1]
 **************************************************************************

     Mode symmetry, C_4v (4mm)  point group:

     freq (  1 -  2) =         84.9  [cm-1]   --> E    G_5 D_5       
     freq (  3 -  3) =        126.4  [cm-1]   --> A_1  G_1 D_1       

     Calculation of q =   -0.1250000   0.3750000  -0.1250000
 
     G-vector sticks info
     --------------------
     sticks:   dense  smooth     PW     G-vecs:    dense   smooth      PW
     Sum        1003     499    187                20539     7391    1639
 


     bravais-lattice index     =            2
     lattice parameter (alat)  =       7.7429  a.u.
     unit-cell volume          =     116.0512 (a.u.)^3
     number of atoms/cell      =            1
     number of atomic types    =            1
     number of electrons       =         3.00
     number of Kohn-Sham states=            6
     kinetic-energy cutoff     =      60.0000  Ry
     charge density cutoff     =     480.0000  Ry
     Exchange-correlation      =  SLA  PW   PBX  PBC ( 1  4  3  4 0 0)

     celldm(1)=   7.742893  celldm(2)=   0.000000  celldm(3)=   0.000000
     celldm(4)=   0.000000  celldm(5)=   0.000000  celldm(6)=   0.000000

     crystal axes: (cart. coord. in units of alat)
               a(1) = (  -0.500000   0.000000   0.500000 )  
               a(2) = (   0.000000   0.500000   0.500000 )  
               a(3) = (  -0.500000   0.500000   0.000000 )  

     reciprocal axes: (cart. coord. in units 2 pi/alat)
               b(1) = ( -1.000000 -1.000000  1.000000 )  
               b(2) = (  1.000000  1.000000  1.000000 )  
               b(3) = ( -1.000000  1.000000 -1.000000 )  


     PseudoPot. # 1 for Li read from file:
     ../Li.pbe-s-gbrv14.UPF
     MD5 check sum: 7ca33c4f951f001da2db5c8738379802
     Pseudo is Ultrasoft, Zval =  3.0
     Generated by new atomic code, or converted to UPF format
     Using radial grid of  751 points,  5 beta functions with: 
                l(1) =   0
                l(2) =   0
                l(3) =   0
                l(4) =   1
                l(5) =   1
     Q(r) pseudized with 10 coefficients,  rinner =    1.150   1.150   1.150


     atomic species   valence    mass     pseudopotential
        Li             3.00     6.94100     Li( 1.00)

     48 Sym. Ops., with inversion, found



   Cartesian axes

     site n.     atom                  positions (alat units)
         1           Li  tau(   1) = (   0.0000000   0.0000000   0.0000000  )

     number of k points= 89376  Marzari-Vanderbilt smearing, width (Ry)=  0.0200

     Number of k-points >= 100: set verbosity='high' to print them.

     Dense  grid:    20539 G-vectors     FFT dimensions: (  40,  40,  40)

     Smooth grid:     7391 G-vectors     FFT dimensions: (  27,  27,  27)

     Largest allocated arrays     est. size (Mb)     dimensions
        Kohn-Sham Wavefunctions         0.09 Mb     (     941,    6)
        NL pseudopotentials             0.13 Mb     (     941,    9)
        Each V/rho on FFT grid          0.98 Mb     (   64000)
        Each G-vector array             0.16 Mb     (   20539)
        G-vector shells                 0.00 Mb     (     246)
     Largest temporary arrays     est. size (Mb)     dimensions
        Auxiliary wavefunctions         0.34 Mb     (     941,   24)
        Each subspace H/S matrix        0.01 Mb     (      24,   24)
        Each <psi_i|beta_j> matrix      0.00 Mb     (       9,    6)

     The potential is recalculated from file :
     ./tmp/_ph0/li-fcc.save/charge-density.dat

     Starting wfc are    5 atomic +    1 random wfc

     Band Structure Calculation
     Davidson diagonalization with overlap

     ethr =  3.33E-10,  avg # of iterations = 15.1

     total cpu time spent up to now is       72.9 secs

     End of band structure calculation

     Number of k-points >= 100: set verbosity='high' to print the bands.

     the Fermi energy is     1.4865 ev

                                                                                

     bravais-lattice index     =            2
     lattice parameter (alat)  =       7.7429  a.u.
     unit-cell volume          =     116.0512 (a.u.)^3
     number of atoms/cell      =            1
     number of atomic types    =            1
     kinetic-energy cut-off    =      60.0000  Ry
     charge density cut-off    =     480.0000  Ry
     convergence threshold     =      1.0E-16
     beta                      =       0.7000
     number of iterations used =            4
     Exchange-correlation      =  SLA  PW   PBX  PBC ( 1  4  3  4 0 0)


     celldm(1)=    7.74289  celldm(2)=    0.00000  celldm(3)=    0.00000
     celldm(4)=    0.00000  celldm(5)=    0.00000  celldm(6)=    0.00000

     crystal axes: (cart. coord. in units of alat)
               a(1) = ( -0.5000  0.0000  0.5000 )  
               a(2) = (  0.0000  0.5000  0.5000 )  
               a(3) = ( -0.5000  0.5000  0.0000 )  

     reciprocal axes: (cart. coord. in units 2 pi/alat)
               b(1) = ( -1.0000 -1.0000  1.0000 )  
               b(2) = (  1.0000  1.0000  1.0000 )  
               b(3) = ( -1.0000  1.0000 -1.0000 )  


     Atoms inside the unit cell: 

     Cartesian axes

     site n.  atom      mass           positions (alat units)
        1     Li   6.9410   tau(    1) = (    0.00000    0.00000    0.00000  )

     Computing dynamical matrix for 
                    q = (  -0.1250000   0.3750000  -0.1250000 )
 
      2 Sym.Ops. (no q -> -q+G )


     G cutoff =  728.9337  (  20539 G-vectors)     FFT grid: ( 40, 40, 40)
     G cutoff =  364.4668  (   7391 G-vectors)  smooth grid: ( 27, 27, 27)

     number of k points= 89376  Marzari-Vanderbilt smearing, width (Ry)=  0.0200

     PseudoPot. # 1 for Li read from file:
     ../Li.pbe-s-gbrv14.UPF
     MD5 check sum: 7ca33c4f951f001da2db5c8738379802
     Pseudo is Ultrasoft, Zval =  3.0
     Generated by new atomic code, or converted to UPF format
     Using radial grid of  751 points,  5 beta functions with: 
                l(1) =   0
                l(2) =   0
                l(3) =   0
                l(4) =   1
                l(5) =   1
     Q(r) pseudized with 10 coefficients,  rinner =    1.150   1.150   1.150


     Mode symmetry, C_s (m)     point group:


     Atomic displacements:
     There are   3 irreducible representations

     Representation     1      1 modes -A'  To be done

     Representation     2      1 modes -A'  To be done

     Representation     3      1 modes -A''  To be done



     Alpha used in Ewald sum =   2.8000
     PHONON       :  5m 8.65s CPU     5m51.20s WALL



     Representation #  1 mode #   1

     Self-consistent Calculation

      iter #   1 total cpu time :   353.9 secs   av.it.:   6.5
      thresh= 1.000E-02 alpha_mix =  0.700 |ddv_scf|^2 =  1.377E-03

      iter #   2 total cpu time :   357.6 secs   av.it.:   7.8
      thresh= 3.711E-03 alpha_mix =  0.700 |ddv_scf|^2 =  6.368E-02

      iter #   3 total cpu time :   360.1 secs   av.it.:   6.5
      thresh= 1.000E-02 alpha_mix =  0.700 |ddv_scf|^2 =  1.002E-07

      iter #   4 total cpu time :   363.5 secs   av.it.:   9.0
      thresh= 3.166E-05 alpha_mix =  0.700 |ddv_scf|^2 =  6.210E-09

      iter #   5 total cpu time :   367.6 secs   av.it.:   9.0
      thresh= 7.880E-06 alpha_mix =  0.700 |ddv_scf|^2 =  9.767E-11

      iter #   6 total cpu time :   371.2 secs   av.it.:   8.6
      thresh= 9.883E-07 alpha_mix =  0.700 |ddv_scf|^2 =  1.924E-12

      iter #   7 total cpu time :   373.9 secs   av.it.:   8.1
      thresh= 1.387E-07 alpha_mix =  0.700 |ddv_scf|^2 =  1.875E-11

      iter #   8 total cpu time :   376.2 secs   av.it.:   6.6
      thresh= 4.330E-07 alpha_mix =  0.700 |ddv_scf|^2 =  3.069E-14

      iter #   9 total cpu time :   379.0 secs   av.it.:   9.0
      thresh= 1.752E-08 alpha_mix =  0.700 |ddv_scf|^2 =  1.010E-15

      iter #  10 total cpu time :   381.6 secs   av.it.:   8.2
      thresh= 3.178E-09 alpha_mix =  0.700 |ddv_scf|^2 =  9.567E-16

      iter #  11 total cpu time :   384.7 secs   av.it.:   7.2
      thresh= 3.093E-09 alpha_mix =  0.700 |ddv_scf|^2 =  2.004E-18

     End of self-consistent calculation

     Convergence has been achieved 


     Representation #  2 mode #   2

     Self-consistent Calculation

      iter #   1 total cpu time :   388.7 secs   av.it.:   6.2
      thresh= 1.000E-02 alpha_mix =  0.700 |ddv_scf|^2 =  2.090E-04

      iter #   2 total cpu time :   391.7 secs   av.it.:   7.9
      thresh= 1.446E-03 alpha_mix =  0.700 |ddv_scf|^2 =  9.610E-03

      iter #   3 total cpu time :   393.9 secs   av.it.:   5.7
      thresh= 9.803E-03 alpha_mix =  0.700 |ddv_scf|^2 =  5.848E-08

      iter #   4 total cpu time :   396.8 secs   av.it.:   9.2
      thresh= 2.418E-05 alpha_mix =  0.700 |ddv_scf|^2 =  3.190E-09

      iter #   5 total cpu time :   399.6 secs   av.it.:   9.0
      thresh= 5.648E-06 alpha_mix =  0.700 |ddv_scf|^2 =  5.230E-11

      iter #   6 total cpu time :   404.0 secs   av.it.:   8.8
      thresh= 7.232E-07 alpha_mix =  0.700 |ddv_scf|^2 =  6.220E-13

      iter #   7 total cpu time :   407.8 secs   av.it.:   9.0
      thresh= 7.887E-08 alpha_mix =  0.700 |ddv_scf|^2 =  1.674E-11

      iter #   8 total cpu time :   418.0 secs   av.it.:   5.8
      thresh= 4.091E-07 alpha_mix =  0.700 |ddv_scf|^2 =  1.228E-12

      iter #   9 total cpu time :   420.7 secs   av.it.:   6.4
      thresh= 1.108E-07 alpha_mix =  0.700 |ddv_scf|^2 =  3.784E-13

      iter #  10 total cpu time :   427.0 secs   av.it.:   7.5
      thresh= 6.151E-08 alpha_mix =  0.700 |ddv_scf|^2 =  1.129E-16

      iter #  11 total cpu time :   430.6 secs   av.it.:   9.2
      thresh= 1.063E-09 alpha_mix =  0.700 |ddv_scf|^2 =  9.151E-18

     End of self-consistent calculation

     Convergence has been achieved 


     Representation #  3 mode #   3

     Self-consistent Calculation

      iter #   1 total cpu time :   433.8 secs   av.it.:   5.5
      thresh= 1.000E-02 alpha_mix =  0.700 |ddv_scf|^2 =  1.207E-06

      iter #   2 total cpu time :   437.2 secs   av.it.:   8.6
      thresh= 1.098E-04 alpha_mix =  0.700 |ddv_scf|^2 =  7.152E-08

      iter #   3 total cpu time :   440.6 secs   av.it.:   8.9
      thresh= 2.674E-05 alpha_mix =  0.700 |ddv_scf|^2 =  8.030E-10

      iter #   4 total cpu time :   443.2 secs   av.it.:   8.2
      thresh= 2.834E-06 alpha_mix =  0.700 |ddv_scf|^2 =  8.709E-13

      iter #   5 total cpu time :   451.6 secs   av.it.:   8.4
      thresh= 9.332E-08 alpha_mix =  0.700 |ddv_scf|^2 =  1.855E-14

      iter #   6 total cpu time :   455.2 secs   av.it.:   7.7
      thresh= 1.362E-08 alpha_mix =  0.700 |ddv_scf|^2 =  1.395E-17

     End of self-consistent calculation

     Convergence has been achieved 
 
     Number of q in the star =   24
     List of q in the star:
          1  -0.125000000   0.375000000  -0.125000000
          2  -0.125000000   0.375000000   0.125000000
          3   0.125000000   0.375000000  -0.125000000
          4   0.125000000   0.375000000   0.125000000
          5   0.125000000  -0.375000000   0.125000000
          6   0.375000000  -0.125000000   0.125000000
          7   0.125000000  -0.125000000   0.375000000
          8  -0.125000000  -0.375000000  -0.125000000
          9   0.125000000  -0.375000000  -0.125000000
         10  -0.125000000  -0.375000000   0.125000000
         11   0.125000000  -0.125000000  -0.375000000
         12   0.375000000  -0.125000000  -0.125000000
         13  -0.375000000  -0.125000000   0.125000000
         14   0.375000000   0.125000000   0.125000000
         15  -0.125000000  -0.125000000   0.375000000
         16   0.125000000   0.125000000   0.375000000
         17  -0.375000000   0.125000000  -0.125000000
         18  -0.125000000   0.125000000  -0.375000000
         19  -0.375000000  -0.125000000  -0.125000000
         20   0.125000000   0.125000000  -0.375000000
         21   0.375000000   0.125000000  -0.125000000
         22  -0.125000000  -0.125000000  -0.375000000
         23  -0.375000000   0.125000000   0.125000000
         24  -0.125000000   0.125000000   0.375000000

     Diagonalizing the dynamical matrix

     q = (   -0.125000000   0.375000000  -0.125000000 ) 

 **************************************************************************
     freq (    1) =       3.699661 [THz] =     123.407413 [cm-1]
     freq (    2) =       3.821149 [THz] =     127.459795 [cm-1]
     freq (    3) =       7.059135 [THz] =     235.467414 [cm-1]
 **************************************************************************

     Mode symmetry, C_s (m)     point group:

     freq (  1 -  1) =        123.4  [cm-1]   --> A''                
     freq (  2 -  2) =        127.5  [cm-1]   --> A'                 
     freq (  3 -  3) =        235.5  [cm-1]   --> A'                 

     Calculation of q =   -0.2500000   0.5000000  -0.2500000
 
     G-vector sticks info
     --------------------
     sticks:   dense  smooth     PW     G-vecs:    dense   smooth      PW
     Sum        1003     499    187                20539     7391    1687
 


     bravais-lattice index     =            2
     lattice parameter (alat)  =       7.7429  a.u.
     unit-cell volume          =     116.0512 (a.u.)^3
     number of atoms/cell      =            1
     number of atomic types    =            1
     number of electrons       =         3.00
     number of Kohn-Sham states=            6
     kinetic-energy cutoff     =      60.0000  Ry
     charge density cutoff     =     480.0000  Ry
     Exchange-correlation      =  SLA  PW   PBX  PBC ( 1  4  3  4 0 0)

     celldm(1)=   7.742893  celldm(2)=   0.000000  celldm(3)=   0.000000
     celldm(4)=   0.000000  celldm(5)=   0.000000  celldm(6)=   0.000000

     crystal axes: (cart. coord. in units of alat)
               a(1) = (  -0.500000   0.000000   0.500000 )  
               a(2) = (   0.000000   0.500000   0.500000 )  
               a(3) = (  -0.500000   0.500000   0.000000 )  

     reciprocal axes: (cart. coord. in units 2 pi/alat)
               b(1) = ( -1.000000 -1.000000  1.000000 )  
               b(2) = (  1.000000  1.000000  1.000000 )  
               b(3) = ( -1.000000  1.000000 -1.000000 )  


     PseudoPot. # 1 for Li read from file:
     ../Li.pbe-s-gbrv14.UPF
     MD5 check sum: 7ca33c4f951f001da2db5c8738379802
     Pseudo is Ultrasoft, Zval =  3.0
     Generated by new atomic code, or converted to UPF format
     Using radial grid of  751 points,  5 beta functions with: 
                l(1) =   0
                l(2) =   0
                l(3) =   0
                l(4) =   1
                l(5) =   1
     Q(r) pseudized with 10 coefficients,  rinner =    1.150   1.150   1.150


     atomic species   valence    mass     pseudopotential
        Li             3.00     6.94100     Li( 1.00)

     48 Sym. Ops., with inversion, found



   Cartesian axes

     site n.     atom                  positions (alat units)
         1           Li  tau(   1) = (   0.0000000   0.0000000   0.0000000  )

     number of k points= 89376  Marzari-Vanderbilt smearing, width (Ry)=  0.0200

     Number of k-points >= 100: set verbosity='high' to print them.

     Dense  grid:    20539 G-vectors     FFT dimensions: (  40,  40,  40)

     Smooth grid:     7391 G-vectors     FFT dimensions: (  27,  27,  27)

     Largest allocated arrays     est. size (Mb)     dimensions
        Kohn-Sham Wavefunctions         0.09 Mb     (     934,    6)
        NL pseudopotentials             0.13 Mb     (     934,    9)
        Each V/rho on FFT grid          0.98 Mb     (   64000)
        Each G-vector array             0.16 Mb     (   20539)
        G-vector shells                 0.00 Mb     (     246)
     Largest temporary arrays     est. size (Mb)     dimensions
        Auxiliary wavefunctions         0.34 Mb     (     934,   24)
        Each subspace H/S matrix        0.01 Mb     (      24,   24)
        Each <psi_i|beta_j> matrix      0.00 Mb     (       9,    6)

     The potential is recalculated from file :
     ./tmp/_ph0/li-fcc.save/charge-density.dat

     Starting wfc are    5 atomic +    1 random wfc

     Band Structure Calculation
     Davidson diagonalization with overlap

     ethr =  3.33E-10,  avg # of iterations = 15.1

     total cpu time spent up to now is       96.2 secs

     End of band structure calculation

     Number of k-points >= 100: set verbosity='high' to print the bands.

     the Fermi energy is     1.4865 ev

                                                                                

     bravais-lattice index     =            2
     lattice parameter (alat)  =       7.7429  a.u.
     unit-cell volume          =     116.0512 (a.u.)^3
     number of atoms/cell      =            1
     number of atomic types    =            1
     kinetic-energy cut-off    =      60.0000  Ry
     charge density cut-off    =     480.0000  Ry
     convergence threshold     =      1.0E-16
     beta                      =       0.7000
     number of iterations used =            4
     Exchange-correlation      =  SLA  PW   PBX  PBC ( 1  4  3  4 0 0)


     celldm(1)=    7.74289  celldm(2)=    0.00000  celldm(3)=    0.00000
     celldm(4)=    0.00000  celldm(5)=    0.00000  celldm(6)=    0.00000

     crystal axes: (cart. coord. in units of alat)
               a(1) = ( -0.5000  0.0000  0.5000 )  
               a(2) = (  0.0000  0.5000  0.5000 )  
               a(3) = ( -0.5000  0.5000  0.0000 )  

     reciprocal axes: (cart. coord. in units 2 pi/alat)
               b(1) = ( -1.0000 -1.0000  1.0000 )  
               b(2) = (  1.0000  1.0000  1.0000 )  
               b(3) = ( -1.0000  1.0000 -1.0000 )  


     Atoms inside the unit cell: 

     Cartesian axes

     site n.  atom      mass           positions (alat units)
        1     Li   6.9410   tau(    1) = (    0.00000    0.00000    0.00000  )

     Computing dynamical matrix for 
                    q = (  -0.2500000   0.5000000  -0.2500000 )
 
      2 Sym.Ops. (no q -> -q+G )


     G cutoff =  728.9337  (  20539 G-vectors)     FFT grid: ( 40, 40, 40)
     G cutoff =  364.4668  (   7391 G-vectors)  smooth grid: ( 27, 27, 27)

     number of k points= 89376  Marzari-Vanderbilt smearing, width (Ry)=  0.0200

     PseudoPot. # 1 for Li read from file:
     ../Li.pbe-s-gbrv14.UPF
     MD5 check sum: 7ca33c4f951f001da2db5c8738379802
     Pseudo is Ultrasoft, Zval =  3.0
     Generated by new atomic code, or converted to UPF format
     Using radial grid of  751 points,  5 beta functions with: 
                l(1) =   0
                l(2) =   0
                l(3) =   0
                l(4) =   1
                l(5) =   1
     Q(r) pseudized with 10 coefficients,  rinner =    1.150   1.150   1.150


     Mode symmetry, C_s (m)     point group:


     Atomic displacements:
     There are   3 irreducible representations

     Representation     1      1 modes -A'  To be done

     Representation     2      1 modes -A'  To be done

     Representation     3      1 modes -A''  To be done



     Alpha used in Ewald sum =   2.8000
     PHONON       :  7m24.45s CPU     8m18.97s WALL



     Representation #  1 mode #   1

     Self-consistent Calculation

      iter #   1 total cpu time :   501.7 secs   av.it.:   6.5
      thresh= 1.000E-02 alpha_mix =  0.700 |ddv_scf|^2 =  9.330E-05

      iter #   2 total cpu time :   505.7 secs   av.it.:   8.3
      thresh= 9.659E-04 alpha_mix =  0.700 |ddv_scf|^2 =  5.280E-04

      iter #   3 total cpu time :   509.4 secs   av.it.:   6.9
      thresh= 2.298E-03 alpha_mix =  0.700 |ddv_scf|^2 =  5.582E-08

      iter #   4 total cpu time :   512.8 secs   av.it.:   9.0
      thresh= 2.363E-05 alpha_mix =  0.700 |ddv_scf|^2 =  1.360E-09

      iter #   5 total cpu time :   519.6 secs   av.it.:   9.1
      thresh= 3.688E-06 alpha_mix =  0.700 |ddv_scf|^2 =  1.963E-11

      iter #   6 total cpu time :   524.2 secs   av.it.:   8.9
      thresh= 4.431E-07 alpha_mix =  0.700 |ddv_scf|^2 =  1.534E-13

      iter #   7 total cpu time :   528.0 secs   av.it.:   9.2
      thresh= 3.917E-08 alpha_mix =  0.700 |ddv_scf|^2 =  2.730E-13

      iter #   8 total cpu time :   531.9 secs   av.it.:   7.1
      thresh= 5.225E-08 alpha_mix =  0.700 |ddv_scf|^2 =  5.059E-15

      iter #   9 total cpu time :   534.8 secs   av.it.:   9.0
      thresh= 7.113E-09 alpha_mix =  0.700 |ddv_scf|^2 =  6.174E-17

     End of self-consistent calculation

     Convergence has been achieved 


     Representation #  2 mode #   2

     Self-consistent Calculation

      iter #   1 total cpu time :   539.6 secs   av.it.:   6.3
      thresh= 1.000E-02 alpha_mix =  0.700 |ddv_scf|^2 =  2.466E-05

      iter #   2 total cpu time :   542.8 secs   av.it.:   8.7
      thresh= 4.966E-04 alpha_mix =  0.700 |ddv_scf|^2 =  1.310E-04

      iter #   3 total cpu time :   546.5 secs   av.it.:   7.0
      thresh= 1.145E-03 alpha_mix =  0.700 |ddv_scf|^2 =  5.685E-08

      iter #   4 total cpu time :   549.4 secs   av.it.:   9.0
      thresh= 2.384E-05 alpha_mix =  0.700 |ddv_scf|^2 =  1.845E-09

      iter #   5 total cpu time :   552.5 secs   av.it.:   8.9
      thresh= 4.295E-06 alpha_mix =  0.700 |ddv_scf|^2 =  1.754E-11

      iter #   6 total cpu time :   556.4 secs   av.it.:   9.1
      thresh= 4.189E-07 alpha_mix =  0.700 |ddv_scf|^2 =  2.617E-13

      iter #   7 total cpu time :   560.0 secs   av.it.:   9.1
      thresh= 5.116E-08 alpha_mix =  0.700 |ddv_scf|^2 =  1.142E-12

      iter #   8 total cpu time :   562.5 secs   av.it.:   7.0
      thresh= 1.069E-07 alpha_mix =  0.700 |ddv_scf|^2 =  1.473E-14

      iter #   9 total cpu time :   565.4 secs   av.it.:   8.8
      thresh= 1.214E-08 alpha_mix =  0.700 |ddv_scf|^2 =  1.460E-14

      iter #  10 total cpu time :   569.0 secs   av.it.:   8.0
      thresh= 1.208E-08 alpha_mix =  0.700 |ddv_scf|^2 =  1.068E-17

     End of self-consistent calculation

     Convergence has been achieved 


     Representation #  3 mode #   3

     Self-consistent Calculation

      iter #   1 total cpu time :   573.6 secs   av.it.:   5.6
      thresh= 1.000E-02 alpha_mix =  0.700 |ddv_scf|^2 =  1.234E-06

      iter #   2 total cpu time :   583.6 secs   av.it.:   8.6
      thresh= 1.111E-04 alpha_mix =  0.700 |ddv_scf|^2 =  7.276E-08

      iter #   3 total cpu time :   590.9 secs   av.it.:   8.9
      thresh= 2.697E-05 alpha_mix =  0.700 |ddv_scf|^2 =  9.455E-10

      iter #   4 total cpu time :   594.5 secs   av.it.:   8.2
      thresh= 3.075E-06 alpha_mix =  0.700 |ddv_scf|^2 =  9.635E-13

      iter #   5 total cpu time :   604.9 secs   av.it.:   8.4
      thresh= 9.816E-08 alpha_mix =  0.700 |ddv_scf|^2 =  1.938E-14

      iter #   6 total cpu time :   608.6 secs   av.it.:   7.8
      thresh= 1.392E-08 alpha_mix =  0.700 |ddv_scf|^2 =  1.845E-17

     End of self-consistent calculation

     Convergence has been achieved 
 
     Number of q in the star =   24
     List of q in the star:
          1  -0.250000000   0.500000000  -0.250000000
          2  -0.250000000   0.500000000   0.250000000
          3   0.250000000   0.500000000  -0.250000000
          4   0.250000000   0.500000000   0.250000000
          5   0.250000000  -0.500000000   0.250000000
          6   0.500000000  -0.250000000   0.250000000
          7   0.250000000  -0.250000000   0.500000000
          8  -0.250000000  -0.500000000  -0.250000000
[...]
      thresh= 1.413E-04 alpha_mix =  0.700 |ddv_scf|^2 =  1.177E-07

      iter #   3 total cpu time :  3000.3 secs   av.it.:   8.8
      thresh= 3.431E-05 alpha_mix =  0.700 |ddv_scf|^2 =  7.007E-09

      iter #   4 total cpu time :  3002.1 secs   av.it.:   8.9
      thresh= 8.370E-06 alpha_mix =  0.700 |ddv_scf|^2 =  2.061E-10

      iter #   5 total cpu time :  3003.5 secs   av.it.:   8.2
      thresh= 1.436E-06 alpha_mix =  0.700 |ddv_scf|^2 =  1.903E-12

      iter #   6 total cpu time :  3005.0 secs   av.it.:   9.4
      thresh= 1.379E-07 alpha_mix =  0.700 |ddv_scf|^2 =  3.097E-15

      iter #   7 total cpu time :  3020.9 secs   av.it.:   9.5
      thresh= 5.565E-09 alpha_mix =  0.700 |ddv_scf|^2 =  2.504E-16

      iter #   8 total cpu time :  3022.4 secs   av.it.:   9.4
      thresh= 1.582E-09 alpha_mix =  0.700 |ddv_scf|^2 =  5.862E-19

     End of self-consistent calculation

     Convergence has been achieved 


     Representation #  2 mode #   2

     Self-consistent Calculation

      iter #   1 total cpu time :  3024.0 secs   av.it.:   6.1
      thresh= 1.000E-02 alpha_mix =  0.700 |ddv_scf|^2 =  1.929E-06

      iter #   2 total cpu time :  3025.5 secs   av.it.:   8.8
      thresh= 1.389E-04 alpha_mix =  0.700 |ddv_scf|^2 =  7.501E-08

      iter #   3 total cpu time :  3027.8 secs   av.it.:   8.8
      thresh= 2.739E-05 alpha_mix =  0.700 |ddv_scf|^2 =  3.864E-09

      iter #   4 total cpu time :  3030.8 secs   av.it.:   8.6
      thresh= 6.216E-06 alpha_mix =  0.700 |ddv_scf|^2 =  1.209E-11

      iter #   5 total cpu time :  3032.6 secs   av.it.:   8.7
      thresh= 3.477E-07 alpha_mix =  0.700 |ddv_scf|^2 =  9.226E-15

      iter #   6 total cpu time :  3034.3 secs   av.it.:   7.5
      thresh= 9.605E-09 alpha_mix =  0.700 |ddv_scf|^2 =  6.036E-16

      iter #   7 total cpu time :  3036.8 secs   av.it.:   8.0
      thresh= 2.457E-09 alpha_mix =  0.700 |ddv_scf|^2 =  1.511E-19

     End of self-consistent calculation

     Convergence has been achieved 


     Representation #  3 mode #   3

     Self-consistent Calculation

      iter #   1 total cpu time :  3038.5 secs   av.it.:   6.4
      thresh= 1.000E-02 alpha_mix =  0.700 |ddv_scf|^2 =  6.291E-06

      iter #   2 total cpu time :  3039.9 secs   av.it.:   8.8
      thresh= 2.508E-04 alpha_mix =  0.700 |ddv_scf|^2 =  4.935E-07

      iter #   3 total cpu time :  3041.4 secs   av.it.:   8.0
      thresh= 7.025E-05 alpha_mix =  0.700 |ddv_scf|^2 =  1.281E-08

      iter #   4 total cpu time :  3042.8 secs   av.it.:   8.7
      thresh= 1.132E-05 alpha_mix =  0.700 |ddv_scf|^2 =  5.396E-12

      iter #   5 total cpu time :  3045.0 secs   av.it.:   8.8
      thresh= 2.323E-07 alpha_mix =  0.700 |ddv_scf|^2 =  7.632E-14

      iter #   6 total cpu time :  3046.9 secs   av.it.:   8.7
      thresh= 2.763E-08 alpha_mix =  0.700 |ddv_scf|^2 =  1.191E-15

      iter #   7 total cpu time :  3048.3 secs   av.it.:   8.5
      thresh= 3.452E-09 alpha_mix =  0.700 |ddv_scf|^2 =  1.483E-18

     End of self-consistent calculation

     Convergence has been achieved 
 
     Number of q in the star =   12
     List of q in the star:
          1  -0.250000000  -1.000000000   0.000000000
          2   0.000000000  -1.000000000   0.250000000
          3   0.000000000  -1.000000000  -0.250000000
          4   0.250000000  -1.000000000   0.000000000
          5  -1.000000000   0.000000000  -0.250000000
          6   1.000000000   0.000000000   0.250000000
          7  -1.000000000  -0.250000000   0.000000000
          8   0.000000000  -0.250000000  -1.000000000
          9   0.000000000   0.250000000  -1.000000000
         10   1.000000000   0.250000000   0.000000000
         11  -0.250000000   0.000000000   1.000000000
         12   0.250000000   0.000000000   1.000000000

     Diagonalizing the dynamical matrix

     q = (   -0.250000000  -1.000000000   0.000000000 ) 

 **************************************************************************
     freq (    1) =       7.813406 [THz] =     260.627177 [cm-1]
     freq (    2) =       9.135439 [THz] =     304.725451 [cm-1]
     freq (    3) =      12.036135 [THz] =     401.482250 [cm-1]
 **************************************************************************

     Mode symmetry, C_2v (mm2)  point group:

     freq (  1 -  1) =        260.6  [cm-1]   --> A_1  D_1  S_1      
     freq (  2 -  2) =        304.7  [cm-1]   --> B_1  D_3  S_3      
     freq (  3 -  3) =        401.5  [cm-1]   --> B_2  D_4  S_4      

     Calculation of q =   -0.5000000  -1.0000000   0.0000000
 
     G-vector sticks info
     --------------------
     sticks:   dense  smooth     PW     G-vecs:    dense   smooth      PW
     Sum        1003     499    199                20539     7391    1917
 


     bravais-lattice index     =            2
     lattice parameter (alat)  =       7.7429  a.u.
     unit-cell volume          =     116.0512 (a.u.)^3
     number of atoms/cell      =            1
     number of atomic types    =            1
     number of electrons       =         3.00
     number of Kohn-Sham states=            6
     kinetic-energy cutoff     =      60.0000  Ry
     charge density cutoff     =     480.0000  Ry
     Exchange-correlation      =  SLA  PW   PBX  PBC ( 1  4  3  4 0 0)

     celldm(1)=   7.742893  celldm(2)=   0.000000  celldm(3)=   0.000000
     celldm(4)=   0.000000  celldm(5)=   0.000000  celldm(6)=   0.000000

     crystal axes: (cart. coord. in units of alat)
               a(1) = (  -0.500000   0.000000   0.500000 )  
               a(2) = (   0.000000   0.500000   0.500000 )  
               a(3) = (  -0.500000   0.500000   0.000000 )  

     reciprocal axes: (cart. coord. in units 2 pi/alat)
               b(1) = ( -1.000000 -1.000000  1.000000 )  
               b(2) = (  1.000000  1.000000  1.000000 )  
               b(3) = ( -1.000000  1.000000 -1.000000 )  


     PseudoPot. # 1 for Li read from file:
     ../Li.pbe-s-gbrv14.UPF
     MD5 check sum: 7ca33c4f951f001da2db5c8738379802
     Pseudo is Ultrasoft, Zval =  3.0
     Generated by new atomic code, or converted to UPF format
     Using radial grid of  751 points,  5 beta functions with: 
                l(1) =   0
                l(2) =   0
                l(3) =   0
                l(4) =   1
                l(5) =   1
     Q(r) pseudized with 10 coefficients,  rinner =    1.150   1.150   1.150


     atomic species   valence    mass     pseudopotential
        Li             3.00     6.94100     Li( 1.00)

     48 Sym. Ops., with inversion, found



   Cartesian axes

     site n.     atom                  positions (alat units)
         1           Li  tau(   1) = (   0.0000000   0.0000000   0.0000000  )

     number of k points= 21952  Marzari-Vanderbilt smearing, width (Ry)=  0.0200

     Number of k-points >= 100: set verbosity='high' to print them.

     Dense  grid:    20539 G-vectors     FFT dimensions: (  40,  40,  40)

     Smooth grid:     7391 G-vectors     FFT dimensions: (  27,  27,  27)

     Largest allocated arrays     est. size (Mb)     dimensions
        Kohn-Sham Wavefunctions         0.09 Mb     (     934,    6)
        NL pseudopotentials             0.13 Mb     (     934,    9)
        Each V/rho on FFT grid          0.98 Mb     (   64000)
        Each G-vector array             0.16 Mb     (   20539)
        G-vector shells                 0.00 Mb     (     246)
     Largest temporary arrays     est. size (Mb)     dimensions
        Auxiliary wavefunctions         0.34 Mb     (     934,   24)
        Each subspace H/S matrix        0.01 Mb     (      24,   24)
        Each <psi_i|beta_j> matrix      0.00 Mb     (       9,    6)

     The potential is recalculated from file :
     ./tmp/_ph0/li-fcc.save/charge-density.dat

     Starting wfc are    5 atomic +    1 random wfc

     Band Structure Calculation
     Davidson diagonalization with overlap

     ethr =  3.33E-10,  avg # of iterations = 15.0

     total cpu time spent up to now is      620.0 secs

     End of band structure calculation

     Number of k-points >= 100: set verbosity='high' to print the bands.

     the Fermi energy is     1.4865 ev

                                                                                

     bravais-lattice index     =            2
     lattice parameter (alat)  =       7.7429  a.u.
     unit-cell volume          =     116.0512 (a.u.)^3
     number of atoms/cell      =            1
     number of atomic types    =            1
     kinetic-energy cut-off    =      60.0000  Ry
     charge density cut-off    =     480.0000  Ry
     convergence threshold     =      1.0E-16
     beta                      =       0.7000
     number of iterations used =            4
     Exchange-correlation      =  SLA  PW   PBX  PBC ( 1  4  3  4 0 0)


     celldm(1)=    7.74289  celldm(2)=    0.00000  celldm(3)=    0.00000
     celldm(4)=    0.00000  celldm(5)=    0.00000  celldm(6)=    0.00000

     crystal axes: (cart. coord. in units of alat)
               a(1) = ( -0.5000  0.0000  0.5000 )  
               a(2) = (  0.0000  0.5000  0.5000 )  
               a(3) = ( -0.5000  0.5000  0.0000 )  

     reciprocal axes: (cart. coord. in units 2 pi/alat)
               b(1) = ( -1.0000 -1.0000  1.0000 )  
               b(2) = (  1.0000  1.0000  1.0000 )  
               b(3) = ( -1.0000  1.0000 -1.0000 )  


     Atoms inside the unit cell: 

     Cartesian axes

     site n.  atom      mass           positions (alat units)
        1     Li   6.9410   tau(    1) = (    0.00000    0.00000    0.00000  )

     Computing dynamical matrix for 
                    q = (  -0.5000000  -1.0000000   0.0000000 )
 
      8 Sym.Ops. (no q -> -q+G )


     G cutoff =  728.9337  (  20539 G-vectors)     FFT grid: ( 40, 40, 40)
     G cutoff =  364.4668  (   7391 G-vectors)  smooth grid: ( 27, 27, 27)

     number of k points= 21952  Marzari-Vanderbilt smearing, width (Ry)=  0.0200

     PseudoPot. # 1 for Li read from file:
     ../Li.pbe-s-gbrv14.UPF
     MD5 check sum: 7ca33c4f951f001da2db5c8738379802
     Pseudo is Ultrasoft, Zval =  3.0
     Generated by new atomic code, or converted to UPF format
     Using radial grid of  751 points,  5 beta functions with: 
                l(1) =   0
                l(2) =   0
                l(3) =   0
                l(4) =   1
                l(5) =   1
     Q(r) pseudized with 10 coefficients,  rinner =    1.150   1.150   1.150


     Mode symmetry, D_2d (-42m) point group:


     Atomic displacements:
     There are   2 irreducible representations

     Representation     1      1 modes -B_2  X_3  W_2  To be done

     Representation     2      2 modes -E    X_5  W_3  To be done



     Alpha used in Ewald sum =   2.8000
     PHONON       : 47m 8.68s CPU    51m 2.26s WALL



     Representation #  1 mode #   1

     Self-consistent Calculation

      iter #   1 total cpu time :  3063.0 secs   av.it.:   6.1
      thresh= 1.000E-02 alpha_mix =  0.700 |ddv_scf|^2 =  2.391E-06

      iter #   2 total cpu time :  3063.9 secs   av.it.:   8.8
      thresh= 1.546E-04 alpha_mix =  0.700 |ddv_scf|^2 =  1.054E-07

      iter #   3 total cpu time :  3064.8 secs   av.it.:   8.7
      thresh= 3.247E-05 alpha_mix =  0.700 |ddv_scf|^2 =  5.781E-09

      iter #   4 total cpu time :  3065.6 secs   av.it.:   8.9
      thresh= 7.604E-06 alpha_mix =  0.700 |ddv_scf|^2 =  2.347E-11

      iter #   5 total cpu time :  3067.4 secs   av.it.:   8.8
      thresh= 4.845E-07 alpha_mix =  0.700 |ddv_scf|^2 =  5.470E-14

      iter #   6 total cpu time :  3068.2 secs   av.it.:   8.6
      thresh= 2.339E-08 alpha_mix =  0.700 |ddv_scf|^2 =  1.538E-15

      iter #   7 total cpu time :  3069.0 secs   av.it.:   8.4
      thresh= 3.922E-09 alpha_mix =  0.700 |ddv_scf|^2 =  7.731E-19

     End of self-consistent calculation

     Convergence has been achieved 


     Representation #  2 modes #   2  3

     Self-consistent Calculation

      iter #   1 total cpu time :  3072.8 secs   av.it.:   6.3
      thresh= 1.000E-02 alpha_mix =  0.700 |ddv_scf|^2 =  8.830E-07

      iter #   2 total cpu time :  3074.4 secs   av.it.:   9.4
      thresh= 9.397E-05 alpha_mix =  0.700 |ddv_scf|^2 =  3.401E-08

      iter #   3 total cpu time :  3076.9 secs   av.it.:   8.8
      thresh= 1.844E-05 alpha_mix =  0.700 |ddv_scf|^2 =  2.107E-09

      iter #   4 total cpu time :  3084.8 secs   av.it.:   9.2
      thresh= 4.591E-06 alpha_mix =  0.700 |ddv_scf|^2 =  1.833E-12

      iter #   5 total cpu time :  3087.6 secs   av.it.:   9.2
      thresh= 1.354E-07 alpha_mix =  0.700 |ddv_scf|^2 =  4.897E-15

      iter #   6 total cpu time :  3089.3 secs   av.it.:   9.0
      thresh= 6.998E-09 alpha_mix =  0.700 |ddv_scf|^2 =  2.627E-16

      iter #   7 total cpu time :  3091.0 secs   av.it.:   9.0
      thresh= 1.621E-09 alpha_mix =  0.700 |ddv_scf|^2 =  2.475E-19

     End of self-consistent calculation

     Convergence has been achieved 
 
     Number of q in the star =    6
     List of q in the star:
          1  -0.500000000  -1.000000000   0.000000000
          2   0.000000000   1.000000000   0.500000000
          3   0.500000000  -1.000000000   0.000000000
          4   0.000000000   1.000000000  -0.500000000
          5  -1.000000000  -0.500000000   0.000000000
          6   0.000000000  -0.500000000  -1.000000000

     Diagonalizing the dynamical matrix

     q = (   -0.500000000  -1.000000000   0.000000000 ) 

 **************************************************************************
     freq (    1) =       7.739939 [THz] =     258.176563 [cm-1]
     freq (    2) =      10.879715 [THz] =     362.908214 [cm-1]
     freq (    3) =      10.879715 [THz] =     362.908214 [cm-1]
 **************************************************************************

     Mode symmetry, D_2d (-42m) point group:

     freq (  1 -  1) =        258.2  [cm-1]   --> B_2  X_3  W_2      
     freq (  2 -  3) =        362.9  [cm-1]   --> E    X_5  W_3      
 
     init_run     :      8.38s CPU      8.67s WALL (      28 calls)
     electrons    :    485.43s CPU    491.23s WALL (      28 calls)

     Called by init_run:
     wfcinit      :      0.00s CPU      0.04s WALL (      28 calls)
     potinit      :      2.11s CPU      2.26s WALL (      28 calls)

     Called by electrons:
     c_bands      :    483.52s CPU    489.24s WALL (      28 calls)
     v_of_rho     :      1.16s CPU      1.17s WALL (      29 calls)
     newd         :      0.40s CPU      0.49s WALL (      29 calls)

     Called by c_bands:
     init_us_2    :     13.04s CPU     13.50s WALL (   80661 calls)
     cegterg      :    315.43s CPU    317.81s WALL (    6254 calls)

     Called by sum_band:

     Called by *egterg:
     h_psi        :    306.37s CPU    308.27s WALL (   99122 calls)
     s_psi        :     18.93s CPU     18.86s WALL ( 1284360 calls)
     g_psi        :      2.02s CPU      2.04s WALL (   87900 calls)
     cdiaghg      :     12.18s CPU     12.47s WALL (   92868 calls)

     Called by h_psi:
     add_vuspsi   :     10.84s CPU     11.11s WALL (  661580 calls)

     General routines
     calbec       :     25.01s CPU     25.43s WALL ( 1416874 calls)
     fft          :     18.18s CPU     18.29s WALL (   10738 calls)
     ffts         :      5.28s CPU      5.32s WALL (    9276 calls)
     fftw         :   1229.46s CPU   1243.37s WALL ( 3339240 calls)
     interpolate  :      3.70s CPU      3.72s WALL (    1479 calls)
     davcio       :      0.42s CPU      4.53s WALL (   14916 calls)
 
     Parallel routines
     fft_scatter  :     65.24s CPU     66.58s WALL ( 3359254 calls)
 
     PHONON       : 47m37.06s CPU    51m34.25s WALL

     INITIALIZATION: 
     phq_setup    :      3.17s CPU      9.63s WALL (      29 calls)
     phq_init     :     69.91s CPU     74.14s WALL (      29 calls)
 
     phq_init     :     69.91s CPU     74.14s WALL (      29 calls)
     init_vloc    :      0.04s CPU      0.04s WALL (      29 calls)
     init_us_1    :      4.36s CPU      4.37s WALL (      29 calls)
     newd         :      0.40s CPU      0.49s WALL (      29 calls)
     dvanqq       :      2.95s CPU      3.01s WALL (      29 calls)
     drho         :     60.47s CPU     60.82s WALL (      29 calls)
 
     DYNAMICAL MATRIX:
     dynmat0      :      1.69s CPU      4.83s WALL (      29 calls)
     phqscf       :   2116.71s CPU   2295.53s WALL (      29 calls)
     dynmatrix    :     25.07s CPU     26.85s WALL (      29 calls)
 
     phqscf       :   2116.71s CPU   2295.53s WALL (      29 calls)
     solve_linter :   2113.12s CPU   2282.28s WALL (      76 calls)
     drhodv       :      3.31s CPU      3.51s WALL (      76 calls)
 
     dynmat0      :      1.69s CPU      4.83s WALL (      29 calls)
     dynmat_us    :      1.57s CPU      1.64s WALL (      29 calls)
     d2ionq       :      0.05s CPU      0.08s WALL (      29 calls)
 
     dynmat_us    :      1.57s CPU      1.64s WALL (      29 calls)
     addusdynmat  :      0.00s CPU      0.00s WALL (      29 calls)
 
     phqscf       :   2116.71s CPU   2295.53s WALL (      29 calls)
     solve_linter :   2113.12s CPU   2282.28s WALL (      76 calls)
 
     solve_linter :   2113.12s CPU   2282.28s WALL (      76 calls)
     dvqpsi_us    :     41.81s CPU     42.51s WALL (    7470 calls)
     ortho        :      7.12s CPU      6.90s WALL (   60322 calls)
     cgsolve      :    925.08s CPU    936.53s WALL (   60322 calls)
     incdrhoscf   :    104.25s CPU    106.29s WALL (   60322 calls)
     addusddens   :     13.54s CPU     13.63s WALL (     676 calls)
     vpsifft      :     85.32s CPU     86.29s WALL (   52852 calls)
     dv_of_drho   :     25.26s CPU     25.53s WALL (     667 calls)
     mix_pot      :      3.44s CPU      3.50s WALL (     600 calls)
     ef_shift     :      0.08s CPU      0.08s WALL (       7 calls)
     localdos     :      0.03s CPU      0.04s WALL (       1 calls)
     psymdvscf    :     10.57s CPU     10.64s WALL (     548 calls)
     newdq        :     12.85s CPU     12.88s WALL (     600 calls)
     adddvscf     :      2.51s CPU      2.59s WALL (   52852 calls)
     drhodvus     :      0.16s CPU      0.17s WALL (      76 calls)
 
     dvqpsi_us    :     41.81s CPU     42.51s WALL (    7470 calls)
     dvqpsi_us_on :      1.96s CPU      2.00s WALL (    7470 calls)
 
     cgsolve      :    925.08s CPU    936.53s WALL (   60322 calls)
     ch_psi       :    914.05s CPU    925.33s WALL (  562458 calls)
 
     ch_psi       :    914.05s CPU    925.33s WALL (  562458 calls)
     h_psiq       :    883.26s CPU    894.70s WALL (  562458 calls)
     last         :     27.44s CPU     27.15s WALL (  562458 calls)
 
     h_psiq       :    883.26s CPU    894.70s WALL (  562458 calls)
     firstfft     :    450.67s CPU    456.54s WALL ( 1028743 calls)
     secondfft    :    374.97s CPU    379.05s WALL ( 1028743 calls)
     add_vuspsi   :     10.84s CPU     11.11s WALL (  661580 calls)
 
     incdrhoscf   :    104.25s CPU    106.29s WALL (   60322 calls)
     addusdbec    :      3.07s CPU      3.01s WALL (   67792 calls)
 
     drhodvus     :      0.16s CPU      0.17s WALL (      76 calls)
 
      General routines
     calbec       :     25.01s CPU     25.43s WALL ( 1416874 calls)
     fft          :     18.18s CPU     18.29s WALL (   10738 calls)
     ffts         :      5.28s CPU      5.32s WALL (    9276 calls)
     fftw         :   1229.46s CPU   1243.37s WALL ( 3339240 calls)
     davcio       :      0.42s CPU      4.53s WALL (   14916 calls)
     write_rec    :      1.83s CPU    161.50s WALL (     676 calls)
 
 
     PHONON       : 47m37.06s CPU    51m34.25s WALL

 
   This run was terminated on:   4:15:32   6Jun2016            

=------------------------------------------------------------------------------=
   JOB DONE.
=------------------------------------------------------------------------------=
Application 21949766 resources: utime ~1137471s, stime ~6549s, Rss ~184640, inblocks ~746668980, outblocks ~1334278399
