
     Program MATDYN v.5.4.0 starts on  6Jun2016 at 11:33:21 

     This program is part of the open-source Quantum ESPRESSO suite
     for quantum simulation of materials; please cite
         "P. Giannozzi et al., J. Phys.:Condens. Matter 21 395502 (2009);
          URL http://www.quantum-espresso.org", 
     in publications or presentations arising from this work. More details at
     http://www.quantum-espresso.org/quote

     Parallel version (MPI), running on     4 processors
     R & G space division:  proc/nbgrp/npool/nimage =       4
 mass for atomic type   1 not given; uses mass from file fcc-li.08x.fc                                                                                                                                                                                                                                                   
Norm of the difference between old and new effective charges:    0.00000000000000000000
Norm of the difference between old and new force-constants:   0.00000016227869517611
     Message from routine matdyn:
     Z* not found in file fcc-li.08x.fc, TO-LO splitting at q=0 will be absent!
     A direction for q was not specified:TO-LO splitting will be absent

     MATDYN       :    30.96s CPU        32.56s WALL


   This run was terminated on:  11:33:54   6Jun2016            

=------------------------------------------------------------------------------=
   JOB DONE.
=------------------------------------------------------------------------------=

     Program MATDYN v.5.4.0 starts on 15Sep2016 at 12: 4:23 

     This program is part of the open-source Quantum ESPRESSO suite
     for quantum simulation of materials; please cite
         "P. Giannozzi et al., J. Phys.:Condens. Matter 21 395502 (2009);
          URL http://www.quantum-espresso.org", 
     in publications or presentations arising from this work. More details at
     http://www.quantum-espresso.org/quote

     Parallel version (MPI), running on     2 processors
     R & G space division:  proc/nbgrp/npool/nimage =       2
 mass for atomic type   1 not given; uses mass from file fcc-li.08x.fc                                                                                                                                                                                                                                                   
Norm of the difference between old and new effective charges:    0.00000000000000000000
Norm of the difference between old and new force-constants:   0.00000016227869517611
     Message from routine matdyn:
     Z* not found in file fcc-li.08x.fc, TO-LO splitting at q=0 will be absent!
     A direction for q was not specified:TO-LO splitting will be absent

     MATDYN       :  1m45.30s CPU     1m47.05s WALL


   This run was terminated on:  12: 6:10  15Sep2016            

=------------------------------------------------------------------------------=
   JOB DONE.
=------------------------------------------------------------------------------=
