
     Program PHONON v.5.4.0 starts on  6Jun2016 at  6: 4:47 

     This program is part of the open-source Quantum ESPRESSO suite
     for quantum simulation of materials; please cite
         "P. Giannozzi et al., J. Phys.:Condens. Matter 21 395502 (2009);
          URL http://www.quantum-espresso.org", 
     in publications or presentations arising from this work. More details at
     http://www.quantum-espresso.org/quote

     Parallel version (MPI), running on   384 processors
     K-points division:     npool     =     384

     Reading data from directory:
     ./tmp/li-fcc.save

   Info: using nr1, nr2, nr3 values from input

   Info: using nr1, nr2, nr3 values from input

     IMPORTANT: XC functional enforced from input :
     Exchange-correlation      =  SLA  PW   PBX  PBC ( 1  4  3  4 0 0)
     Any further DFT definition will be discarded
     Please, verify this is what you really want

 
     G-vector sticks info
     --------------------
     sticks:   dense  smooth     PW     G-vecs:    dense   smooth      PW
     Sum        1057     517    187                22659     7991    1591
 


     Dynamical matrices for ( 8, 8, 8)  uniform grid of q-points
     (  29q-points):
       N         xq(1)         xq(2)         xq(3) 
       1   0.000000000   0.000000000   0.000000000
       2  -0.125000000   0.125000000  -0.125000000
       3  -0.250000000   0.250000000  -0.250000000
       4  -0.375000000   0.375000000  -0.375000000
       5   0.500000000  -0.500000000   0.500000000
       6   0.000000000   0.250000000   0.000000000
       7  -0.125000000   0.375000000  -0.125000000
       8  -0.250000000   0.500000000  -0.250000000
       9   0.625000000  -0.375000000   0.625000000
      10   0.500000000  -0.250000000   0.500000000
      11   0.375000000  -0.125000000   0.375000000
      12   0.250000000   0.000000000   0.250000000
      13   0.000000000   0.500000000   0.000000000
      14  -0.125000000   0.625000000  -0.125000000
      15   0.750000000  -0.250000000   0.750000000
      16   0.625000000  -0.125000000   0.625000000
      17   0.500000000   0.000000000   0.500000000
      18   0.000000000   0.750000000   0.000000000
      19   0.875000000  -0.125000000   0.875000000
      20   0.750000000   0.000000000   0.750000000
      21   0.000000000  -1.000000000   0.000000000
      22  -0.250000000   0.500000000   0.000000000
      23   0.625000000  -0.375000000   0.875000000
      24   0.500000000  -0.250000000   0.750000000
      25   0.750000000  -0.250000000   1.000000000
      26   0.625000000  -0.125000000   0.875000000
      27   0.500000000   0.000000000   0.750000000
      28  -0.250000000  -1.000000000   0.000000000
      29  -0.500000000  -1.000000000   0.000000000

     Calculation of q =    0.0000000   0.0000000   0.0000000

                                                                                

     bravais-lattice index     =            2
     lattice parameter (alat)  =       8.0041  a.u.
     unit-cell volume          =     128.1952 (a.u.)^3
     number of atoms/cell      =            1
     number of atomic types    =            1
     kinetic-energy cut-off    =      60.0000  Ry
     charge density cut-off    =     480.0000  Ry
     convergence threshold     =      1.0E-16
     beta                      =       0.7000
     number of iterations used =            4
     Exchange-correlation      =  SLA  PW   PBX  PBC ( 1  4  3  4 0 0)


     celldm(1)=    8.00407  celldm(2)=    0.00000  celldm(3)=    0.00000
     celldm(4)=    0.00000  celldm(5)=    0.00000  celldm(6)=    0.00000

     crystal axes: (cart. coord. in units of alat)
               a(1) = ( -0.5000  0.0000  0.5000 )  
               a(2) = (  0.0000  0.5000  0.5000 )  
               a(3) = ( -0.5000  0.5000  0.0000 )  

     reciprocal axes: (cart. coord. in units 2 pi/alat)
               b(1) = ( -1.0000 -1.0000  1.0000 )  
               b(2) = (  1.0000  1.0000  1.0000 )  
               b(3) = ( -1.0000  1.0000 -1.0000 )  


     Atoms inside the unit cell: 

     Cartesian axes

     site n.  atom      mass           positions (alat units)
        1     Li   6.9410   tau(    1) = (    0.00000    0.00000    0.00000  )

     Computing dynamical matrix for 
                    q = (   0.0000000   0.0000000   0.0000000 )
 
     49 Sym.Ops. (with q -> -q+G )


     G cutoff =  778.9377  (  22659 G-vectors)     FFT grid: ( 40, 40, 40)
     G cutoff =  389.4688  (   7991 G-vectors)  smooth grid: ( 27, 27, 27)

     number of k points=  2030  Marzari-Vanderbilt smearing, width (Ry)=  0.0200

     PseudoPot. # 1 for Li read from file:
     ../Li.pbe-s-gbrv14.UPF
     MD5 check sum: 7ca33c4f951f001da2db5c8738379802
     Pseudo is Ultrasoft, Zval =  3.0
     Generated by new atomic code, or converted to UPF format
     Using radial grid of  751 points,  5 beta functions with: 
                l(1) =   0
                l(2) =   0
                l(3) =   0
                l(4) =   1
                l(5) =   1
     Q(r) pseudized with 10 coefficients,  rinner =    1.150   1.150   1.150


     Mode symmetry, O_h (m-3m)  point group:


     Atomic displacements:
     There are   1 irreducible representations

     Representation     1      3 modes -T_1u G_15  G_4-  To be done



     Alpha used in Ewald sum =   2.8000
     PHONON       :    13.42s CPU        18.37s WALL



     Representation #  1 modes #   1  2  3

     Self-consistent Calculation
 
     Pert. #  1: Fermi energy shift (Ry) =     1.5510E-25     2.3510E-38
     Pert. #  2: Fermi energy shift (Ry) =    -1.0986E-25     7.8366E-39
     Pert. #  3: Fermi energy shift (Ry) =    -1.7233E-26    -7.8366E-39

      iter #   1 total cpu time :    19.3 secs   av.it.:   5.3
      thresh= 1.000E-02 alpha_mix =  0.700 |ddv_scf|^2 =  1.163E-07
 
     Pert. #  1: Fermi energy shift (Ry) =     3.4466E-26     0.0000E+00
     Pert. #  2: Fermi energy shift (Ry) =    -2.3695E-26    -1.8558E-40
     Pert. #  3: Fermi energy shift (Ry) =    -2.5849E-26    -7.6530E-41

      iter #   2 total cpu time :    20.8 secs   av.it.:   9.4
      thresh= 3.410E-05 alpha_mix =  0.700 |ddv_scf|^2 =  7.135E-09
 
     Pert. #  1: Fermi energy shift (Ry) =    -1.3786E-25     0.0000E+00
     Pert. #  2: Fermi energy shift (Ry) =     5.3853E-27     0.0000E+00
     Pert. #  3: Fermi energy shift (Ry) =    -1.5510E-25     1.8176E-41

      iter #   3 total cpu time :    22.9 secs   av.it.:   9.6
      thresh= 8.447E-06 alpha_mix =  0.700 |ddv_scf|^2 =  4.327E-11
 
     Pert. #  1: Fermi energy shift (Ry) =     7.3240E-26     0.0000E+00
     Pert. #  2: Fermi energy shift (Ry) =    -1.0070E-25     0.0000E+00
     Pert. #  3: Fermi energy shift (Ry) =     6.4623E-26     0.0000E+00

      iter #   4 total cpu time :    24.2 secs   av.it.:   9.3
      thresh= 6.578E-07 alpha_mix =  0.700 |ddv_scf|^2 =  1.088E-13
 
     Pert. #  1: Fermi energy shift (Ry) =     1.2925E-26    -1.1958E-43
     Pert. #  2: Fermi energy shift (Ry) =    -1.0501E-25     2.9894E-44
     Pert. #  3: Fermi energy shift (Ry) =    -1.9387E-25     2.0328E-42

      iter #   5 total cpu time :    25.2 secs   av.it.:   9.0
      thresh= 3.298E-08 alpha_mix =  0.700 |ddv_scf|^2 =  2.011E-15
 
     Pert. #  1: Fermi energy shift (Ry) =     1.2925E-26    -1.1958E-43
     Pert. #  2: Fermi energy shift (Ry) =     6.7316E-26     2.9894E-44
     Pert. #  3: Fermi energy shift (Ry) =    -1.4217E-25     2.0328E-42

      iter #   6 total cpu time :    26.6 secs   av.it.:   8.7
      thresh= 4.484E-09 alpha_mix =  0.700 |ddv_scf|^2 =  5.491E-19

     End of self-consistent calculation

     Convergence has been achieved 
 
     Number of q in the star =    1
     List of q in the star:
          1   0.000000000   0.000000000   0.000000000

     Diagonalizing the dynamical matrix

     q = (    0.000000000   0.000000000   0.000000000 ) 

 **************************************************************************
     freq (    1) =      -0.068067 [THz] =      -2.270461 [cm-1]
     freq (    2) =      -0.068067 [THz] =      -2.270461 [cm-1]
     freq (    3) =      -0.068067 [THz] =      -2.270461 [cm-1]
 **************************************************************************

     Mode symmetry, O_h (m-3m)  point group:

     freq (  1 -  3) =         -2.3  [cm-1]   --> T_1u G_15  G_4- I  

     Calculation of q =   -0.1250000   0.1250000  -0.1250000
 
     G-vector sticks info
     --------------------
     sticks:   dense  smooth     PW     G-vecs:    dense   smooth      PW
     Sum        1057     517    187                22659     7991    1639
 


     bravais-lattice index     =            2
     lattice parameter (alat)  =       8.0041  a.u.
     unit-cell volume          =     128.1952 (a.u.)^3
     number of atoms/cell      =            1
     number of atomic types    =            1
     number of electrons       =         3.00
     number of Kohn-Sham states=            6
     kinetic-energy cutoff     =      60.0000  Ry
     charge density cutoff     =     480.0000  Ry
     Exchange-correlation      =  SLA  PW   PBX  PBC ( 1  4  3  4 0 0)

     celldm(1)=   8.004065  celldm(2)=   0.000000  celldm(3)=   0.000000
     celldm(4)=   0.000000  celldm(5)=   0.000000  celldm(6)=   0.000000

     crystal axes: (cart. coord. in units of alat)
               a(1) = (  -0.500000   0.000000   0.500000 )  
               a(2) = (   0.000000   0.500000   0.500000 )  
               a(3) = (  -0.500000   0.500000   0.000000 )  

     reciprocal axes: (cart. coord. in units 2 pi/alat)
               b(1) = ( -1.000000 -1.000000  1.000000 )  
               b(2) = (  1.000000  1.000000  1.000000 )  
               b(3) = ( -1.000000  1.000000 -1.000000 )  


     PseudoPot. # 1 for Li read from file:
     ../Li.pbe-s-gbrv14.UPF
     MD5 check sum: 7ca33c4f951f001da2db5c8738379802
     Pseudo is Ultrasoft, Zval =  3.0
     Generated by new atomic code, or converted to UPF format
     Using radial grid of  751 points,  5 beta functions with: 
                l(1) =   0
                l(2) =   0
                l(3) =   0
                l(4) =   1
                l(5) =   1
     Q(r) pseudized with 10 coefficients,  rinner =    1.150   1.150   1.150


     atomic species   valence    mass     pseudopotential
        Li             3.00     6.94100     Li( 1.00)

     48 Sym. Ops., with inversion, found



   Cartesian axes

     site n.     atom                  positions (alat units)
         1           Li  tau(   1) = (   0.0000000   0.0000000   0.0000000  )

     number of k points= 30856  Marzari-Vanderbilt smearing, width (Ry)=  0.0200

     Number of k-points >= 100: set verbosity='high' to print them.

     Dense  grid:    22659 G-vectors     FFT dimensions: (  40,  40,  40)

     Smooth grid:     7991 G-vectors     FFT dimensions: (  27,  27,  27)

     Largest allocated arrays     est. size (Mb)     dimensions
        Kohn-Sham Wavefunctions         0.09 Mb     (    1036,    6)
        NL pseudopotentials             0.14 Mb     (    1036,    9)
        Each V/rho on FFT grid          0.98 Mb     (   64000)
        Each G-vector array             0.17 Mb     (   22659)
        G-vector shells                 0.00 Mb     (     261)
     Largest temporary arrays     est. size (Mb)     dimensions
        Auxiliary wavefunctions         0.38 Mb     (    1036,   24)
        Each subspace H/S matrix        0.01 Mb     (      24,   24)
        Each <psi_i|beta_j> matrix      0.00 Mb     (       9,    6)

     The potential is recalculated from file :
     ./tmp/_ph0/li-fcc.save/charge-density.dat

     Starting wfc are    5 atomic +    1 random wfc

     Band Structure Calculation
     Davidson diagonalization with overlap

     ethr =  3.33E-10,  avg # of iterations = 15.4

     total cpu time spent up to now is        8.7 secs

     End of band structure calculation

     Number of k-points >= 100: set verbosity='high' to print the bands.

     the Fermi energy is     1.1444 ev

                                                                                

     bravais-lattice index     =            2
     lattice parameter (alat)  =       8.0041  a.u.
     unit-cell volume          =     128.1952 (a.u.)^3
     number of atoms/cell      =            1
     number of atomic types    =            1
     kinetic-energy cut-off    =      60.0000  Ry
     charge density cut-off    =     480.0000  Ry
     convergence threshold     =      1.0E-16
     beta                      =       0.7000
     number of iterations used =            4
     Exchange-correlation      =  SLA  PW   PBX  PBC ( 1  4  3  4 0 0)


     celldm(1)=    8.00407  celldm(2)=    0.00000  celldm(3)=    0.00000
     celldm(4)=    0.00000  celldm(5)=    0.00000  celldm(6)=    0.00000

     crystal axes: (cart. coord. in units of alat)
               a(1) = ( -0.5000  0.0000  0.5000 )  
               a(2) = (  0.0000  0.5000  0.5000 )  
               a(3) = ( -0.5000  0.5000  0.0000 )  

     reciprocal axes: (cart. coord. in units 2 pi/alat)
               b(1) = ( -1.0000 -1.0000  1.0000 )  
               b(2) = (  1.0000  1.0000  1.0000 )  
               b(3) = ( -1.0000  1.0000 -1.0000 )  


     Atoms inside the unit cell: 

     Cartesian axes

     site n.  atom      mass           positions (alat units)
        1     Li   6.9410   tau(    1) = (    0.00000    0.00000    0.00000  )

     Computing dynamical matrix for 
                    q = (  -0.1250000   0.1250000  -0.1250000 )
 
      6 Sym.Ops. (no q -> -q+G )


     G cutoff =  778.9377  (  22659 G-vectors)     FFT grid: ( 40, 40, 40)
     G cutoff =  389.4688  (   7991 G-vectors)  smooth grid: ( 27, 27, 27)

     number of k points= 30856  Marzari-Vanderbilt smearing, width (Ry)=  0.0200

     PseudoPot. # 1 for Li read from file:
     ../Li.pbe-s-gbrv14.UPF
     MD5 check sum: 7ca33c4f951f001da2db5c8738379802
     Pseudo is Ultrasoft, Zval =  3.0
     Generated by new atomic code, or converted to UPF format
     Using radial grid of  751 points,  5 beta functions with: 
                l(1) =   0
                l(2) =   0
                l(3) =   0
                l(4) =   1
                l(5) =   1
     Q(r) pseudized with 10 coefficients,  rinner =    1.150   1.150   1.150


     Mode symmetry, C_3v (3m)   point group:


     Atomic displacements:
     There are   2 irreducible representations

     Representation     1      1 modes -A_1  L_1  To be done

     Representation     2      2 modes -E    L_3  To be done



     Alpha used in Ewald sum =   2.8000
     PHONON       :    51.13s CPU        57.45s WALL



     Representation #  1 mode #   1

     Self-consistent Calculation

      iter #   1 total cpu time :    58.5 secs   av.it.:   6.3
      thresh= 1.000E-02 alpha_mix =  0.700 |ddv_scf|^2 =  8.541E-02

      iter #   2 total cpu time :    60.1 secs   av.it.:   7.9
      thresh= 1.000E-02 alpha_mix =  0.700 |ddv_scf|^2 =  7.386E+01

      iter #   3 total cpu time :    71.0 secs   av.it.:   7.9
      thresh= 1.000E-02 alpha_mix =  0.700 |ddv_scf|^2 =  5.907E-04

      iter #   4 total cpu time :    77.0 secs   av.it.:   5.0
      thresh= 2.430E-03 alpha_mix =  0.700 |ddv_scf|^2 =  4.188E-08

      iter #   5 total cpu time :    78.3 secs   av.it.:   8.3
      thresh= 2.046E-05 alpha_mix =  0.700 |ddv_scf|^2 =  4.600E-10

      iter #   6 total cpu time :    79.4 secs   av.it.:   8.7
      thresh= 2.145E-06 alpha_mix =  0.700 |ddv_scf|^2 =  1.720E-08

      iter #   7 total cpu time :    80.2 secs   av.it.:   3.5
      thresh= 1.311E-05 alpha_mix =  0.700 |ddv_scf|^2 =  1.052E-10

      iter #   8 total cpu time :    81.2 secs   av.it.:   7.4
      thresh= 1.026E-06 alpha_mix =  0.700 |ddv_scf|^2 =  1.492E-13

      iter #   9 total cpu time :    82.2 secs   av.it.:   8.1
      thresh= 3.863E-08 alpha_mix =  0.700 |ddv_scf|^2 =  7.410E-14

      iter #  10 total cpu time :    83.1 secs   av.it.:   7.0
      thresh= 2.722E-08 alpha_mix =  0.700 |ddv_scf|^2 =  2.046E-14

      iter #  11 total cpu time :    85.1 secs   av.it.:   6.2
      thresh= 1.430E-08 alpha_mix =  0.700 |ddv_scf|^2 =  1.036E-18

     End of self-consistent calculation

     Convergence has been achieved 


     Representation #  2 modes #   2  3

     Self-consistent Calculation

      iter #   1 total cpu time :    87.2 secs   av.it.:   5.4
      thresh= 1.000E-02 alpha_mix =  0.700 |ddv_scf|^2 =  2.639E-07

      iter #   2 total cpu time :    90.0 secs   av.it.:   9.3
      thresh= 5.137E-05 alpha_mix =  0.700 |ddv_scf|^2 =  1.615E-08

      iter #   3 total cpu time :    92.5 secs   av.it.:   9.5
      thresh= 1.271E-05 alpha_mix =  0.700 |ddv_scf|^2 =  1.088E-10

      iter #   4 total cpu time :    95.1 secs   av.it.:   9.1
      thresh= 1.043E-06 alpha_mix =  0.700 |ddv_scf|^2 =  2.402E-13

      iter #   5 total cpu time :    97.3 secs   av.it.:   8.9
      thresh= 4.901E-08 alpha_mix =  0.700 |ddv_scf|^2 =  4.362E-15

      iter #   6 total cpu time :    99.4 secs   av.it.:   8.1
      thresh= 6.605E-09 alpha_mix =  0.700 |ddv_scf|^2 =  1.578E-18

     End of self-consistent calculation

     Convergence has been achieved 
 
     Number of q in the star =    8
     List of q in the star:
          1  -0.125000000   0.125000000  -0.125000000
          2   0.125000000  -0.125000000  -0.125000000
          3   0.125000000  -0.125000000   0.125000000
          4  -0.125000000   0.125000000   0.125000000
          5   0.125000000   0.125000000  -0.125000000
          6  -0.125000000  -0.125000000  -0.125000000
          7  -0.125000000  -0.125000000   0.125000000
          8   0.125000000   0.125000000   0.125000000

     Diagonalizing the dynamical matrix

     q = (   -0.125000000   0.125000000  -0.125000000 ) 

 **************************************************************************
     freq (    1) =       1.431612 [THz] =      47.753424 [cm-1]
     freq (    2) =       1.431612 [THz] =      47.753424 [cm-1]
     freq (    3) =       3.804058 [THz] =     126.889703 [cm-1]
 **************************************************************************

     Mode symmetry, C_3v (3m)   point group:

     freq (  1 -  2) =         47.8  [cm-1]   --> E    L_3           
     freq (  3 -  3) =        126.9  [cm-1]   --> A_1  L_1           

     Calculation of q =   -0.2500000   0.2500000  -0.2500000
 
     G-vector sticks info
     --------------------
     sticks:   dense  smooth     PW     G-vecs:    dense   smooth      PW
     Sum        1057     517    199                22659     7991    1807
 


     bravais-lattice index     =            2
     lattice parameter (alat)  =       8.0041  a.u.
     unit-cell volume          =     128.1952 (a.u.)^3
     number of atoms/cell      =            1
     number of atomic types    =            1
     number of electrons       =         3.00
     number of Kohn-Sham states=            6
     kinetic-energy cutoff     =      60.0000  Ry
     charge density cutoff     =     480.0000  Ry
     Exchange-correlation      =  SLA  PW   PBX  PBC ( 1  4  3  4 0 0)

     celldm(1)=   8.004065  celldm(2)=   0.000000  celldm(3)=   0.000000
     celldm(4)=   0.000000  celldm(5)=   0.000000  celldm(6)=   0.000000

     crystal axes: (cart. coord. in units of alat)
               a(1) = (  -0.500000   0.000000   0.500000 )  
               a(2) = (   0.000000   0.500000   0.500000 )  
               a(3) = (  -0.500000   0.500000   0.000000 )  

     reciprocal axes: (cart. coord. in units 2 pi/alat)
               b(1) = ( -1.000000 -1.000000  1.000000 )  
               b(2) = (  1.000000  1.000000  1.000000 )  
               b(3) = ( -1.000000  1.000000 -1.000000 )  


     PseudoPot. # 1 for Li read from file:
     ../Li.pbe-s-gbrv14.UPF
     MD5 check sum: 7ca33c4f951f001da2db5c8738379802
     Pseudo is Ultrasoft, Zval =  3.0
     Generated by new atomic code, or converted to UPF format
     Using radial grid of  751 points,  5 beta functions with: 
                l(1) =   0
                l(2) =   0
                l(3) =   0
                l(4) =   1
                l(5) =   1
     Q(r) pseudized with 10 coefficients,  rinner =    1.150   1.150   1.150


     atomic species   valence    mass     pseudopotential
        Li             3.00     6.94100     Li( 1.00)

     48 Sym. Ops., with inversion, found



   Cartesian axes

     site n.     atom                  positions (alat units)
         1           Li  tau(   1) = (   0.0000000   0.0000000   0.0000000  )

     number of k points= 30856  Marzari-Vanderbilt smearing, width (Ry)=  0.0200

     Number of k-points >= 100: set verbosity='high' to print them.

     Dense  grid:    22659 G-vectors     FFT dimensions: (  40,  40,  40)

     Smooth grid:     7991 G-vectors     FFT dimensions: (  27,  27,  27)

     Largest allocated arrays     est. size (Mb)     dimensions
        Kohn-Sham Wavefunctions         0.09 Mb     (    1021,    6)
        NL pseudopotentials             0.14 Mb     (    1021,    9)
        Each V/rho on FFT grid          0.98 Mb     (   64000)
        Each G-vector array             0.17 Mb     (   22659)
        G-vector shells                 0.00 Mb     (     261)
     Largest temporary arrays     est. size (Mb)     dimensions
        Auxiliary wavefunctions         0.37 Mb     (    1021,   24)
        Each subspace H/S matrix        0.01 Mb     (      24,   24)
        Each <psi_i|beta_j> matrix      0.00 Mb     (       9,    6)

     The potential is recalculated from file :
     ./tmp/_ph0/li-fcc.save/charge-density.dat

     Starting wfc are    5 atomic +    1 random wfc

     Band Structure Calculation
     Davidson diagonalization with overlap

     ethr =  3.33E-10,  avg # of iterations = 15.4

     total cpu time spent up to now is       24.9 secs

     End of band structure calculation

     Number of k-points >= 100: set verbosity='high' to print the bands.

     the Fermi energy is     1.1444 ev

                                                                                

     bravais-lattice index     =            2
     lattice parameter (alat)  =       8.0041  a.u.
     unit-cell volume          =     128.1952 (a.u.)^3
     number of atoms/cell      =            1
     number of atomic types    =            1
     kinetic-energy cut-off    =      60.0000  Ry
     charge density cut-off    =     480.0000  Ry
     convergence threshold     =      1.0E-16
     beta                      =       0.7000
     number of iterations used =            4
     Exchange-correlation      =  SLA  PW   PBX  PBC ( 1  4  3  4 0 0)


     celldm(1)=    8.00407  celldm(2)=    0.00000  celldm(3)=    0.00000
     celldm(4)=    0.00000  celldm(5)=    0.00000  celldm(6)=    0.00000

     crystal axes: (cart. coord. in units of alat)
               a(1) = ( -0.5000  0.0000  0.5000 )  
               a(2) = (  0.0000  0.5000  0.5000 )  
               a(3) = ( -0.5000  0.5000  0.0000 )  

     reciprocal axes: (cart. coord. in units 2 pi/alat)
               b(1) = ( -1.0000 -1.0000  1.0000 )  
               b(2) = (  1.0000  1.0000  1.0000 )  
               b(3) = ( -1.0000  1.0000 -1.0000 )  


     Atoms inside the unit cell: 

     Cartesian axes

     site n.  atom      mass           positions (alat units)
        1     Li   6.9410   tau(    1) = (    0.00000    0.00000    0.00000  )

     Computing dynamical matrix for 
                    q = (  -0.2500000   0.2500000  -0.2500000 )
 
      6 Sym.Ops. (no q -> -q+G )


     G cutoff =  778.9377  (  22659 G-vectors)     FFT grid: ( 40, 40, 40)
     G cutoff =  389.4688  (   7991 G-vectors)  smooth grid: ( 27, 27, 27)

     number of k points= 30856  Marzari-Vanderbilt smearing, width (Ry)=  0.0200

     PseudoPot. # 1 for Li read from file:
     ../Li.pbe-s-gbrv14.UPF
     MD5 check sum: 7ca33c4f951f001da2db5c8738379802
     Pseudo is Ultrasoft, Zval =  3.0
     Generated by new atomic code, or converted to UPF format
     Using radial grid of  751 points,  5 beta functions with: 
                l(1) =   0
                l(2) =   0
                l(3) =   0
                l(4) =   1
                l(5) =   1
     Q(r) pseudized with 10 coefficients,  rinner =    1.150   1.150   1.150


     Mode symmetry, C_3v (3m)   point group:


     Atomic displacements:
     There are   2 irreducible representations

     Representation     1      1 modes -A_1  L_1  To be done

     Representation     2      2 modes -E    L_3  To be done



     Alpha used in Ewald sum =   2.8000
     PHONON       :  1m46.59s CPU     1m59.40s WALL



     Representation #  1 mode #   1

     Self-consistent Calculation

      iter #   1 total cpu time :   120.5 secs   av.it.:   6.4
      thresh= 1.000E-02 alpha_mix =  0.700 |ddv_scf|^2 =  1.024E-03

      iter #   2 total cpu time :   122.0 secs   av.it.:   7.8
      thresh= 3.201E-03 alpha_mix =  0.700 |ddv_scf|^2 =  3.719E-02

      iter #   3 total cpu time :   122.9 secs   av.it.:   6.4
      thresh= 1.000E-02 alpha_mix =  0.700 |ddv_scf|^2 =  8.928E-08

      iter #   4 total cpu time :   124.4 secs   av.it.:   8.9
      thresh= 2.988E-05 alpha_mix =  0.700 |ddv_scf|^2 =  4.278E-09

      iter #   5 total cpu time :   131.5 secs   av.it.:   8.9
      thresh= 6.541E-06 alpha_mix =  0.700 |ddv_scf|^2 =  9.666E-11

      iter #   6 total cpu time :   139.2 secs   av.it.:   8.3
      thresh= 9.832E-07 alpha_mix =  0.700 |ddv_scf|^2 =  2.528E-13

      iter #   7 total cpu time :   144.9 secs   av.it.:   9.6
      thresh= 5.027E-08 alpha_mix =  0.700 |ddv_scf|^2 =  2.018E-14

      iter #   8 total cpu time :   153.2 secs   av.it.:   8.4
      thresh= 1.421E-08 alpha_mix =  0.700 |ddv_scf|^2 =  3.884E-15

      iter #   9 total cpu time :   158.8 secs   av.it.:   7.4
      thresh= 6.232E-09 alpha_mix =  0.700 |ddv_scf|^2 =  2.269E-14

      iter #  10 total cpu time :   161.5 secs   av.it.:   6.3
      thresh= 1.506E-08 alpha_mix =  0.700 |ddv_scf|^2 =  5.596E-17

     End of self-consistent calculation

     Convergence has been achieved 


     Representation #  2 modes #   2  3

     Self-consistent Calculation

      iter #   1 total cpu time :   167.6 secs   av.it.:   5.5
      thresh= 1.000E-02 alpha_mix =  0.700 |ddv_scf|^2 =  2.694E-07

      iter #   2 total cpu time :   172.7 secs   av.it.:   9.4
      thresh= 5.190E-05 alpha_mix =  0.700 |ddv_scf|^2 =  1.639E-08

      iter #   3 total cpu time :   180.6 secs   av.it.:   9.6
      thresh= 1.280E-05 alpha_mix =  0.700 |ddv_scf|^2 =  1.327E-10

      iter #   4 total cpu time :   187.9 secs   av.it.:   9.1
      thresh= 1.152E-06 alpha_mix =  0.700 |ddv_scf|^2 =  2.407E-13

      iter #   5 total cpu time :   194.9 secs   av.it.:   9.1
      thresh= 4.906E-08 alpha_mix =  0.700 |ddv_scf|^2 =  4.164E-15

      iter #   6 total cpu time :   197.2 secs   av.it.:   7.7
      thresh= 6.453E-09 alpha_mix =  0.700 |ddv_scf|^2 =  1.892E-18

     End of self-consistent calculation

     Convergence has been achieved 
 
     Number of q in the star =    8
     List of q in the star:
          1  -0.250000000   0.250000000  -0.250000000
          2   0.250000000  -0.250000000  -0.250000000
          3   0.250000000  -0.250000000   0.250000000
          4  -0.250000000   0.250000000   0.250000000
          5   0.250000000   0.250000000  -0.250000000
          6  -0.250000000  -0.250000000  -0.250000000
          7  -0.250000000  -0.250000000   0.250000000
          8   0.250000000   0.250000000   0.250000000

     Diagonalizing the dynamical matrix

     q = (   -0.250000000   0.250000000  -0.250000000 ) 

 **************************************************************************
     freq (    1) =       2.672985 [THz] =      89.161177 [cm-1]
     freq (    2) =       2.672985 [THz] =      89.161177 [cm-1]
     freq (    3) =       7.398525 [THz] =     246.788242 [cm-1]
 **************************************************************************

     Mode symmetry, C_3v (3m)   point group:

     freq (  1 -  2) =         89.2  [cm-1]   --> E    L_3           
     freq (  3 -  3) =        246.8  [cm-1]   --> A_1  L_1           

     Calculation of q =   -0.3750000   0.3750000  -0.3750000
 
     G-vector sticks info
     --------------------
     sticks:   dense  smooth     PW     G-vecs:    dense   smooth      PW
     Sum        1057     517    199                22659     7991    1837
 


     bravais-lattice index     =            2
     lattice parameter (alat)  =       8.0041  a.u.
     unit-cell volume          =     128.1952 (a.u.)^3
     number of atoms/cell      =            1
     number of atomic types    =            1
     number of electrons       =         3.00
     number of Kohn-Sham states=            6
     kinetic-energy cutoff     =      60.0000  Ry
     charge density cutoff     =     480.0000  Ry
     Exchange-correlation      =  SLA  PW   PBX  PBC ( 1  4  3  4 0 0)

     celldm(1)=   8.004065  celldm(2)=   0.000000  celldm(3)=   0.000000
     celldm(4)=   0.000000  celldm(5)=   0.000000  celldm(6)=   0.000000

     crystal axes: (cart. coord. in units of alat)
               a(1) = (  -0.500000   0.000000   0.500000 )  
               a(2) = (   0.000000   0.500000   0.500000 )  
               a(3) = (  -0.500000   0.500000   0.000000 )  

     reciprocal axes: (cart. coord. in units 2 pi/alat)
               b(1) = ( -1.000000 -1.000000  1.000000 )  
               b(2) = (  1.000000  1.000000  1.000000 )  
               b(3) = ( -1.000000  1.000000 -1.000000 )  


     PseudoPot. # 1 for Li read from file:
     ../Li.pbe-s-gbrv14.UPF
     MD5 check sum: 7ca33c4f951f001da2db5c8738379802
     Pseudo is Ultrasoft, Zval =  3.0
     Generated by new atomic code, or converted to UPF format
     Using radial grid of  751 points,  5 beta functions with: 
                l(1) =   0
                l(2) =   0
                l(3) =   0
                l(4) =   1
                l(5) =   1
     Q(r) pseudized with 10 coefficients,  rinner =    1.150   1.150   1.150


     atomic species   valence    mass     pseudopotential
        Li             3.00     6.94100     Li( 1.00)

     48 Sym. Ops., with inversion, found



   Cartesian axes

     site n.     atom                  positions (alat units)
         1           Li  tau(   1) = (   0.0000000   0.0000000   0.0000000  )

     number of k points= 30856  Marzari-Vanderbilt smearing, width (Ry)=  0.0200

     Number of k-points >= 100: set verbosity='high' to print them.

     Dense  grid:    22659 G-vectors     FFT dimensions: (  40,  40,  40)

     Smooth grid:     7991 G-vectors     FFT dimensions: (  27,  27,  27)

     Largest allocated arrays     est. size (Mb)     dimensions
        Kohn-Sham Wavefunctions         0.09 Mb     (    1036,    6)
        NL pseudopotentials             0.14 Mb     (    1036,    9)
        Each V/rho on FFT grid          0.98 Mb     (   64000)
        Each G-vector array             0.17 Mb     (   22659)
        G-vector shells                 0.00 Mb     (     261)
     Largest temporary arrays     est. size (Mb)     dimensions
        Auxiliary wavefunctions         0.38 Mb     (    1036,   24)
        Each subspace H/S matrix        0.01 Mb     (      24,   24)
        Each <psi_i|beta_j> matrix      0.00 Mb     (       9,    6)

     The potential is recalculated from file :
     ./tmp/_ph0/li-fcc.save/charge-density.dat

     Starting wfc are    5 atomic +    1 random wfc

     Band Structure Calculation
     Davidson diagonalization with overlap

     ethr =  3.33E-10,  avg # of iterations = 15.3

     total cpu time spent up to now is       34.6 secs

     End of band structure calculation

     Number of k-points >= 100: set verbosity='high' to print the bands.

     the Fermi energy is     1.1444 ev

                                                                                

     bravais-lattice index     =            2
     lattice parameter (alat)  =       8.0041  a.u.
     unit-cell volume          =     128.1952 (a.u.)^3
     number of atoms/cell      =            1
     number of atomic types    =            1
     kinetic-energy cut-off    =      60.0000  Ry
     charge density cut-off    =     480.0000  Ry
     convergence threshold     =      1.0E-16
     beta                      =       0.7000
     number of iterations used =            4
     Exchange-correlation      =  SLA  PW   PBX  PBC ( 1  4  3  4 0 0)


     celldm(1)=    8.00407  celldm(2)=    0.00000  celldm(3)=    0.00000
     celldm(4)=    0.00000  celldm(5)=    0.00000  celldm(6)=    0.00000

     crystal axes: (cart. coord. in units of alat)
               a(1) = ( -0.5000  0.0000  0.5000 )  
               a(2) = (  0.0000  0.5000  0.5000 )  
               a(3) = ( -0.5000  0.5000  0.0000 )  

     reciprocal axes: (cart. coord. in units 2 pi/alat)
               b(1) = ( -1.0000 -1.0000  1.0000 )  
               b(2) = (  1.0000  1.0000  1.0000 )  
               b(3) = ( -1.0000  1.0000 -1.0000 )  


     Atoms inside the unit cell: 

     Cartesian axes

     site n.  atom      mass           positions (alat units)
        1     Li   6.9410   tau(    1) = (    0.00000    0.00000    0.00000  )

     Computing dynamical matrix for 
                    q = (  -0.3750000   0.3750000  -0.3750000 )
 
      6 Sym.Ops. (no q -> -q+G )


     G cutoff =  778.9377  (  22659 G-vectors)     FFT grid: ( 40, 40, 40)
     G cutoff =  389.4688  (   7991 G-vectors)  smooth grid: ( 27, 27, 27)

     number of k points= 30856  Marzari-Vanderbilt smearing, width (Ry)=  0.0200

     PseudoPot. # 1 for Li read from file:
     ../Li.pbe-s-gbrv14.UPF
     MD5 check sum: 7ca33c4f951f001da2db5c8738379802
     Pseudo is Ultrasoft, Zval =  3.0
     Generated by new atomic code, or converted to UPF format
     Using radial grid of  751 points,  5 beta functions with: 
                l(1) =   0
                l(2) =   0
                l(3) =   0
                l(4) =   1
                l(5) =   1
     Q(r) pseudized with 10 coefficients,  rinner =    1.150   1.150   1.150


     Mode symmetry, C_3v (3m)   point group:


     Atomic displacements:
     There are   2 irreducible representations

     Representation     1      1 modes -A_1  L_1  To be done

     Representation     2      2 modes -E    L_3  To be done



     Alpha used in Ewald sum =   2.8000
     PHONON       :  3m 4.93s CPU     3m30.40s WALL



     Representation #  1 mode #   1

     Self-consistent Calculation

      iter #   1 total cpu time :   211.4 secs   av.it.:   6.4
      thresh= 1.000E-02 alpha_mix =  0.700 |ddv_scf|^2 =  6.825E-05

      iter #   2 total cpu time :   213.6 secs   av.it.:   8.5
      thresh= 8.261E-04 alpha_mix =  0.700 |ddv_scf|^2 =  2.551E-04

      iter #   3 total cpu time :   216.0 secs   av.it.:   7.0
      thresh= 1.597E-03 alpha_mix =  0.700 |ddv_scf|^2 =  6.021E-08

      iter #   4 total cpu time :   225.0 secs   av.it.:   8.7
      thresh= 2.454E-05 alpha_mix =  0.700 |ddv_scf|^2 =  3.302E-09

      iter #   5 total cpu time :   227.2 secs   av.it.:   8.8
      thresh= 5.746E-06 alpha_mix =  0.700 |ddv_scf|^2 =  3.835E-12

      iter #   6 total cpu time :   228.3 secs   av.it.:   9.1
      thresh= 1.958E-07 alpha_mix =  0.700 |ddv_scf|^2 =  2.191E-13

      iter #   7 total cpu time :   229.8 secs   av.it.:   9.0
      thresh= 4.681E-08 alpha_mix =  0.700 |ddv_scf|^2 =  1.090E-15

      iter #   8 total cpu time :   231.0 secs   av.it.:   9.5
      thresh= 3.302E-09 alpha_mix =  0.700 |ddv_scf|^2 =  7.132E-16

      iter #   9 total cpu time :   232.0 secs   av.it.:   8.5
      thresh= 2.671E-09 alpha_mix =  0.700 |ddv_scf|^2 =  1.161E-17

     End of self-consistent calculation

     Convergence has been achieved 


     Representation #  2 modes #   2  3

     Self-consistent Calculation

      iter #   1 total cpu time :   235.3 secs   av.it.:   5.5
      thresh= 1.000E-02 alpha_mix =  0.700 |ddv_scf|^2 =  2.746E-07

      iter #   2 total cpu time :   238.8 secs   av.it.:   9.5
      thresh= 5.241E-05 alpha_mix =  0.700 |ddv_scf|^2 =  1.662E-08

      iter #   3 total cpu time :   248.0 secs   av.it.:   9.7
      thresh= 1.289E-05 alpha_mix =  0.700 |ddv_scf|^2 =  1.496E-10

      iter #   4 total cpu time :   251.2 secs   av.it.:   9.1
      thresh= 1.223E-06 alpha_mix =  0.700 |ddv_scf|^2 =  2.465E-13

      iter #   5 total cpu time :   253.4 secs   av.it.:   9.1
      thresh= 4.965E-08 alpha_mix =  0.700 |ddv_scf|^2 =  4.307E-15

      iter #   6 total cpu time :   256.4 secs   av.it.:   8.1
      thresh= 6.563E-09 alpha_mix =  0.700 |ddv_scf|^2 =  1.415E-18

     End of self-consistent calculation

     Convergence has been achieved 
 
     Number of q in the star =    8
     List of q in the star:
          1  -0.375000000   0.375000000  -0.375000000
          2   0.375000000  -0.375000000  -0.375000000
          3   0.375000000  -0.375000000   0.375000000
          4  -0.375000000   0.375000000   0.375000000
          5   0.375000000   0.375000000  -0.375000000
          6  -0.375000000  -0.375000000  -0.375000000
          7  -0.375000000  -0.375000000   0.375000000
          8   0.375000000   0.375000000   0.375000000

     Diagonalizing the dynamical matrix

     q = (   -0.375000000   0.375000000  -0.375000000 ) 

 **************************************************************************
     freq (    1) =       3.574112 [THz] =     119.219546 [cm-1]
     freq (    2) =       3.574112 [THz] =     119.219546 [cm-1]
     freq (    3) =       9.593758 [THz] =     320.013332 [cm-1]
 **************************************************************************

     Mode symmetry, C_3v (3m)   point group:

     freq (  1 -  2) =        119.2  [cm-1]   --> E    L_3           
     freq (  3 -  3) =        320.0  [cm-1]   --> A_1  L_1           

     Calculation of q =    0.5000000  -0.5000000   0.5000000
 
     G-vector sticks info
     --------------------
     sticks:   dense  smooth     PW     G-vecs:    dense   smooth      PW
     Sum        1057     517    199                22659     7991    1917
 


     bravais-lattice index     =            2
     lattice parameter (alat)  =       8.0041  a.u.
     unit-cell volume          =     128.1952 (a.u.)^3
     number of atoms/cell      =            1
     number of atomic types    =            1
     number of electrons       =         3.00
     number of Kohn-Sham states=            6
     kinetic-energy cutoff     =      60.0000  Ry
     charge density cutoff     =     480.0000  Ry
     Exchange-correlation      =  SLA  PW   PBX  PBC ( 1  4  3  4 0 0)

     celldm(1)=   8.004065  celldm(2)=   0.000000  celldm(3)=   0.000000
     celldm(4)=   0.000000  celldm(5)=   0.000000  celldm(6)=   0.000000

     crystal axes: (cart. coord. in units of alat)
               a(1) = (  -0.500000   0.000000   0.500000 )  
               a(2) = (   0.000000   0.500000   0.500000 )  
               a(3) = (  -0.500000   0.500000   0.000000 )  

     reciprocal axes: (cart. coord. in units 2 pi/alat)
               b(1) = ( -1.000000 -1.000000  1.000000 )  
               b(2) = (  1.000000  1.000000  1.000000 )  
               b(3) = ( -1.000000  1.000000 -1.000000 )  


     PseudoPot. # 1 for Li read from file:
     ../Li.pbe-s-gbrv14.UPF
     MD5 check sum: 7ca33c4f951f001da2db5c8738379802
     Pseudo is Ultrasoft, Zval =  3.0
     Generated by new atomic code, or converted to UPF format
     Using radial grid of  751 points,  5 beta functions with: 
                l(1) =   0
                l(2) =   0
                l(3) =   0
                l(4) =   1
                l(5) =   1
     Q(r) pseudized with 10 coefficients,  rinner =    1.150   1.150   1.150


     atomic species   valence    mass     pseudopotential
        Li             3.00     6.94100     Li( 1.00)

     48 Sym. Ops., with inversion, found



   Cartesian axes

     site n.     atom                  positions (alat units)
         1           Li  tau(   1) = (   0.0000000   0.0000000   0.0000000  )

     number of k points= 15428  Marzari-Vanderbilt smearing, width (Ry)=  0.0200

     Number of k-points >= 100: set verbosity='high' to print them.

     Dense  grid:    22659 G-vectors     FFT dimensions: (  40,  40,  40)

     Smooth grid:     7991 G-vectors     FFT dimensions: (  27,  27,  27)

     Largest allocated arrays     est. size (Mb)     dimensions
        Kohn-Sham Wavefunctions         0.09 Mb     (    1021,    6)
        NL pseudopotentials             0.14 Mb     (    1021,    9)
        Each V/rho on FFT grid          0.98 Mb     (   64000)
        Each G-vector array             0.17 Mb     (   22659)
        G-vector shells                 0.00 Mb     (     261)
     Largest temporary arrays     est. size (Mb)     dimensions
        Auxiliary wavefunctions         0.37 Mb     (    1021,   24)
        Each subspace H/S matrix        0.01 Mb     (      24,   24)
        Each <psi_i|beta_j> matrix      0.00 Mb     (       9,    6)

     The potential is recalculated from file :
     ./tmp/_ph0/li-fcc.save/charge-density.dat

     Starting wfc are    5 atomic +    1 random wfc

     Band Structure Calculation
     Davidson diagonalization with overlap

     ethr =  3.33E-10,  avg # of iterations = 15.3

     total cpu time spent up to now is       39.8 secs

     End of band structure calculation

     Number of k-points >= 100: set verbosity='high' to print the bands.

     the Fermi energy is     1.1444 ev

                                                                                

     bravais-lattice index     =            2
     lattice parameter (alat)  =       8.0041  a.u.
     unit-cell volume          =     128.1952 (a.u.)^3
     number of atoms/cell      =            1
     number of atomic types    =            1
     kinetic-energy cut-off    =      60.0000  Ry
     charge density cut-off    =     480.0000  Ry
     convergence threshold     =      1.0E-16
     beta                      =       0.7000
     number of iterations used =            4
     Exchange-correlation      =  SLA  PW   PBX  PBC ( 1  4  3  4 0 0)


     celldm(1)=    8.00407  celldm(2)=    0.00000  celldm(3)=    0.00000
     celldm(4)=    0.00000  celldm(5)=    0.00000  celldm(6)=    0.00000

     crystal axes: (cart. coord. in units of alat)
               a(1) = ( -0.5000  0.0000  0.5000 )  
               a(2) = (  0.0000  0.5000  0.5000 )  
               a(3) = ( -0.5000  0.5000  0.0000 )  

     reciprocal axes: (cart. coord. in units 2 pi/alat)
               b(1) = ( -1.0000 -1.0000  1.0000 )  
               b(2) = (  1.0000  1.0000  1.0000 )  
               b(3) = ( -1.0000  1.0000 -1.0000 )  


     Atoms inside the unit cell: 

     Cartesian axes

     site n.  atom      mass           positions (alat units)
        1     Li   6.9410   tau(    1) = (    0.00000    0.00000    0.00000  )

     Computing dynamical matrix for 
                    q = (   0.5000000  -0.5000000   0.5000000 )
 
     13 Sym.Ops. (with q -> -q+G )


     G cutoff =  778.9377  (  22659 G-vectors)     FFT grid: ( 40, 40, 40)
     G cutoff =  389.4688  (   7991 G-vectors)  smooth grid: ( 27, 27, 27)

     number of k points= 15428  Marzari-Vanderbilt smearing, width (Ry)=  0.0200

     PseudoPot. # 1 for Li read from file:
     ../Li.pbe-s-gbrv14.UPF
     MD5 check sum: 7ca33c4f951f001da2db5c8738379802
     Pseudo is Ultrasoft, Zval =  3.0
     Generated by new atomic code, or converted to UPF format
     Using radial grid of  751 points,  5 beta functions with: 
                l(1) =   0
                l(2) =   0
                l(3) =   0
                l(4) =   1
                l(5) =   1
     Q(r) pseudized with 10 coefficients,  rinner =    1.150   1.150   1.150


     Mode symmetry, D_3d (-3m)  point group:


     Atomic displacements:
     There are   2 irreducible representations

     Representation     1      1 modes -A_2u L_2'  To be done

     Representation     2      2 modes -E_u  L_3'  To be done



     Alpha used in Ewald sum =   2.8000
     PHONON       :  3m55.20s CPU     4m25.00s WALL



     Representation #  1 mode #   1

     Self-consistent Calculation

      iter #   1 total cpu time :   265.6 secs   av.it.:   6.3
      thresh= 1.000E-02 alpha_mix =  0.700 |ddv_scf|^2 =  1.787E-05

      iter #   2 total cpu time :   268.1 secs   av.it.:   8.7
      thresh= 4.227E-04 alpha_mix =  0.700 |ddv_scf|^2 =  7.714E-06

      iter #   3 total cpu time :   268.7 secs   av.it.:   7.9
      thresh= 2.777E-04 alpha_mix =  0.700 |ddv_scf|^2 =  2.029E-08

      iter #   4 total cpu time :   269.8 secs   av.it.:   8.8
      thresh= 1.424E-05 alpha_mix =  0.700 |ddv_scf|^2 =  1.210E-11

      iter #   5 total cpu time :   270.5 secs   av.it.:   8.3
      thresh= 3.479E-07 alpha_mix =  0.700 |ddv_scf|^2 =  7.494E-13

      iter #   6 total cpu time :   271.2 secs   av.it.:   8.3
      thresh= 8.657E-08 alpha_mix =  0.700 |ddv_scf|^2 =  3.185E-15

      iter #   7 total cpu time :   271.9 secs   av.it.:   8.9
      thresh= 5.644E-09 alpha_mix =  0.700 |ddv_scf|^2 =  2.391E-18

     End of self-consistent calculation

     Convergence has been achieved 


     Representation #  2 modes #   2  3

     Self-consistent Calculation

      iter #   1 total cpu time :   273.3 secs   av.it.:   5.4
      thresh= 1.000E-02 alpha_mix =  0.700 |ddv_scf|^2 =  2.768E-07

      iter #   2 total cpu time :   274.6 secs   av.it.:   9.3
      thresh= 5.261E-05 alpha_mix =  0.700 |ddv_scf|^2 =  1.669E-08

      iter #   3 total cpu time :   277.5 secs   av.it.:   9.6
      thresh= 1.292E-05 alpha_mix =  0.700 |ddv_scf|^2 =  1.539E-10

      iter #   4 total cpu time :   278.8 secs   av.it.:   8.9
      thresh= 1.241E-06 alpha_mix =  0.700 |ddv_scf|^2 =  2.469E-13

      iter #   5 total cpu time :   280.8 secs   av.it.:   9.0
      thresh= 4.969E-08 alpha_mix =  0.700 |ddv_scf|^2 =  4.494E-15

      iter #   6 total cpu time :   291.2 secs   av.it.:   7.9
      thresh= 6.704E-09 alpha_mix =  0.700 |ddv_scf|^2 =  9.733E-19

     End of self-consistent calculation

     Convergence has been achieved 
 
     Number of q in the star =    4
     List of q in the star:
          1   0.500000000  -0.500000000   0.500000000
          2   0.500000000   0.500000000   0.500000000
          3  -0.500000000   0.500000000   0.500000000
          4   0.500000000   0.500000000  -0.500000000

     Diagonalizing the dynamical matrix

     q = (    0.500000000  -0.500000000   0.500000000 ) 

 **************************************************************************
     freq (    1) =       3.916864 [THz] =     130.652518 [cm-1]
     freq (    2) =       3.916864 [THz] =     130.652518 [cm-1]
     freq (    3) =      10.311049 [THz] =     343.939573 [cm-1]
 **************************************************************************

     Mode symmetry, D_3d (-3m)  point group:

     freq (  1 -  2) =        130.7  [cm-1]   --> E_u  L_3'          
     freq (  3 -  3) =        343.9  [cm-1]   --> A_2u L_2'          

     Calculation of q =    0.0000000   0.2500000   0.0000000
 
     G-vector sticks info
     --------------------
     sticks:   dense  smooth     PW     G-vecs:    dense   smooth      PW
     Sum        1057     517    187                22659     7991    1687
 


     bravais-lattice index     =            2
     lattice parameter (alat)  =       8.0041  a.u.
     unit-cell volume          =     128.1952 (a.u.)^3
     number of atoms/cell      =            1
     number of atomic types    =            1
     number of electrons       =         3.00
     number of Kohn-Sham states=            6
     kinetic-energy cutoff     =      60.0000  Ry
     charge density cutoff     =     480.0000  Ry
     Exchange-correlation      =  SLA  PW   PBX  PBC ( 1  4  3  4 0 0)

     celldm(1)=   8.004065  celldm(2)=   0.000000  celldm(3)=   0.000000
     celldm(4)=   0.000000  celldm(5)=   0.000000  celldm(6)=   0.000000

     crystal axes: (cart. coord. in units of alat)
               a(1) = (  -0.500000   0.000000   0.500000 )  
               a(2) = (   0.000000   0.500000   0.500000 )  
               a(3) = (  -0.500000   0.500000   0.000000 )  

     reciprocal axes: (cart. coord. in units 2 pi/alat)
               b(1) = ( -1.000000 -1.000000  1.000000 )  
               b(2) = (  1.000000  1.000000  1.000000 )  
               b(3) = ( -1.000000  1.000000 -1.000000 )  


     PseudoPot. # 1 for Li read from file:
     ../Li.pbe-s-gbrv14.UPF
     MD5 check sum: 7ca33c4f951f001da2db5c8738379802
     Pseudo is Ultrasoft, Zval =  3.0
     Generated by new atomic code, or converted to UPF format
     Using radial grid of  751 points,  5 beta functions with: 
                l(1) =   0
                l(2) =   0
                l(3) =   0
                l(4) =   1
                l(5) =   1
     Q(r) pseudized with 10 coefficients,  rinner =    1.150   1.150   1.150


     atomic species   valence    mass     pseudopotential
        Li             3.00     6.94100     Li( 1.00)

     48 Sym. Ops., with inversion, found



   Cartesian axes

     site n.     atom                  positions (alat units)
         1           Li  tau(   1) = (   0.0000000   0.0000000   0.0000000  )

     number of k points= 22736  Marzari-Vanderbilt smearing, width (Ry)=  0.0200

     Number of k-points >= 100: set verbosity='high' to print them.

     Dense  grid:    22659 G-vectors     FFT dimensions: (  40,  40,  40)

     Smooth grid:     7991 G-vectors     FFT dimensions: (  27,  27,  27)

     Largest allocated arrays     est. size (Mb)     dimensions
        Kohn-Sham Wavefunctions         0.09 Mb     (    1021,    6)
        NL pseudopotentials             0.14 Mb     (    1021,    9)
        Each V/rho on FFT grid          0.98 Mb     (   64000)
        Each G-vector array             0.17 Mb     (   22659)
        G-vector shells                 0.00 Mb     (     261)
     Largest temporary arrays     est. size (Mb)     dimensions
        Auxiliary wavefunctions         0.37 Mb     (    1021,   24)
        Each subspace H/S matrix        0.01 Mb     (      24,   24)
        Each <psi_i|beta_j> matrix      0.00 Mb     (       9,    6)

     The potential is recalculated from file :
     ./tmp/_ph0/li-fcc.save/charge-density.dat

     Starting wfc are    5 atomic +    1 random wfc

     Band Structure Calculation
     Davidson diagonalization with overlap

     ethr =  3.33E-10,  avg # of iterations = 15.3

     total cpu time spent up to now is       46.9 secs

     End of band structure calculation

     Number of k-points >= 100: set verbosity='high' to print the bands.

     the Fermi energy is     1.1444 ev

                                                                                

     bravais-lattice index     =            2
     lattice parameter (alat)  =       8.0041  a.u.
     unit-cell volume          =     128.1952 (a.u.)^3
     number of atoms/cell      =            1
     number of atomic types    =            1
     kinetic-energy cut-off    =      60.0000  Ry
     charge density cut-off    =     480.0000  Ry
     convergence threshold     =      1.0E-16
     beta                      =       0.7000
     number of iterations used =            4
     Exchange-correlation      =  SLA  PW   PBX  PBC ( 1  4  3  4 0 0)


     celldm(1)=    8.00407  celldm(2)=    0.00000  celldm(3)=    0.00000
     celldm(4)=    0.00000  celldm(5)=    0.00000  celldm(6)=    0.00000

     crystal axes: (cart. coord. in units of alat)
               a(1) = ( -0.5000  0.0000  0.5000 )  
               a(2) = (  0.0000  0.5000  0.5000 )  
               a(3) = ( -0.5000  0.5000  0.0000 )  

     reciprocal axes: (cart. coord. in units 2 pi/alat)
               b(1) = ( -1.0000 -1.0000  1.0000 )  
               b(2) = (  1.0000  1.0000  1.0000 )  
               b(3) = ( -1.0000  1.0000 -1.0000 )  


     Atoms inside the unit cell: 

     Cartesian axes

     site n.  atom      mass           positions (alat units)
        1     Li   6.9410   tau(    1) = (    0.00000    0.00000    0.00000  )

     Computing dynamical matrix for 
                    q = (   0.0000000   0.2500000   0.0000000 )
 
      8 Sym.Ops. (no q -> -q+G )


     G cutoff =  778.9377  (  22659 G-vectors)     FFT grid: ( 40, 40, 40)
     G cutoff =  389.4688  (   7991 G-vectors)  smooth grid: ( 27, 27, 27)

     number of k points= 22736  Marzari-Vanderbilt smearing, width (Ry)=  0.0200

     PseudoPot. # 1 for Li read from file:
     ../Li.pbe-s-gbrv14.UPF
     MD5 check sum: 7ca33c4f951f001da2db5c8738379802
     Pseudo is Ultrasoft, Zval =  3.0
     Generated by new atomic code, or converted to UPF format
     Using radial grid of  751 points,  5 beta functions with: 
                l(1) =   0
                l(2) =   0
                l(3) =   0
                l(4) =   1
                l(5) =   1
     Q(r) pseudized with 10 coefficients,  rinner =    1.150   1.150   1.150


     Mode symmetry, C_4v (4mm)  point group:


     Atomic displacements:
     There are   2 irreducible representations

     Representation     1      1 modes -A_1  G_1 D_1  To be done

     Representation     2      2 modes -E    G_5 D_5  To be done



     Alpha used in Ewald sum =   2.8000
     PHONON       :  4m53.51s CPU     5m32.04s WALL



     Representation #  1 mode #   1

     Self-consistent Calculation

      iter #   1 total cpu time :   332.9 secs   av.it.:   6.4
      thresh= 1.000E-02 alpha_mix =  0.700 |ddv_scf|^2 =  3.640E-02

      iter #   2 total cpu time :   335.7 secs   av.it.:   7.8
      thresh= 1.000E-02 alpha_mix =  0.700 |ddv_scf|^2 =  1.771E+01

      iter #   3 total cpu time :   336.5 secs   av.it.:   7.7
      thresh= 1.000E-02 alpha_mix =  0.700 |ddv_scf|^2 =  7.144E-05

      iter #   4 total cpu time :   339.2 secs   av.it.:   6.2
      thresh= 8.452E-04 alpha_mix =  0.700 |ddv_scf|^2 =  3.121E-08

      iter #   5 total cpu time :   340.1 secs   av.it.:   8.5
      thresh= 1.767E-05 alpha_mix =  0.700 |ddv_scf|^2 =  1.406E-10

      iter #   6 total cpu time :   342.1 secs   av.it.:   8.3
      thresh= 1.186E-06 alpha_mix =  0.700 |ddv_scf|^2 =  1.731E-11

      iter #   7 total cpu time :   344.9 secs   av.it.:   8.3
      thresh= 4.161E-07 alpha_mix =  0.700 |ddv_scf|^2 =  5.424E-10

      iter #   8 total cpu time :   348.8 secs   av.it.:   4.4
      thresh= 2.329E-06 alpha_mix =  0.700 |ddv_scf|^2 =  7.297E-14

      iter #   9 total cpu time :   351.0 secs   av.it.:   8.2
      thresh= 2.701E-08 alpha_mix =  0.700 |ddv_scf|^2 =  1.039E-14

      iter #  10 total cpu time :   352.0 secs   av.it.:   7.1
      thresh= 1.019E-08 alpha_mix =  0.700 |ddv_scf|^2 =  6.791E-15

      iter #  11 total cpu time :   352.7 secs   av.it.:   6.1
      thresh= 8.241E-09 alpha_mix =  0.700 |ddv_scf|^2 =  3.634E-18

     End of self-consistent calculation

     Convergence has been achieved 


     Representation #  2 modes #   2  3

     Self-consistent Calculation

      iter #   1 total cpu time :   355.7 secs   av.it.:   5.5
      thresh= 1.000E-02 alpha_mix =  0.700 |ddv_scf|^2 =  2.708E-07

      iter #   2 total cpu time :   358.5 secs   av.it.:   9.3
      thresh= 5.204E-05 alpha_mix =  0.700 |ddv_scf|^2 =  1.638E-08

      iter #   3 total cpu time :   360.8 secs   av.it.:   9.5
      thresh= 1.280E-05 alpha_mix =  0.700 |ddv_scf|^2 =  1.514E-10

      iter #   4 total cpu time :   364.2 secs   av.it.:   8.9
      thresh= 1.230E-06 alpha_mix =  0.700 |ddv_scf|^2 =  2.263E-13

      iter #   5 total cpu time :   367.9 secs   av.it.:   8.9
      thresh= 4.757E-08 alpha_mix =  0.700 |ddv_scf|^2 =  4.234E-15

      iter #   6 total cpu time :   369.5 secs   av.it.:   8.1
      thresh= 6.507E-09 alpha_mix =  0.700 |ddv_scf|^2 =  2.500E-18

     End of self-consistent calculation

     Convergence has been achieved 
 
     Number of q in the star =    6
     List of q in the star:
          1   0.000000000   0.250000000   0.000000000
          2   0.000000000  -0.250000000   0.000000000
          3   0.250000000   0.000000000   0.000000000
          4   0.000000000   0.000000000   0.250000000
          5   0.000000000   0.000000000  -0.250000000
          6  -0.250000000   0.000000000   0.000000000

     Diagonalizing the dynamical matrix

     q = (    0.000000000   0.250000000   0.000000000 ) 

 **************************************************************************
     freq (    1) =       2.494334 [THz] =      83.202018 [cm-1]
     freq (    2) =       2.494334 [THz] =      83.202018 [cm-1]
     freq (    3) =       3.352009 [THz] =     111.810991 [cm-1]
 **************************************************************************

     Mode symmetry, C_4v (4mm)  point group:

     freq (  1 -  2) =         83.2  [cm-1]   --> E    G_5 D_5       
     freq (  3 -  3) =        111.8  [cm-1]   --> A_1  G_1 D_1       

     Calculation of q =   -0.1250000   0.3750000  -0.1250000
 
     G-vector sticks info
     --------------------
     sticks:   dense  smooth     PW     G-vecs:    dense   smooth      PW
     Sum        1057     517    199                22659     7991    1807
 


     bravais-lattice index     =            2
     lattice parameter (alat)  =       8.0041  a.u.
     unit-cell volume          =     128.1952 (a.u.)^3
     number of atoms/cell      =            1
     number of atomic types    =            1
     number of electrons       =         3.00
     number of Kohn-Sham states=            6
     kinetic-energy cutoff     =      60.0000  Ry
     charge density cutoff     =     480.0000  Ry
     Exchange-correlation      =  SLA  PW   PBX  PBC ( 1  4  3  4 0 0)

     celldm(1)=   8.004065  celldm(2)=   0.000000  celldm(3)=   0.000000
     celldm(4)=   0.000000  celldm(5)=   0.000000  celldm(6)=   0.000000

     crystal axes: (cart. coord. in units of alat)
               a(1) = (  -0.500000   0.000000   0.500000 )  
               a(2) = (   0.000000   0.500000   0.500000 )  
               a(3) = (  -0.500000   0.500000   0.000000 )  

     reciprocal axes: (cart. coord. in units 2 pi/alat)
               b(1) = ( -1.000000 -1.000000  1.000000 )  
               b(2) = (  1.000000  1.000000  1.000000 )  
               b(3) = ( -1.000000  1.000000 -1.000000 )  


     PseudoPot. # 1 for Li read from file:
     ../Li.pbe-s-gbrv14.UPF
     MD5 check sum: 7ca33c4f951f001da2db5c8738379802
     Pseudo is Ultrasoft, Zval =  3.0
     Generated by new atomic code, or converted to UPF format
     Using radial grid of  751 points,  5 beta functions with: 
                l(1) =   0
                l(2) =   0
                l(3) =   0
                l(4) =   1
                l(5) =   1
     Q(r) pseudized with 10 coefficients,  rinner =    1.150   1.150   1.150


     atomic species   valence    mass     pseudopotential
        Li             3.00     6.94100     Li( 1.00)

     48 Sym. Ops., with inversion, found



   Cartesian axes

     site n.     atom                  positions (alat units)
         1           Li  tau(   1) = (   0.0000000   0.0000000   0.0000000  )

     number of k points= 89376  Marzari-Vanderbilt smearing, width (Ry)=  0.0200

     Number of k-points >= 100: set verbosity='high' to print them.

     Dense  grid:    22659 G-vectors     FFT dimensions: (  40,  40,  40)

     Smooth grid:     7991 G-vectors     FFT dimensions: (  27,  27,  27)

     Largest allocated arrays     est. size (Mb)     dimensions
        Kohn-Sham Wavefunctions         0.09 Mb     (    1036,    6)
        NL pseudopotentials             0.14 Mb     (    1036,    9)
        Each V/rho on FFT grid          0.98 Mb     (   64000)
        Each G-vector array             0.17 Mb     (   22659)
        G-vector shells                 0.00 Mb     (     261)
     Largest temporary arrays     est. size (Mb)     dimensions
        Auxiliary wavefunctions         0.38 Mb     (    1036,   24)
        Each subspace H/S matrix        0.01 Mb     (      24,   24)
        Each <psi_i|beta_j> matrix      0.00 Mb     (       9,    6)

     The potential is recalculated from file :
     ./tmp/_ph0/li-fcc.save/charge-density.dat

     Starting wfc are    5 atomic +    1 random wfc

     Band Structure Calculation
     Davidson diagonalization with overlap

     ethr =  3.33E-10,  avg # of iterations = 15.3

     total cpu time spent up to now is       77.0 secs

     End of band structure calculation

     Number of k-points >= 100: set verbosity='high' to print the bands.

     the Fermi energy is     1.1444 ev

                                                                                

     bravais-lattice index     =            2
     lattice parameter (alat)  =       8.0041  a.u.
     unit-cell volume          =     128.1952 (a.u.)^3
     number of atoms/cell      =            1
     number of atomic types    =            1
     kinetic-energy cut-off    =      60.0000  Ry
     charge density cut-off    =     480.0000  Ry
     convergence threshold     =      1.0E-16
     beta                      =       0.7000
     number of iterations used =            4
     Exchange-correlation      =  SLA  PW   PBX  PBC ( 1  4  3  4 0 0)


     celldm(1)=    8.00407  celldm(2)=    0.00000  celldm(3)=    0.00000
     celldm(4)=    0.00000  celldm(5)=    0.00000  celldm(6)=    0.00000

     crystal axes: (cart. coord. in units of alat)
               a(1) = ( -0.5000  0.0000  0.5000 )  
               a(2) = (  0.0000  0.5000  0.5000 )  
               a(3) = ( -0.5000  0.5000  0.0000 )  

     reciprocal axes: (cart. coord. in units 2 pi/alat)
               b(1) = ( -1.0000 -1.0000  1.0000 )  
               b(2) = (  1.0000  1.0000  1.0000 )  
               b(3) = ( -1.0000  1.0000 -1.0000 )  


     Atoms inside the unit cell: 

     Cartesian axes

     site n.  atom      mass           positions (alat units)
        1     Li   6.9410   tau(    1) = (    0.00000    0.00000    0.00000  )

     Computing dynamical matrix for 
                    q = (  -0.1250000   0.3750000  -0.1250000 )
 
      2 Sym.Ops. (no q -> -q+G )


     G cutoff =  778.9377  (  22659 G-vectors)     FFT grid: ( 40, 40, 40)
     G cutoff =  389.4688  (   7991 G-vectors)  smooth grid: ( 27, 27, 27)

     number of k points= 89376  Marzari-Vanderbilt smearing, width (Ry)=  0.0200

     PseudoPot. # 1 for Li read from file:
     ../Li.pbe-s-gbrv14.UPF
     MD5 check sum: 7ca33c4f951f001da2db5c8738379802
     Pseudo is Ultrasoft, Zval =  3.0
     Generated by new atomic code, or converted to UPF format
     Using radial grid of  751 points,  5 beta functions with: 
                l(1) =   0
                l(2) =   0
                l(3) =   0
                l(4) =   1
                l(5) =   1
     Q(r) pseudized with 10 coefficients,  rinner =    1.150   1.150   1.150


     Mode symmetry, C_s (m)     point group:


     Atomic displacements:
     There are   3 irreducible representations

     Representation     1      1 modes -A'  To be done

     Representation     2      1 modes -A'  To be done

     Representation     3      1 modes -A''  To be done



     Alpha used in Ewald sum =   2.8000
     PHONON       :  5m54.35s CPU     6m40.15s WALL



     Representation #  1 mode #   1

     Self-consistent Calculation

      iter #   1 total cpu time :   403.0 secs   av.it.:   6.5
      thresh= 1.000E-02 alpha_mix =  0.700 |ddv_scf|^2 =  1.218E-03

      iter #   2 total cpu time :   413.6 secs   av.it.:   7.8
      thresh= 3.490E-03 alpha_mix =  0.700 |ddv_scf|^2 =  5.655E-02

      iter #   3 total cpu time :   417.2 secs   av.it.:   6.4
      thresh= 1.000E-02 alpha_mix =  0.700 |ddv_scf|^2 =  1.010E-07

      iter #   4 total cpu time :   420.1 secs   av.it.:   9.0
      thresh= 3.177E-05 alpha_mix =  0.700 |ddv_scf|^2 =  6.202E-09

      iter #   5 total cpu time :   428.3 secs   av.it.:   9.0
      thresh= 7.875E-06 alpha_mix =  0.700 |ddv_scf|^2 =  1.004E-10

      iter #   6 total cpu time :   434.3 secs   av.it.:   8.7
      thresh= 1.002E-06 alpha_mix =  0.700 |ddv_scf|^2 =  2.862E-11

      iter #   7 total cpu time :   441.9 secs   av.it.:   6.2
      thresh= 5.350E-07 alpha_mix =  0.700 |ddv_scf|^2 =  2.572E-12

      iter #   8 total cpu time :   445.5 secs   av.it.:   8.1
      thresh= 1.604E-07 alpha_mix =  0.700 |ddv_scf|^2 =  3.834E-14

      iter #   9 total cpu time :   449.3 secs   av.it.:   8.9
      thresh= 1.958E-08 alpha_mix =  0.700 |ddv_scf|^2 =  2.963E-14

      iter #  10 total cpu time :   451.9 secs   av.it.:   7.3
      thresh= 1.721E-08 alpha_mix =  0.700 |ddv_scf|^2 =  3.211E-16

      iter #  11 total cpu time :   454.7 secs   av.it.:   8.6
      thresh= 1.792E-09 alpha_mix =  0.700 |ddv_scf|^2 =  1.368E-18

     End of self-consistent calculation

     Convergence has been achieved 


     Representation #  2 mode #   2

     Self-consistent Calculation

      iter #   1 total cpu time :   458.0 secs   av.it.:   6.2
      thresh= 1.000E-02 alpha_mix =  0.700 |ddv_scf|^2 =  1.848E-04

      iter #   2 total cpu time :   462.1 secs   av.it.:   7.9
      thresh= 1.359E-03 alpha_mix =  0.700 |ddv_scf|^2 =  8.528E-03

      iter #   3 total cpu time :   465.1 secs   av.it.:   5.7
      thresh= 9.235E-03 alpha_mix =  0.700 |ddv_scf|^2 =  5.516E-08

      iter #   4 total cpu time :   468.2 secs   av.it.:   9.2
      thresh= 2.349E-05 alpha_mix =  0.700 |ddv_scf|^2 =  3.039E-09

      iter #   5 total cpu time :   472.9 secs   av.it.:   9.0
      thresh= 5.513E-06 alpha_mix =  0.700 |ddv_scf|^2 =  5.318E-11

      iter #   6 total cpu time :   477.0 secs   av.it.:   8.8
      thresh= 7.292E-07 alpha_mix =  0.700 |ddv_scf|^2 =  5.472E-12

      iter #   7 total cpu time :   494.8 secs   av.it.:   7.1
      thresh= 2.339E-07 alpha_mix =  0.700 |ddv_scf|^2 =  2.126E-11

      iter #   8 total cpu time :   503.2 secs   av.it.:   6.6
      thresh= 4.611E-07 alpha_mix =  0.700 |ddv_scf|^2 =  1.465E-12

      iter #   9 total cpu time :   508.8 secs   av.it.:   6.4
      thresh= 1.210E-07 alpha_mix =  0.700 |ddv_scf|^2 =  3.919E-13

      iter #  10 total cpu time :   511.8 secs   av.it.:   7.6
      thresh= 6.260E-08 alpha_mix =  0.700 |ddv_scf|^2 =  1.515E-16

      iter #  11 total cpu time :   516.1 secs   av.it.:   9.1
      thresh= 1.231E-09 alpha_mix =  0.700 |ddv_scf|^2 =  1.022E-17

     End of self-consistent calculation

     Convergence has been achieved 


     Representation #  3 mode #   3

     Self-consistent Calculation

      iter #   1 total cpu time :   525.0 secs   av.it.:   5.5
      thresh= 1.000E-02 alpha_mix =  0.700 |ddv_scf|^2 =  1.121E-06

      iter #   2 total cpu time :   536.5 secs   av.it.:   8.6
      thresh= 1.059E-04 alpha_mix =  0.700 |ddv_scf|^2 =  6.694E-08

      iter #   3 total cpu time :   541.1 secs   av.it.:   8.9
      thresh= 2.587E-05 alpha_mix =  0.700 |ddv_scf|^2 =  8.443E-10

      iter #   4 total cpu time :   553.8 secs   av.it.:   8.2
      thresh= 2.906E-06 alpha_mix =  0.700 |ddv_scf|^2 =  9.569E-13

      iter #   5 total cpu time :   557.1 secs   av.it.:   8.4
      thresh= 9.782E-08 alpha_mix =  0.700 |ddv_scf|^2 =  1.807E-14

      iter #   6 total cpu time :   559.7 secs   av.it.:   7.7
      thresh= 1.344E-08 alpha_mix =  0.700 |ddv_scf|^2 =  1.844E-17

     End of self-consistent calculation

     Convergence has been achieved 
 
     Number of q in the star =   24
     List of q in the star:
          1  -0.125000000   0.375000000  -0.125000000
          2  -0.125000000   0.375000000   0.125000000
          3   0.125000000   0.375000000  -0.125000000
          4   0.125000000   0.375000000   0.125000000
          5   0.125000000  -0.375000000   0.125000000
          6   0.375000000  -0.125000000   0.125000000
          7   0.125000000  -0.125000000   0.375000000
          8  -0.125000000  -0.375000000  -0.125000000
          9   0.125000000  -0.375000000  -0.125000000
         10  -0.125000000  -0.375000000   0.125000000
         11   0.125000000  -0.125000000  -0.375000000
         12   0.375000000  -0.125000000  -0.125000000
         13  -0.375000000  -0.125000000   0.125000000
         14   0.375000000   0.125000000   0.125000000
         15  -0.125000000  -0.125000000   0.375000000
         16   0.125000000   0.125000000   0.375000000
         17  -0.375000000   0.125000000  -0.125000000
         18  -0.125000000   0.125000000  -0.375000000
         19  -0.375000000  -0.125000000  -0.125000000
         20   0.125000000   0.125000000  -0.375000000
         21   0.375000000   0.125000000  -0.125000000
         22  -0.125000000  -0.125000000  -0.375000000
         23  -0.375000000   0.125000000   0.125000000
         24  -0.125000000   0.125000000   0.375000000

     Diagonalizing the dynamical matrix

     q = (   -0.125000000   0.375000000  -0.125000000 ) 

 **************************************************************************
     freq (    1) =       3.547306 [THz] =     118.325385 [cm-1]
     freq (    2) =       3.616914 [THz] =     120.647271 [cm-1]
     freq (    3) =       6.390239 [THz] =     213.155418 [cm-1]
 **************************************************************************

     Mode symmetry, C_s (m)     point group:

     freq (  1 -  1) =        118.3  [cm-1]   --> A'                 
     freq (  2 -  2) =        120.6  [cm-1]   --> A''                
     freq (  3 -  3) =        213.2  [cm-1]   --> A'                 

     Calculation of q =   -0.2500000   0.5000000  -0.2500000
 
     G-vector sticks info
     --------------------
     sticks:   dense  smooth     PW     G-vecs:    dense   smooth      PW
     Sum        1057     517    199                22659     7991    1837
 


     bravais-lattice index     =            2
     lattice parameter (alat)  =       8.0041  a.u.
     unit-cell volume          =     128.1952 (a.u.)^3
     number of atoms/cell      =            1
     number of atomic types    =            1
     number of electrons       =         3.00
     number of Kohn-Sham states=            6
     kinetic-energy cutoff     =      60.0000  Ry
     charge density cutoff     =     480.0000  Ry
     Exchange-correlation      =  SLA  PW   PBX  PBC ( 1  4  3  4 0 0)

     celldm(1)=   8.004065  celldm(2)=   0.000000  celldm(3)=   0.000000
     celldm(4)=   0.000000  celldm(5)=   0.000000  celldm(6)=   0.000000

     crystal axes: (cart. coord. in units of alat)
               a(1) = (  -0.500000   0.000000   0.500000 )  
               a(2) = (   0.000000   0.500000   0.500000 )  
               a(3) = (  -0.500000   0.500000   0.000000 )  

     reciprocal axes: (cart. coord. in units 2 pi/alat)
               b(1) = ( -1.000000 -1.000000  1.000000 )  
               b(2) = (  1.000000  1.000000  1.000000 )  
               b(3) = ( -1.000000  1.000000 -1.000000 )  


     PseudoPot. # 1 for Li read from file:
     ../Li.pbe-s-gbrv14.UPF
     MD5 check sum: 7ca33c4f951f001da2db5c8738379802
     Pseudo is Ultrasoft, Zval =  3.0
     Generated by new atomic code, or converted to UPF format
     Using radial grid of  751 points,  5 beta functions with: 
                l(1) =   0
                l(2) =   0
                l(3) =   0
                l(4) =   1
                l(5) =   1
     Q(r) pseudized with 10 coefficients,  rinner =    1.150   1.150   1.150


     atomic species   valence    mass     pseudopotential
        Li             3.00     6.94100     Li( 1.00)

     48 Sym. Ops., with inversion, found



   Cartesian axes

     site n.     atom                  positions (alat units)
         1           Li  tau(   1) = (   0.0000000   0.0000000   0.0000000  )

     number of k points= 89376  Marzari-Vanderbilt smearing, width (Ry)=  0.0200

     Number of k-points >= 100: set verbosity='high' to print them.

     Dense  grid:    22659 G-vectors     FFT dimensions: (  40,  40,  40)

     Smooth grid:     7991 G-vectors     FFT dimensions: (  27,  27,  27)

     Largest allocated arrays     est. size (Mb)     dimensions
        Kohn-Sham Wavefunctions         0.09 Mb     (    1021,    6)
        NL pseudopotentials             0.14 Mb     (    1021,    9)
        Each V/rho on FFT grid          0.98 Mb     (   64000)
        Each G-vector array             0.17 Mb     (   22659)
        G-vector shells                 0.00 Mb     (     261)
     Largest temporary arrays     est. size (Mb)     dimensions
        Auxiliary wavefunctions         0.37 Mb     (    1021,   24)
        Each subspace H/S matrix        0.01 Mb     (      24,   24)
        Each <psi_i|beta_j> matrix      0.00 Mb     (       9,    6)

     The potential is recalculated from file :
     ./tmp/_ph0/li-fcc.save/charge-density.dat

     Starting wfc are    5 atomic +    1 random wfc

     Band Structure Calculation
     Davidson diagonalization with overlap

     ethr =  3.33E-10,  avg # of iterations = 15.3

     total cpu time spent up to now is      101.8 secs

     End of band structure calculation

     Number of k-points >= 100: set verbosity='high' to print the bands.

     the Fermi energy is     1.1444 ev

                                                                                

     bravais-lattice index     =            2
     lattice parameter (alat)  =       8.0041  a.u.
     unit-cell volume          =     128.1952 (a.u.)^3
     number of atoms/cell      =            1
     number of atomic types    =            1
     kinetic-energy cut-off    =      60.0000  Ry
     charge density cut-off    =     480.0000  Ry
     convergence threshold     =      1.0E-16
     beta                      =       0.7000
     number of iterations used =            4
     Exchange-correlation      =  SLA  PW   PBX  PBC ( 1  4  3  4 0 0)


     celldm(1)=    8.00407  celldm(2)=    0.00000  celldm(3)=    0.00000
     celldm(4)=    0.00000  celldm(5)=    0.00000  celldm(6)=    0.00000

     crystal axes: (cart. coord. in units of alat)
               a(1) = ( -0.5000  0.0000  0.5000 )  
               a(2) = (  0.0000  0.5000  0.5000 )  
               a(3) = ( -0.5000  0.5000  0.0000 )  

     reciprocal axes: (cart. coord. in units 2 pi/alat)
               b(1) = ( -1.0000 -1.0000  1.0000 )  
               b(2) = (  1.0000  1.0000  1.0000 )  
               b(3) = ( -1.0000  1.0000 -1.0000 )  


     Atoms inside the unit cell: 

     Cartesian axes

     site n.  atom      mass           positions (alat units)
        1     Li   6.9410   tau(    1) = (    0.00000    0.00000    0.00000  )

     Computing dynamical matrix for 
                    q = (  -0.2500000   0.5000000  -0.2500000 )
 
      2 Sym.Ops. (no q -> -q+G )


     G cutoff =  778.9377  (  22659 G-vectors)     FFT grid: ( 40, 40, 40)
     G cutoff =  389.4688  (   7991 G-vectors)  smooth grid: ( 27, 27, 27)

     number of k points= 89376  Marzari-Vanderbilt smearing, width (Ry)=  0.0200

     PseudoPot. # 1 for Li read from file:
     ../Li.pbe-s-gbrv14.UPF
     MD5 check sum: 7ca33c4f951f001da2db5c8738379802
     Pseudo is Ultrasoft, Zval =  3.0
     Generated by new atomic code, or converted to UPF format
     Using radial grid of  751 points,  5 beta functions with: 
                l(1) =   0
                l(2) =   0
                l(3) =   0
                l(4) =   1
                l(5) =   1
     Q(r) pseudized with 10 coefficients,  rinner =    1.150   1.150   1.150


     Mode symmetry, C_s (m)     point group:


     Atomic displacements:
     There are   3 irreducible representations

     Representation     1      1 modes -A'  To be done

     Representation     2      1 modes -A'  To be done

     Representation     3      1 modes -A''  To be done



     Alpha used in Ewald sum =   2.8000
     PHONON       :  8m49.31s CPU     9m54.34s WALL



     Representation #  1 mode #   1

     Self-consistent Calculation

      iter #   1 total cpu time :   597.2 secs   av.it.:   6.5
      thresh= 1.000E-02 alpha_mix =  0.700 |ddv_scf|^2 =  8.359E-05

      iter #   2 total cpu time :   606.0 secs   av.it.:   8.3
      thresh= 9.143E-04 alpha_mix =  0.700 |ddv_scf|^2 =  4.794E-04

      iter #   3 total cpu time :   613.2 secs   av.it.:   6.9
      thresh= 2.189E-03 alpha_mix =  0.700 |ddv_scf|^2 =  5.410E-08

      iter #   4 total cpu time :   626.3 secs   av.it.:   9.0
      thresh= 2.326E-05 alpha_mix =  0.700 |ddv_scf|^2 =  1.348E-09

      iter #   5 total cpu time :   637.2 secs   av.it.:   9.1
      thresh= 3.672E-06 alpha_mix =  0.700 |ddv_scf|^2 =  2.058E-11

      iter #   6 total cpu time :   641.0 secs   av.it.:   8.9
      thresh= 4.537E-07 alpha_mix =  0.700 |ddv_scf|^2 =  1.459E-13

      iter #   7 total cpu time :   643.9 secs   av.it.:   9.2
      thresh= 3.820E-08 alpha_mix =  0.700 |ddv_scf|^2 =  3.134E-13

      iter #   8 total cpu time :   648.3 secs   av.it.:   7.0
      thresh= 5.598E-08 alpha_mix =  0.700 |ddv_scf|^2 =  5.815E-15

      iter #   9 total cpu time :   653.5 secs   av.it.:   9.0
      thresh= 7.626E-09 alpha_mix =  0.700 |ddv_scf|^2 =  8.863E-17

     End of self-consistent calculation

     Convergence has been achieved 


     Representation #  2 mode #   2

     Self-consistent Calculation

      iter #   1 total cpu time :   657.4 secs   av.it.:   6.3
      thresh= 1.000E-02 alpha_mix =  0.700 |ddv_scf|^2 =  2.206E-05

      iter #   2 total cpu time :   661.1 secs   av.it.:   8.7
      thresh= 4.697E-04 alpha_mix =  0.700 |ddv_scf|^2 =  1.185E-04

      iter #   3 total cpu time :   663.7 secs   av.it.:   6.9
      thresh= 1.089E-03 alpha_mix =  0.700 |ddv_scf|^2 =  5.414E-08

      iter #   4 total cpu time :   672.2 secs   av.it.:   9.0
      thresh= 2.327E-05 alpha_mix =  0.700 |ddv_scf|^2 =  1.798E-09

      iter #   5 total cpu time :   676.7 secs   av.it.:   8.9
      thresh= 4.241E-06 alpha_mix =  0.700 |ddv_scf|^2 =  1.906E-11

      iter #   6 total cpu time :   681.0 secs   av.it.:   9.1
      thresh= 4.366E-07 alpha_mix =  0.700 |ddv_scf|^2 =  2.587E-13

      iter #   7 total cpu time :   684.3 secs   av.it.:   9.1
      thresh= 5.086E-08 alpha_mix =  0.700 |ddv_scf|^2 =  1.122E-12

      iter #   8 total cpu time :   687.5 secs   av.it.:   7.0
      thresh= 1.059E-07 alpha_mix =  0.700 |ddv_scf|^2 =  1.110E-14

      iter #   9 total cpu time :   690.7 secs   av.it.:   9.0
      thresh= 1.053E-08 alpha_mix =  0.700 |ddv_scf|^2 =  1.402E-14

      iter #  10 total cpu time :   694.2 secs   av.it.:   7.9
      thresh= 1.184E-08 alpha_mix =  0.700 |ddv_scf|^2 =  1.297E-17

     End of self-consistent calculation

     Convergence has been achieved 


     Representation #  3 mode #   3

     Self-consistent Calculation

      iter #   1 total cpu time :   697.7 secs   av.it.:   5.6
      thresh= 1.000E-02 alpha_mix =  0.700 |ddv_scf|^2 =  1.145E-06

      iter #   2 total cpu time :   701.5 secs   av.it.:   8.6
      thresh= 1.070E-04 alpha_mix =  0.700 |ddv_scf|^2 =  6.807E-08

      iter #   3 total cpu time :   704.7 secs   av.it.:   8.9
      thresh= 2.609E-05 alpha_mix =  0.700 |ddv_scf|^2 =  9.889E-10

      iter #   4 total cpu time :   710.1 secs   av.it.:   8.2
      thresh= 3.145E-06 alpha_mix =  0.700 |ddv_scf|^2 =  1.054E-12

      iter #   5 total cpu time :   712.9 secs   av.it.:   8.4
      thresh= 1.026E-07 alpha_mix =  0.700 |ddv_scf|^2 =  1.875E-14

      iter #   6 total cpu time :   717.6 secs   av.it.:   7.8
      thresh= 1.369E-08 alpha_mix =  0.700 |ddv_scf|^2 =  2.392E-17

     End of self-consistent calculation

     Convergence has been achieved 
 
     Number of q in the star =   24
     List of q in the star:
          1  -0.250000000   0.500000000  -0.250000000
          2  -0.250000000   0.500000000   0.250000000
          3   0.250000000   0.500000000  -0.250000000
          4   0.250000000   0.500000000   0.250000000
          5   0.250000000  -0.500000000   0.250000000
          6   0.500000000  -0.250000000   0.250000000
          7   0.250000000  -0.250000000   0.500000000
          8  -0.250000000  -0.500000000  -0.250000000
[...]
      thresh= 1.354E-04 alpha_mix =  0.700 |ddv_scf|^2 =  1.096E-07

      iter #   3 total cpu time :  3474.6 secs   av.it.:   8.8
      thresh= 3.311E-05 alpha_mix =  0.700 |ddv_scf|^2 =  6.683E-09

      iter #   4 total cpu time :  3476.1 secs   av.it.:   8.9
      thresh= 8.175E-06 alpha_mix =  0.700 |ddv_scf|^2 =  2.043E-10

      iter #   5 total cpu time :  3491.1 secs   av.it.:   8.3
      thresh= 1.429E-06 alpha_mix =  0.700 |ddv_scf|^2 =  2.062E-12

      iter #   6 total cpu time :  3500.6 secs   av.it.:   9.4
      thresh= 1.436E-07 alpha_mix =  0.700 |ddv_scf|^2 =  3.322E-15

      iter #   7 total cpu time :  3503.6 secs   av.it.:   9.5
      thresh= 5.763E-09 alpha_mix =  0.700 |ddv_scf|^2 =  2.735E-16

      iter #   8 total cpu time :  3508.0 secs   av.it.:   9.4
      thresh= 1.654E-09 alpha_mix =  0.700 |ddv_scf|^2 =  5.641E-19

     End of self-consistent calculation

     Convergence has been achieved 


     Representation #  2 mode #   2

     Self-consistent Calculation

      iter #   1 total cpu time :  3510.5 secs   av.it.:   6.1
      thresh= 1.000E-02 alpha_mix =  0.700 |ddv_scf|^2 =  1.784E-06

      iter #   2 total cpu time :  3511.9 secs   av.it.:   8.8
      thresh= 1.336E-04 alpha_mix =  0.700 |ddv_scf|^2 =  7.136E-08

      iter #   3 total cpu time :  3514.8 secs   av.it.:   8.8
      thresh= 2.671E-05 alpha_mix =  0.700 |ddv_scf|^2 =  3.846E-09

      iter #   4 total cpu time :  3516.3 secs   av.it.:   8.6
      thresh= 6.201E-06 alpha_mix =  0.700 |ddv_scf|^2 =  1.238E-11

      iter #   5 total cpu time :  3518.9 secs   av.it.:   8.7
      thresh= 3.519E-07 alpha_mix =  0.700 |ddv_scf|^2 =  9.700E-15

      iter #   6 total cpu time :  3521.3 secs   av.it.:   7.8
      thresh= 9.849E-09 alpha_mix =  0.700 |ddv_scf|^2 =  6.238E-16

      iter #   7 total cpu time :  3523.3 secs   av.it.:   8.0
      thresh= 2.498E-09 alpha_mix =  0.700 |ddv_scf|^2 =  1.965E-19

     End of self-consistent calculation

     Convergence has been achieved 


     Representation #  3 mode #   3

     Self-consistent Calculation

      iter #   1 total cpu time :  3527.1 secs   av.it.:   6.4
      thresh= 1.000E-02 alpha_mix =  0.700 |ddv_scf|^2 =  5.796E-06

      iter #   2 total cpu time :  3529.0 secs   av.it.:   8.8
      thresh= 2.407E-04 alpha_mix =  0.700 |ddv_scf|^2 =  4.950E-07

      iter #   3 total cpu time :  3530.5 secs   av.it.:   8.0
      thresh= 7.035E-05 alpha_mix =  0.700 |ddv_scf|^2 =  1.252E-08

      iter #   4 total cpu time :  3533.8 secs   av.it.:   8.7
      thresh= 1.119E-05 alpha_mix =  0.700 |ddv_scf|^2 =  5.401E-12

      iter #   5 total cpu time :  3535.8 secs   av.it.:   8.8
      thresh= 2.324E-07 alpha_mix =  0.700 |ddv_scf|^2 =  8.007E-14

      iter #   6 total cpu time :  3543.9 secs   av.it.:   8.7
      thresh= 2.830E-08 alpha_mix =  0.700 |ddv_scf|^2 =  1.398E-15

      iter #   7 total cpu time :  3554.0 secs   av.it.:   8.5
      thresh= 3.738E-09 alpha_mix =  0.700 |ddv_scf|^2 =  1.968E-18

     End of self-consistent calculation

     Convergence has been achieved 
 
     Number of q in the star =   12
     List of q in the star:
          1  -0.250000000  -1.000000000   0.000000000
          2   0.000000000  -1.000000000   0.250000000
          3   0.000000000  -1.000000000  -0.250000000
          4   0.250000000  -1.000000000   0.000000000
          5  -1.000000000   0.000000000  -0.250000000
          6   1.000000000   0.000000000   0.250000000
          7  -1.000000000  -0.250000000   0.000000000
          8   0.000000000  -0.250000000  -1.000000000
          9   0.000000000   0.250000000  -1.000000000
         10   1.000000000   0.250000000   0.000000000
         11  -0.250000000   0.000000000   1.000000000
         12   0.250000000   0.000000000   1.000000000

     Diagonalizing the dynamical matrix

     q = (   -0.250000000  -1.000000000   0.000000000 ) 

 **************************************************************************
     freq (    1) =       7.231902 [THz] =     241.230282 [cm-1]
     freq (    2) =       8.419819 [THz] =     280.854927 [cm-1]
     freq (    3) =      10.767801 [THz] =     359.175186 [cm-1]
 **************************************************************************

     Mode symmetry, C_2v (mm2)  point group:

     freq (  1 -  1) =        241.2  [cm-1]   --> A_1  D_1  S_1      
     freq (  2 -  2) =        280.9  [cm-1]   --> B_1  D_3  S_3      
     freq (  3 -  3) =        359.2  [cm-1]   --> B_2  D_4  S_4      

     Calculation of q =   -0.5000000  -1.0000000   0.0000000
 
     G-vector sticks info
     --------------------
     sticks:   dense  smooth     PW     G-vecs:    dense   smooth      PW
     Sum        1057     517    211                22659     7991    2085
 


     bravais-lattice index     =            2
     lattice parameter (alat)  =       8.0041  a.u.
     unit-cell volume          =     128.1952 (a.u.)^3
     number of atoms/cell      =            1
     number of atomic types    =            1
     number of electrons       =         3.00
     number of Kohn-Sham states=            6
     kinetic-energy cutoff     =      60.0000  Ry
     charge density cutoff     =     480.0000  Ry
     Exchange-correlation      =  SLA  PW   PBX  PBC ( 1  4  3  4 0 0)

     celldm(1)=   8.004065  celldm(2)=   0.000000  celldm(3)=   0.000000
     celldm(4)=   0.000000  celldm(5)=   0.000000  celldm(6)=   0.000000

     crystal axes: (cart. coord. in units of alat)
               a(1) = (  -0.500000   0.000000   0.500000 )  
               a(2) = (   0.000000   0.500000   0.500000 )  
               a(3) = (  -0.500000   0.500000   0.000000 )  

     reciprocal axes: (cart. coord. in units 2 pi/alat)
               b(1) = ( -1.000000 -1.000000  1.000000 )  
               b(2) = (  1.000000  1.000000  1.000000 )  
               b(3) = ( -1.000000  1.000000 -1.000000 )  


     PseudoPot. # 1 for Li read from file:
     ../Li.pbe-s-gbrv14.UPF
     MD5 check sum: 7ca33c4f951f001da2db5c8738379802
     Pseudo is Ultrasoft, Zval =  3.0
     Generated by new atomic code, or converted to UPF format
     Using radial grid of  751 points,  5 beta functions with: 
                l(1) =   0
                l(2) =   0
                l(3) =   0
                l(4) =   1
                l(5) =   1
     Q(r) pseudized with 10 coefficients,  rinner =    1.150   1.150   1.150


     atomic species   valence    mass     pseudopotential
        Li             3.00     6.94100     Li( 1.00)

     48 Sym. Ops., with inversion, found



   Cartesian axes

     site n.     atom                  positions (alat units)
         1           Li  tau(   1) = (   0.0000000   0.0000000   0.0000000  )

     number of k points= 21952  Marzari-Vanderbilt smearing, width (Ry)=  0.0200

     Number of k-points >= 100: set verbosity='high' to print them.

     Dense  grid:    22659 G-vectors     FFT dimensions: (  40,  40,  40)

     Smooth grid:     7991 G-vectors     FFT dimensions: (  27,  27,  27)

     Largest allocated arrays     est. size (Mb)     dimensions
        Kohn-Sham Wavefunctions         0.09 Mb     (    1021,    6)
        NL pseudopotentials             0.14 Mb     (    1021,    9)
        Each V/rho on FFT grid          0.98 Mb     (   64000)
        Each G-vector array             0.17 Mb     (   22659)
        G-vector shells                 0.00 Mb     (     261)
     Largest temporary arrays     est. size (Mb)     dimensions
        Auxiliary wavefunctions         0.37 Mb     (    1021,   24)
        Each subspace H/S matrix        0.01 Mb     (      24,   24)
        Each <psi_i|beta_j> matrix      0.00 Mb     (       9,    6)

     The potential is recalculated from file :
     ./tmp/_ph0/li-fcc.save/charge-density.dat

     Starting wfc are    5 atomic +    1 random wfc

     Band Structure Calculation
     Davidson diagonalization with overlap

     ethr =  3.33E-10,  avg # of iterations = 15.3

     total cpu time spent up to now is      589.7 secs

     End of band structure calculation

     Number of k-points >= 100: set verbosity='high' to print the bands.

     the Fermi energy is     1.1444 ev

                                                                                

     bravais-lattice index     =            2
     lattice parameter (alat)  =       8.0041  a.u.
     unit-cell volume          =     128.1952 (a.u.)^3
     number of atoms/cell      =            1
     number of atomic types    =            1
     kinetic-energy cut-off    =      60.0000  Ry
     charge density cut-off    =     480.0000  Ry
     convergence threshold     =      1.0E-16
     beta                      =       0.7000
     number of iterations used =            4
     Exchange-correlation      =  SLA  PW   PBX  PBC ( 1  4  3  4 0 0)


     celldm(1)=    8.00407  celldm(2)=    0.00000  celldm(3)=    0.00000
     celldm(4)=    0.00000  celldm(5)=    0.00000  celldm(6)=    0.00000

     crystal axes: (cart. coord. in units of alat)
               a(1) = ( -0.5000  0.0000  0.5000 )  
               a(2) = (  0.0000  0.5000  0.5000 )  
               a(3) = ( -0.5000  0.5000  0.0000 )  

     reciprocal axes: (cart. coord. in units 2 pi/alat)
               b(1) = ( -1.0000 -1.0000  1.0000 )  
               b(2) = (  1.0000  1.0000  1.0000 )  
               b(3) = ( -1.0000  1.0000 -1.0000 )  


     Atoms inside the unit cell: 

     Cartesian axes

     site n.  atom      mass           positions (alat units)
        1     Li   6.9410   tau(    1) = (    0.00000    0.00000    0.00000  )

     Computing dynamical matrix for 
                    q = (  -0.5000000  -1.0000000   0.0000000 )
 
      8 Sym.Ops. (no q -> -q+G )


     G cutoff =  778.9377  (  22659 G-vectors)     FFT grid: ( 40, 40, 40)
     G cutoff =  389.4688  (   7991 G-vectors)  smooth grid: ( 27, 27, 27)

     number of k points= 21952  Marzari-Vanderbilt smearing, width (Ry)=  0.0200

     PseudoPot. # 1 for Li read from file:
     ../Li.pbe-s-gbrv14.UPF
     MD5 check sum: 7ca33c4f951f001da2db5c8738379802
     Pseudo is Ultrasoft, Zval =  3.0
     Generated by new atomic code, or converted to UPF format
     Using radial grid of  751 points,  5 beta functions with: 
                l(1) =   0
                l(2) =   0
                l(3) =   0
                l(4) =   1
                l(5) =   1
     Q(r) pseudized with 10 coefficients,  rinner =    1.150   1.150   1.150


     Mode symmetry, D_2d (-42m) point group:


     Atomic displacements:
     There are   2 irreducible representations

     Representation     1      1 modes -B_2  X_3  W_2  To be done

     Representation     2      2 modes -E    X_5  W_3  To be done



     Alpha used in Ewald sum =   2.8000
     PHONON       : 53m56.44s CPU    59m30.39s WALL



     Representation #  1 mode #   1

     Self-consistent Calculation

      iter #   1 total cpu time :  3571.1 secs   av.it.:   6.1
      thresh= 1.000E-02 alpha_mix =  0.700 |ddv_scf|^2 =  2.192E-06

      iter #   2 total cpu time :  3582.4 secs   av.it.:   8.8
      thresh= 1.481E-04 alpha_mix =  0.700 |ddv_scf|^2 =  9.987E-08

      iter #   3 total cpu time :  3584.7 secs   av.it.:   8.7
      thresh= 3.160E-05 alpha_mix =  0.700 |ddv_scf|^2 =  5.523E-09

      iter #   4 total cpu time :  3588.6 secs   av.it.:   8.9
      thresh= 7.432E-06 alpha_mix =  0.700 |ddv_scf|^2 =  2.432E-11

      iter #   5 total cpu time :  3590.5 secs   av.it.:   8.8
      thresh= 4.931E-07 alpha_mix =  0.700 |ddv_scf|^2 =  5.536E-14

      iter #   6 total cpu time :  3593.0 secs   av.it.:   8.6
      thresh= 2.353E-08 alpha_mix =  0.700 |ddv_scf|^2 =  1.459E-15

      iter #   7 total cpu time :  3594.0 secs   av.it.:   8.3
      thresh= 3.820E-09 alpha_mix =  0.700 |ddv_scf|^2 =  8.967E-19

     End of self-consistent calculation

     Convergence has been achieved 


     Representation #  2 modes #   2  3

     Self-consistent Calculation

      iter #   1 total cpu time :  3603.4 secs   av.it.:   6.3
      thresh= 1.000E-02 alpha_mix =  0.700 |ddv_scf|^2 =  8.144E-07

      iter #   2 total cpu time :  3607.0 secs   av.it.:   9.4
      thresh= 9.025E-05 alpha_mix =  0.700 |ddv_scf|^2 =  3.396E-08

      iter #   3 total cpu time :  3610.3 secs   av.it.:   8.8
      thresh= 1.843E-05 alpha_mix =  0.700 |ddv_scf|^2 =  2.064E-09

      iter #   4 total cpu time :  3622.5 secs   av.it.:   9.2
      thresh= 4.543E-06 alpha_mix =  0.700 |ddv_scf|^2 =  1.902E-12

      iter #   5 total cpu time :  3632.2 secs   av.it.:   9.2
      thresh= 1.379E-07 alpha_mix =  0.700 |ddv_scf|^2 =  5.268E-15

      iter #   6 total cpu time :  3640.9 secs   av.it.:   9.0
      thresh= 7.258E-09 alpha_mix =  0.700 |ddv_scf|^2 =  2.818E-16

      iter #   7 total cpu time :  3644.1 secs   av.it.:   9.0
      thresh= 1.679E-09 alpha_mix =  0.700 |ddv_scf|^2 =  3.253E-19

     End of self-consistent calculation

     Convergence has been achieved 
 
     Number of q in the star =    6
     List of q in the star:
          1  -0.500000000  -1.000000000   0.000000000
          2   0.000000000   1.000000000   0.500000000
          3   0.500000000  -1.000000000   0.000000000
          4   0.000000000   1.000000000  -0.500000000
          5  -1.000000000  -0.500000000   0.000000000
          6   0.000000000  -0.500000000  -1.000000000

     Diagonalizing the dynamical matrix

     q = (   -0.500000000  -1.000000000   0.000000000 ) 

 **************************************************************************
     freq (    1) =       7.028117 [THz] =     234.432759 [cm-1]
     freq (    2) =       9.818178 [THz] =     327.499170 [cm-1]
     freq (    3) =       9.818178 [THz] =     327.499170 [cm-1]
 **************************************************************************

     Mode symmetry, D_2d (-42m) point group:

     freq (  1 -  1) =        234.4  [cm-1]   --> B_2  X_3  W_2      
     freq (  2 -  3) =        327.5  [cm-1]   --> E    X_5  W_3      
 
     init_run     :      8.42s CPU      8.93s WALL (      28 calls)
     electrons    :    502.74s CPU    508.23s WALL (      28 calls)

     Called by init_run:
     wfcinit      :      0.00s CPU      0.03s WALL (      28 calls)
     potinit      :      1.94s CPU      2.31s WALL (      28 calls)

     Called by electrons:
     c_bands      :    502.44s CPU    507.87s WALL (      28 calls)
     v_of_rho     :      1.19s CPU      1.19s WALL (      29 calls)
     newd         :      0.44s CPU      0.53s WALL (      29 calls)

     Called by c_bands:
     init_us_2    :     13.99s CPU     14.76s WALL (   80573 calls)
     cegterg      :    331.83s CPU    334.49s WALL (    6534 calls)

     Called by sum_band:

     Called by *egterg:
     h_psi        :    319.18s CPU    321.25s WALL (  103428 calls)
     s_psi        :     20.33s CPU     20.92s WALL ( 1286022 calls)
     g_psi        :      2.16s CPU      2.30s WALL (   91926 calls)
     cdiaghg      :     12.93s CPU     12.97s WALL (   96894 calls)

     Called by h_psi:
     add_vuspsi   :     12.22s CPU     12.49s WALL (  664608 calls)

     General routines
     calbec       :     27.26s CPU     28.13s WALL ( 1418448 calls)
     fft          :     18.62s CPU     18.65s WALL (   10723 calls)
     ffts         :      5.20s CPU      5.35s WALL (    9274 calls)
     fftw         :   1245.25s CPU   1257.82s WALL ( 3356850 calls)
     interpolate  :      3.76s CPU      3.76s WALL (    1477 calls)
     davcio       :      0.50s CPU      9.63s WALL (   14916 calls)
 
     Parallel routines
     fft_scatter  :     67.66s CPU     68.31s WALL ( 3376847 calls)
 
     PHONON       :     0h55m CPU        1h 0m WALL

     INITIALIZATION: 
     phq_setup    :      3.11s CPU      8.96s WALL (      29 calls)
     phq_init     :     91.19s CPU     96.94s WALL (      29 calls)
 
     phq_init     :     91.19s CPU     96.94s WALL (      29 calls)
     init_vloc    :      0.02s CPU      0.04s WALL (      29 calls)
     init_us_1    :      4.50s CPU      4.49s WALL (      29 calls)
     newd         :      0.44s CPU      0.53s WALL (      29 calls)
     dvanqq       :      3.26s CPU      3.28s WALL (      29 calls)
     drho         :     80.92s CPU     81.26s WALL (      29 calls)
 
     DYNAMICAL MATRIX:
     dynmat0      :      1.85s CPU      3.06s WALL (      29 calls)
     phqscf       :   2561.12s CPU   2847.41s WALL (      29 calls)
     dynmatrix    :     37.67s CPU     42.46s WALL (      29 calls)
 
     phqscf       :   2561.12s CPU   2847.41s WALL (      29 calls)
     solve_linter :   2557.34s CPU   2823.07s WALL (      76 calls)
     drhodv       :      3.53s CPU      3.81s WALL (      76 calls)
 
     dynmat0      :      1.85s CPU      3.06s WALL (      29 calls)
     dynmat_us    :      1.69s CPU      1.80s WALL (      29 calls)
     d2ionq       :      0.09s CPU      0.08s WALL (      29 calls)
 
     dynmat_us    :      1.69s CPU      1.80s WALL (      29 calls)
     addusdynmat  :      0.00s CPU      0.00s WALL (      29 calls)
 
     phqscf       :   2561.12s CPU   2847.41s WALL (      29 calls)
     solve_linter :   2557.34s CPU   2823.07s WALL (      76 calls)
 
     solve_linter :   2557.34s CPU   2823.07s WALL (      76 calls)
     dvqpsi_us    :     42.53s CPU     42.97s WALL (    7470 calls)
     ortho        :      7.28s CPU      7.35s WALL (   60234 calls)
     cgsolve      :    935.73s CPU    946.07s WALL (   60234 calls)
     incdrhoscf   :    105.28s CPU    106.92s WALL (   60234 calls)
     addusddens   :     14.82s CPU     14.91s WALL (     675 calls)
     vpsifft      :     85.64s CPU     86.90s WALL (   52764 calls)
     dv_of_drho   :     25.69s CPU     25.99s WALL (     666 calls)
     mix_pot      :      3.48s CPU      3.48s WALL (     599 calls)
     ef_shift     :      0.07s CPU      0.08s WALL (       7 calls)
     localdos     :      0.03s CPU      0.04s WALL (       1 calls)
     psymdvscf    :     10.56s CPU     10.59s WALL (     547 calls)
     newdq        :     14.06s CPU     14.07s WALL (     599 calls)
     adddvscf     :      2.90s CPU      2.94s WALL (   52764 calls)
     drhodvus     :      0.18s CPU      0.17s WALL (      76 calls)
 
     dvqpsi_us    :     42.53s CPU     42.97s WALL (    7470 calls)
     dvqpsi_us_on :      2.27s CPU      2.16s WALL (    7470 calls)
 
     cgsolve      :    935.73s CPU    946.07s WALL (   60234 calls)
     ch_psi       :    924.11s CPU    934.26s WALL (  561180 calls)
 
     ch_psi       :    924.11s CPU    934.26s WALL (  561180 calls)
     h_psiq       :    891.94s CPU    901.29s WALL (  561180 calls)
     last         :     28.65s CPU     29.49s WALL (  561180 calls)
 
     h_psiq       :    891.94s CPU    901.29s WALL (  561180 calls)
     firstfft     :    453.56s CPU    458.24s WALL ( 1026725 calls)
     secondfft    :    377.28s CPU    381.27s WALL ( 1026725 calls)
     add_vuspsi   :     12.22s CPU     12.49s WALL (  664608 calls)
 
     incdrhoscf   :    105.28s CPU    106.92s WALL (   60234 calls)
     addusdbec    :      3.08s CPU      3.26s WALL (   67704 calls)
 
     drhodvus     :      0.18s CPU      0.17s WALL (      76 calls)
 
      General routines
     calbec       :     27.26s CPU     28.13s WALL ( 1418448 calls)
     fft          :     18.62s CPU     18.65s WALL (   10723 calls)
     ffts         :      5.20s CPU      5.35s WALL (    9274 calls)
     fftw         :   1245.25s CPU   1257.82s WALL ( 3356850 calls)
     davcio       :      0.50s CPU      9.63s WALL (   14916 calls)
     write_rec    :      1.66s CPU    269.67s WALL (     675 calls)
 
 
     PHONON       :     0h55m CPU        1h 0m WALL

 
   This run was terminated on:   7: 5:38   6Jun2016            

=------------------------------------------------------------------------------=
   JOB DONE.
=------------------------------------------------------------------------------=
Application 21950089 resources: utime ~1336564s, stime ~7050s, Rss ~193636, inblocks ~818327028, outblocks ~1399534320
