
     Program Q2R v.5.4.0 starts on  6Jun2016 at 11:32:18 

     This program is part of the open-source Quantum ESPRESSO suite
     for quantum simulation of materials; please cite
         "P. Giannozzi et al., J. Phys.:Condens. Matter 21 395502 (2009);
          URL http://www.quantum-espresso.org", 
     in publications or presentations arising from this work. More details at
     http://www.quantum-espresso.org/quote

     Parallel version (MPI), running on     1 processors

     reading grid info from file fcc-li.dyn0    
  reading force constants from file fcc-li.dyn1
  Dielectric Tensor not found
  nqs=            1
 q=   0.00000000  0.00000000  0.00000000
  reading force constants from file fcc-li.dyn2
  nqs=            8
 q=  -0.12500000  0.12500000 -0.12500000
 q=   0.12500000 -0.12500000 -0.12500000
 q=   0.12500000 -0.12500000  0.12500000
 q=  -0.12500000  0.12500000  0.12500000
 q=   0.12500000  0.12500000 -0.12500000
 q=  -0.12500000 -0.12500000 -0.12500000
 q=  -0.12500000 -0.12500000  0.12500000
 q=   0.12500000  0.12500000  0.12500000
  reading force constants from file fcc-li.dyn3
  nqs=            8
 q=  -0.25000000  0.25000000 -0.25000000
 q=   0.25000000 -0.25000000 -0.25000000
 q=   0.25000000 -0.25000000  0.25000000
 q=  -0.25000000  0.25000000  0.25000000
 q=   0.25000000  0.25000000 -0.25000000
 q=  -0.25000000 -0.25000000 -0.25000000
 q=  -0.25000000 -0.25000000  0.25000000
 q=   0.25000000  0.25000000  0.25000000
  reading force constants from file fcc-li.dyn4
  nqs=            8
 q=  -0.37500000  0.37500000 -0.37500000
 q=   0.37500000 -0.37500000 -0.37500000
 q=   0.37500000 -0.37500000  0.37500000
 q=  -0.37500000  0.37500000  0.37500000
 q=   0.37500000  0.37500000 -0.37500000
 q=  -0.37500000 -0.37500000 -0.37500000
 q=  -0.37500000 -0.37500000  0.37500000
 q=   0.37500000  0.37500000  0.37500000
  reading force constants from file fcc-li.dyn5
  nqs=            4
 q=   0.50000000 -0.50000000  0.50000000
 q=   0.50000000  0.50000000  0.50000000
 q=  -0.50000000  0.50000000  0.50000000
 q=   0.50000000  0.50000000 -0.50000000
  reading force constants from file fcc-li.dyn6
  nqs=            6
 q=   0.00000000  0.25000000  0.00000000
 q=   0.00000000 -0.25000000  0.00000000
 q=   0.25000000  0.00000000  0.00000000
 q=   0.00000000  0.00000000  0.25000000
 q=   0.00000000  0.00000000 -0.25000000
 q=  -0.25000000  0.00000000  0.00000000
  reading force constants from file fcc-li.dyn7
  nqs=           24
 q=  -0.12500000  0.37500000 -0.12500000
 q=  -0.12500000  0.37500000  0.12500000
 q=   0.12500000  0.37500000 -0.12500000
 q=   0.12500000  0.37500000  0.12500000
 q=   0.12500000 -0.37500000  0.12500000
 q=   0.37500000 -0.12500000  0.12500000
 q=   0.12500000 -0.12500000  0.37500000
 q=  -0.12500000 -0.37500000 -0.12500000
 q=   0.12500000 -0.37500000 -0.12500000
 q=  -0.12500000 -0.37500000  0.12500000
 q=   0.12500000 -0.12500000 -0.37500000
 q=   0.37500000 -0.12500000 -0.12500000
 q=  -0.37500000 -0.12500000  0.12500000
 q=   0.37500000  0.12500000  0.12500000
 q=  -0.12500000 -0.12500000  0.37500000
 q=   0.12500000  0.12500000  0.37500000
 q=  -0.37500000  0.12500000 -0.12500000
 q=  -0.12500000  0.12500000 -0.37500000
 q=  -0.37500000 -0.12500000 -0.12500000
 q=   0.12500000  0.12500000 -0.37500000
 q=   0.37500000  0.12500000 -0.12500000
 q=  -0.12500000 -0.12500000 -0.37500000
 q=  -0.37500000  0.12500000  0.12500000
 q=  -0.12500000  0.12500000  0.37500000
  reading force constants from file fcc-li.dyn8
  nqs=           24
 q=  -0.25000000  0.50000000 -0.25000000
 q=  -0.25000000  0.50000000  0.25000000
 q=   0.25000000  0.50000000 -0.25000000
 q=   0.25000000  0.50000000  0.25000000
 q=   0.25000000 -0.50000000  0.25000000
 q=   0.50000000 -0.25000000  0.25000000
 q=   0.25000000 -0.25000000  0.50000000
 q=  -0.25000000 -0.50000000 -0.25000000
 q=   0.25000000 -0.50000000 -0.25000000
 q=  -0.25000000 -0.50000000  0.25000000
 q=   0.25000000 -0.25000000 -0.50000000
 q=   0.50000000 -0.25000000 -0.25000000
 q=  -0.50000000 -0.25000000  0.25000000
 q=   0.50000000  0.25000000  0.25000000
 q=  -0.25000000 -0.25000000  0.50000000
 q=   0.25000000  0.25000000  0.50000000
 q=  -0.50000000  0.25000000 -0.25000000
 q=  -0.25000000  0.25000000 -0.50000000
 q=  -0.50000000 -0.25000000 -0.25000000
 q=   0.25000000  0.25000000 -0.50000000
 q=   0.50000000  0.25000000 -0.25000000
 q=  -0.25000000 -0.25000000 -0.50000000
 q=  -0.50000000  0.25000000  0.25000000
 q=  -0.25000000  0.25000000  0.50000000
  reading force constants from file fcc-li.dyn9
  nqs=           24
 q=   0.62500000 -0.37500000  0.62500000
 q=   0.62500000 -0.37500000 -0.62500000
 q=  -0.62500000 -0.37500000  0.62500000
 q=  -0.62500000 -0.37500000 -0.62500000
 q=  -0.62500000  0.37500000 -0.62500000
 q=  -0.37500000  0.62500000 -0.62500000
 q=  -0.62500000  0.62500000 -0.37500000
 q=   0.62500000  0.37500000  0.62500000
 q=  -0.62500000  0.37500000  0.62500000
 q=   0.62500000  0.37500000 -0.62500000
 q=  -0.62500000  0.62500000  0.37500000
 q=  -0.37500000  0.62500000  0.62500000
 q=   0.37500000  0.62500000 -0.62500000
 q=  -0.37500000 -0.62500000 -0.62500000
 q=   0.62500000  0.62500000 -0.37500000
 q=  -0.62500000 -0.62500000 -0.37500000
 q=   0.37500000 -0.62500000  0.62500000
 q=   0.62500000 -0.62500000  0.37500000
 q=   0.37500000  0.62500000  0.62500000
 q=  -0.62500000 -0.62500000  0.37500000
 q=  -0.37500000 -0.62500000  0.62500000
 q=   0.62500000  0.62500000  0.37500000
 q=   0.37500000 -0.62500000 -0.62500000
 q=   0.62500000 -0.62500000 -0.37500000
  reading force constants from file fcc-li.dyn10
  nqs=           24
 q=   0.50000000 -0.25000000  0.50000000
 q=   0.50000000 -0.25000000 -0.50000000
 q=  -0.50000000 -0.25000000  0.50000000
 q=  -0.50000000 -0.25000000 -0.50000000
 q=  -0.50000000  0.25000000 -0.50000000
 q=  -0.25000000  0.50000000 -0.50000000
 q=  -0.50000000  0.50000000 -0.25000000
 q=   0.50000000  0.25000000  0.50000000
 q=  -0.50000000  0.25000000  0.50000000
 q=   0.50000000  0.25000000 -0.50000000
 q=  -0.50000000  0.50000000  0.25000000
 q=  -0.25000000  0.50000000  0.50000000
 q=   0.25000000  0.50000000 -0.50000000
 q=  -0.25000000 -0.50000000 -0.50000000
 q=   0.50000000  0.50000000 -0.25000000
 q=  -0.50000000 -0.50000000 -0.25000000
 q=   0.25000000 -0.50000000  0.50000000
 q=   0.50000000 -0.50000000  0.25000000
 q=   0.25000000  0.50000000  0.50000000
 q=  -0.50000000 -0.50000000  0.25000000
 q=  -0.25000000 -0.50000000  0.50000000
 q=   0.50000000  0.50000000  0.25000000
 q=   0.25000000 -0.50000000 -0.50000000
 q=   0.50000000 -0.50000000 -0.25000000
  reading force constants from file fcc-li.dyn11
  nqs=           24
 q=   0.37500000 -0.12500000  0.37500000
 q=   0.37500000 -0.12500000 -0.37500000
 q=  -0.37500000 -0.12500000  0.37500000
 q=  -0.37500000 -0.12500000 -0.37500000
 q=  -0.37500000  0.12500000 -0.37500000
 q=  -0.12500000  0.37500000 -0.37500000
 q=  -0.37500000  0.37500000 -0.12500000
 q=   0.37500000  0.12500000  0.37500000
 q=  -0.37500000  0.12500000  0.37500000
 q=   0.37500000  0.12500000 -0.37500000
 q=  -0.37500000  0.37500000  0.12500000
 q=  -0.12500000  0.37500000  0.37500000
 q=   0.12500000  0.37500000 -0.37500000
 q=  -0.12500000 -0.37500000 -0.37500000
 q=   0.37500000  0.37500000 -0.12500000
 q=  -0.37500000 -0.37500000 -0.12500000
 q=   0.12500000 -0.37500000  0.37500000
 q=   0.37500000 -0.37500000  0.12500000
 q=   0.12500000  0.37500000  0.37500000
 q=  -0.37500000 -0.37500000  0.12500000
 q=  -0.12500000 -0.37500000  0.37500000
 q=   0.37500000  0.37500000  0.12500000
 q=   0.12500000 -0.37500000 -0.37500000
 q=   0.37500000 -0.37500000 -0.12500000
  reading force constants from file fcc-li.dyn12
  nqs=           12
 q=   0.25000000  0.00000000  0.25000000
 q=  -0.25000000  0.00000000  0.25000000
 q=  -0.25000000  0.00000000 -0.25000000
 q=   0.00000000  0.25000000 -0.25000000
 q=  -0.25000000  0.25000000  0.00000000
 q=   0.25000000  0.00000000 -0.25000000
 q=   0.00000000  0.25000000  0.25000000
 q=   0.00000000 -0.25000000 -0.25000000
 q=   0.25000000  0.25000000  0.00000000
 q=  -0.25000000 -0.25000000  0.00000000
 q=   0.00000000 -0.25000000  0.25000000
 q=   0.25000000 -0.25000000  0.00000000
  reading force constants from file fcc-li.dyn13
  nqs=            6
 q=   0.00000000  0.50000000  0.00000000
 q=   0.00000000 -0.50000000  0.00000000
 q=   0.50000000  0.00000000  0.00000000
 q=   0.00000000  0.00000000  0.50000000
 q=   0.00000000  0.00000000 -0.50000000
 q=  -0.50000000  0.00000000  0.00000000
  reading force constants from file fcc-li.dyn14
  nqs=           24
 q=  -0.12500000  0.62500000 -0.12500000
 q=   0.12500000  0.62500000 -0.12500000
 q=   0.12500000  0.62500000  0.12500000
 q=  -0.12500000  0.62500000  0.12500000
 q=   0.12500000 -0.62500000  0.12500000
 q=   0.62500000 -0.12500000  0.12500000
 q=   0.12500000 -0.12500000  0.62500000
 q=  -0.12500000 -0.62500000 -0.12500000
 q=   0.12500000 -0.62500000 -0.12500000
 q=  -0.12500000 -0.62500000  0.12500000
 q=   0.12500000 -0.12500000 -0.62500000
 q=   0.62500000 -0.12500000 -0.12500000
 q=  -0.62500000 -0.12500000  0.12500000
 q=   0.62500000  0.12500000  0.12500000
 q=  -0.12500000 -0.12500000  0.62500000
 q=   0.12500000  0.12500000  0.62500000
 q=  -0.62500000  0.12500000 -0.12500000
 q=  -0.12500000  0.12500000 -0.62500000
 q=  -0.62500000 -0.12500000 -0.12500000
 q=   0.12500000  0.12500000 -0.62500000
 q=   0.62500000  0.12500000 -0.12500000
 q=  -0.12500000 -0.12500000 -0.62500000
 q=  -0.62500000  0.12500000  0.12500000
 q=  -0.12500000  0.12500000  0.62500000
  reading force constants from file fcc-li.dyn15
  nqs=           24
 q=   0.75000000 -0.25000000  0.75000000
 q=  -0.75000000 -0.25000000  0.75000000
 q=  -0.75000000 -0.25000000 -0.75000000
 q=   0.75000000 -0.25000000 -0.75000000
 q=  -0.75000000  0.25000000 -0.75000000
 q=  -0.25000000  0.75000000 -0.75000000
 q=  -0.75000000  0.75000000 -0.25000000
 q=   0.75000000  0.25000000  0.75000000
 q=  -0.75000000  0.25000000  0.75000000
 q=   0.75000000  0.25000000 -0.75000000
 q=  -0.75000000  0.75000000  0.25000000
 q=  -0.25000000  0.75000000  0.75000000
 q=   0.25000000  0.75000000 -0.75000000
 q=  -0.25000000 -0.75000000 -0.75000000
 q=   0.75000000  0.75000000 -0.25000000
 q=  -0.75000000 -0.75000000 -0.25000000
 q=   0.25000000 -0.75000000  0.75000000
 q=   0.75000000 -0.75000000  0.25000000
 q=   0.25000000  0.75000000  0.75000000
 q=  -0.75000000 -0.75000000  0.25000000
 q=  -0.25000000 -0.75000000  0.75000000
 q=   0.75000000  0.75000000  0.25000000
 q=   0.25000000 -0.75000000 -0.75000000
 q=   0.75000000 -0.75000000 -0.25000000
  reading force constants from file fcc-li.dyn16
  nqs=           24
 q=   0.62500000 -0.12500000  0.62500000
 q=  -0.62500000 -0.12500000  0.62500000
 q=  -0.62500000 -0.12500000 -0.62500000
 q=   0.62500000 -0.12500000 -0.62500000
 q=  -0.62500000  0.12500000 -0.62500000
 q=  -0.12500000  0.62500000 -0.62500000
 q=  -0.62500000  0.62500000 -0.12500000
 q=   0.62500000  0.12500000  0.62500000
 q=  -0.62500000  0.12500000  0.62500000
 q=   0.62500000  0.12500000 -0.62500000
 q=  -0.62500000  0.62500000  0.12500000
 q=  -0.12500000  0.62500000  0.62500000
 q=   0.12500000  0.62500000 -0.62500000
 q=  -0.12500000 -0.62500000 -0.62500000
 q=   0.62500000  0.62500000 -0.12500000
 q=  -0.62500000 -0.62500000 -0.12500000
 q=   0.12500000 -0.62500000  0.62500000
 q=   0.62500000 -0.62500000  0.12500000
 q=   0.12500000  0.62500000  0.62500000
 q=  -0.62500000 -0.62500000  0.12500000
 q=  -0.12500000 -0.62500000  0.62500000
 q=   0.62500000  0.62500000  0.12500000
 q=   0.12500000 -0.62500000 -0.62500000
 q=   0.62500000 -0.62500000 -0.12500000
  reading force constants from file fcc-li.dyn17
  nqs=           12
 q=   0.50000000  0.00000000  0.50000000
 q=  -0.50000000  0.00000000  0.50000000
 q=  -0.50000000  0.00000000 -0.50000000
 q=   0.50000000  0.00000000 -0.50000000
 q=   0.00000000  0.50000000 -0.50000000
 q=  -0.50000000  0.50000000  0.00000000
 q=   0.00000000  0.50000000  0.50000000
 q=   0.00000000 -0.50000000 -0.50000000
 q=   0.50000000  0.50000000  0.00000000
 q=  -0.50000000 -0.50000000  0.00000000
 q=   0.00000000 -0.50000000  0.50000000
 q=   0.50000000 -0.50000000  0.00000000
  reading force constants from file fcc-li.dyn18
  nqs=            6
 q=   0.00000000  0.75000000  0.00000000
 q=   0.00000000 -0.75000000  0.00000000
 q=   0.75000000  0.00000000  0.00000000
 q=   0.00000000  0.00000000  0.75000000
 q=   0.00000000  0.00000000 -0.75000000
 q=  -0.75000000  0.00000000  0.00000000
  reading force constants from file fcc-li.dyn19
  nqs=           24
 q=   0.87500000 -0.12500000  0.87500000
 q=  -0.87500000 -0.12500000  0.87500000
 q=  -0.87500000 -0.12500000 -0.87500000
 q=   0.87500000 -0.12500000 -0.87500000
 q=  -0.87500000  0.12500000 -0.87500000
 q=  -0.12500000  0.87500000 -0.87500000
 q=  -0.87500000  0.87500000 -0.12500000
 q=   0.87500000  0.12500000  0.87500000
 q=  -0.87500000  0.12500000  0.87500000
 q=   0.87500000  0.12500000 -0.87500000
 q=  -0.87500000  0.87500000  0.12500000
 q=  -0.12500000  0.87500000  0.87500000
 q=   0.12500000  0.87500000 -0.87500000
 q=  -0.12500000 -0.87500000 -0.87500000
 q=   0.87500000  0.87500000 -0.12500000
 q=  -0.87500000 -0.87500000 -0.12500000
 q=   0.12500000 -0.87500000  0.87500000
 q=   0.87500000 -0.87500000  0.12500000
 q=   0.12500000  0.87500000  0.87500000
 q=  -0.87500000 -0.87500000  0.12500000
 q=  -0.12500000 -0.87500000  0.87500000
 q=   0.87500000  0.87500000  0.12500000
 q=   0.12500000 -0.87500000 -0.87500000
 q=   0.87500000 -0.87500000 -0.12500000
  reading force constants from file fcc-li.dyn20
  nqs=           12
 q=   0.75000000  0.00000000  0.75000000
 q=   0.75000000  0.00000000 -0.75000000
 q=  -0.75000000  0.00000000  0.75000000
 q=  -0.75000000  0.00000000 -0.75000000
 q=   0.00000000  0.75000000 -0.75000000
 q=  -0.75000000  0.75000000  0.00000000
 q=   0.00000000  0.75000000  0.75000000
 q=   0.00000000 -0.75000000 -0.75000000
 q=   0.75000000  0.75000000  0.00000000
 q=  -0.75000000 -0.75000000  0.00000000
 q=   0.00000000 -0.75000000  0.75000000
 q=   0.75000000 -0.75000000  0.00000000
  reading force constants from file fcc-li.dyn21
  nqs=            3
 q=   0.00000000 -1.00000000  0.00000000
 q=  -1.00000000  0.00000000  0.00000000
 q=   0.00000000  0.00000000 -1.00000000
  reading force constants from file fcc-li.dyn22
  nqs=           24
 q=  -0.25000000  0.50000000  0.00000000
 q=   0.00000000 -0.50000000 -0.25000000
 q=  -0.25000000 -0.50000000  0.00000000
 q=   0.00000000  0.50000000  0.25000000
 q=   0.00000000  0.50000000 -0.25000000
 q=   0.25000000  0.50000000  0.00000000
 q=   0.00000000 -0.50000000  0.25000000
 q=   0.25000000 -0.50000000  0.00000000
 q=   0.50000000  0.00000000 -0.25000000
 q=  -0.50000000  0.00000000  0.25000000
 q=   0.50000000  0.00000000  0.25000000
 q=   0.50000000 -0.25000000  0.00000000
 q=   0.00000000 -0.25000000  0.50000000
 q=   0.00000000  0.25000000  0.50000000
 q=   0.00000000 -0.25000000 -0.50000000
 q=  -0.50000000  0.25000000  0.00000000
 q=  -0.50000000  0.00000000 -0.25000000
 q=  -0.25000000  0.00000000 -0.50000000
 q=  -0.50000000 -0.25000000  0.00000000
 q=   0.50000000  0.25000000  0.00000000
 q=   0.25000000  0.00000000 -0.50000000
 q=   0.00000000  0.25000000 -0.50000000
 q=  -0.25000000  0.00000000  0.50000000
 q=   0.25000000  0.00000000  0.50000000
  reading force constants from file fcc-li.dyn23
  nqs=           48
 q=   0.62500000 -0.37500000  0.87500000
 q=   0.62500000 -0.37500000 -0.87500000
 q=   0.87500000  0.37500000  0.62500000
 q=   0.62500000  0.37500000  0.87500000
 q=   0.87500000 -0.37500000 -0.62500000
 q=   0.87500000 -0.37500000  0.62500000
 q=  -0.87500000 -0.37500000  0.62500000
 q=  -0.62500000 -0.37500000 -0.87500000
 q=  -0.87500000  0.37500000 -0.62500000
 q=  -0.62500000 -0.37500000  0.87500000
 q=  -0.87500000  0.37500000  0.62500000
 q=   0.87500000  0.37500000 -0.62500000
 q=  -0.62500000  0.37500000  0.87500000
 q=  -0.87500000 -0.37500000 -0.62500000
 q=   0.62500000  0.37500000 -0.87500000
 q=  -0.62500000  0.37500000 -0.87500000
 q=  -0.37500000  0.87500000  0.62500000
 q=   0.37500000  0.87500000 -0.62500000
 q=  -0.37500000 -0.87500000 -0.62500000
 q=  -0.37500000  0.62500000 -0.87500000
 q=   0.87500000  0.62500000 -0.37500000
 q=  -0.37500000  0.87500000 -0.62500000
 q=  -0.87500000 -0.62500000 -0.37500000
 q=  -0.87500000  0.62500000  0.37500000
 q=   0.37500000 -0.62500000  0.87500000
 q=   0.37500000 -0.87500000  0.62500000
 q=   0.62500000 -0.87500000  0.37500000
 q=  -0.87500000  0.62500000 -0.37500000
 q=   0.37500000  0.62500000  0.87500000
 q=  -0.37500000  0.62500000  0.87500000
 q=   0.37500000  0.62500000 -0.87500000
 q=  -0.37500000 -0.62500000 -0.87500000
 q=  -0.62500000 -0.87500000  0.37500000
 q=  -0.37500000 -0.62500000  0.87500000
 q=   0.87500000 -0.62500000  0.37500000
 q=   0.62500000  0.87500000  0.37500000
 q=   0.37500000 -0.62500000 -0.87500000
 q=   0.62500000  0.87500000 -0.37500000
 q=  -0.62500000 -0.87500000 -0.37500000
 q=  -0.62500000  0.87500000 -0.37500000
 q=   0.37500000 -0.87500000 -0.62500000
 q=  -0.37500000 -0.87500000  0.62500000
 q=   0.37500000  0.87500000  0.62500000
 q=   0.62500000 -0.87500000 -0.37500000
 q=  -0.87500000 -0.62500000  0.37500000
 q=  -0.62500000  0.87500000  0.37500000
 q=   0.87500000  0.62500000  0.37500000
 q=   0.87500000 -0.62500000 -0.37500000
  reading force constants from file fcc-li.dyn24
  nqs=           24
 q=   0.50000000 -0.25000000  0.75000000
 q=   0.75000000  0.25000000  0.50000000
 q=   0.50000000  0.25000000  0.75000000
 q=   0.75000000 -0.25000000 -0.50000000
 q=   0.75000000 -0.25000000  0.50000000
 q=  -0.75000000 -0.25000000  0.50000000
 q=  -0.50000000 -0.25000000 -0.75000000
 q=  -0.75000000  0.25000000 -0.50000000
 q=  -0.50000000 -0.25000000  0.75000000
 q=  -0.75000000  0.25000000  0.50000000
 q=   0.75000000  0.25000000 -0.50000000
 q=  -0.50000000  0.25000000  0.75000000
 q=  -0.75000000 -0.25000000 -0.50000000
 q=   0.50000000  0.25000000 -0.75000000
 q=  -0.50000000  0.25000000 -0.75000000
 q=  -0.25000000  0.50000000 -0.75000000
 q=   0.75000000  0.50000000 -0.25000000
 q=  -0.75000000 -0.50000000 -0.25000000
 q=  -0.75000000  0.50000000  0.25000000
 q=   0.25000000 -0.50000000  0.75000000
 q=  -0.25000000  0.50000000  0.75000000
 q=   0.25000000  0.50000000 -0.75000000
 q=  -0.25000000 -0.50000000 -0.75000000
 q=   0.50000000 -0.25000000 -0.75000000
  reading force constants from file fcc-li.dyn25
  nqs=           24
 q=   0.75000000 -0.25000000  1.00000000
 q=   1.00000000  0.25000000  0.75000000
 q=   0.75000000  0.25000000  1.00000000
 q=   1.00000000 -0.25000000 -0.75000000
 q=   1.00000000 -0.25000000  0.75000000
 q=  -0.75000000 -0.25000000 -1.00000000
 q=  -1.00000000  0.25000000 -0.75000000
 q=  -0.75000000  0.25000000  1.00000000
 q=  -0.25000000  1.00000000  0.75000000
 q=   0.25000000  1.00000000 -0.75000000
 q=  -0.25000000 -1.00000000 -0.75000000
 q=  -0.25000000  0.75000000 -1.00000000
 q=   1.00000000  0.75000000 -0.25000000
 q=  -1.00000000 -0.75000000 -0.25000000
 q=  -1.00000000  0.75000000  0.25000000
 q=   0.25000000 -0.75000000  1.00000000
 q=   0.25000000 -1.00000000  0.75000000
 q=   0.75000000 -1.00000000  0.25000000
 q=   0.25000000  0.75000000  1.00000000
 q=  -0.25000000 -0.75000000 -1.00000000
 q=  -0.75000000 -1.00000000  0.25000000
 q=   1.00000000 -0.75000000  0.25000000
 q=   0.75000000  1.00000000 -0.25000000
 q=  -0.75000000 -1.00000000 -0.25000000
  reading force constants from file fcc-li.dyn26
  nqs=           48
 q=   0.62500000 -0.12500000  0.87500000
 q=   0.62500000 -0.12500000 -0.87500000
 q=   0.87500000  0.12500000  0.62500000
 q=   0.62500000  0.12500000  0.87500000
 q=   0.87500000 -0.12500000 -0.62500000
 q=   0.87500000 -0.12500000  0.62500000
 q=  -0.87500000 -0.12500000  0.62500000
 q=  -0.62500000 -0.12500000 -0.87500000
 q=  -0.87500000  0.12500000 -0.62500000
 q=  -0.62500000 -0.12500000  0.87500000
 q=  -0.87500000  0.12500000  0.62500000
 q=   0.87500000  0.12500000 -0.62500000
 q=  -0.62500000  0.12500000  0.87500000
 q=  -0.87500000 -0.12500000 -0.62500000
 q=   0.62500000  0.12500000 -0.87500000
 q=  -0.62500000  0.12500000 -0.87500000
 q=  -0.12500000  0.87500000  0.62500000
 q=   0.12500000  0.87500000 -0.62500000
 q=  -0.12500000 -0.87500000 -0.62500000
 q=  -0.12500000  0.62500000 -0.87500000
 q=   0.87500000  0.62500000 -0.12500000
 q=  -0.12500000  0.87500000 -0.62500000
 q=  -0.87500000 -0.62500000 -0.12500000
 q=  -0.87500000  0.62500000  0.12500000
 q=   0.12500000 -0.62500000  0.87500000
 q=   0.12500000 -0.87500000  0.62500000
 q=   0.62500000 -0.87500000  0.12500000
 q=  -0.87500000  0.62500000 -0.12500000
 q=   0.12500000  0.62500000  0.87500000
 q=  -0.12500000  0.62500000  0.87500000
 q=   0.12500000  0.62500000 -0.87500000
 q=  -0.12500000 -0.62500000 -0.87500000
 q=  -0.62500000 -0.87500000  0.12500000
 q=  -0.12500000 -0.62500000  0.87500000
 q=   0.87500000 -0.62500000  0.12500000
 q=   0.62500000  0.87500000  0.12500000
 q=   0.12500000 -0.62500000 -0.87500000
 q=   0.62500000  0.87500000 -0.12500000
 q=  -0.62500000 -0.87500000 -0.12500000
 q=  -0.62500000  0.87500000 -0.12500000
 q=   0.12500000 -0.87500000 -0.62500000
 q=  -0.12500000 -0.87500000  0.62500000
 q=   0.12500000  0.87500000  0.62500000
 q=   0.62500000 -0.87500000 -0.12500000
 q=  -0.87500000 -0.62500000  0.12500000
 q=  -0.62500000  0.87500000  0.12500000
 q=   0.87500000  0.62500000  0.12500000
 q=   0.87500000 -0.62500000 -0.12500000
  reading force constants from file fcc-li.dyn27
  nqs=           24
 q=   0.50000000  0.00000000  0.75000000
 q=   0.75000000  0.00000000  0.50000000
 q=   0.50000000  0.00000000 -0.75000000
 q=   0.75000000  0.00000000 -0.50000000
 q=  -0.75000000  0.00000000  0.50000000
 q=  -0.50000000  0.00000000 -0.75000000
 q=  -0.75000000  0.00000000 -0.50000000
 q=  -0.50000000  0.00000000  0.75000000
 q=   0.00000000  0.75000000  0.50000000
 q=   0.00000000  0.75000000 -0.50000000
 q=   0.00000000 -0.75000000 -0.50000000
 q=   0.00000000  0.50000000 -0.75000000
 q=   0.75000000  0.50000000  0.00000000
 q=  -0.75000000 -0.50000000  0.00000000
 q=  -0.75000000  0.50000000  0.00000000
 q=   0.00000000 -0.50000000  0.75000000
 q=   0.00000000 -0.75000000  0.50000000
 q=   0.50000000 -0.75000000  0.00000000
 q=   0.00000000  0.50000000  0.75000000
 q=   0.00000000 -0.50000000 -0.75000000
 q=  -0.50000000 -0.75000000  0.00000000
 q=   0.75000000 -0.50000000  0.00000000
 q=   0.50000000  0.75000000  0.00000000
 q=  -0.50000000  0.75000000  0.00000000
  reading force constants from file fcc-li.dyn28
  nqs=           12
 q=  -0.25000000 -1.00000000  0.00000000
 q=   0.00000000 -1.00000000  0.25000000
 q=   0.00000000 -1.00000000 -0.25000000
 q=   0.25000000 -1.00000000  0.00000000
 q=  -1.00000000  0.00000000 -0.25000000
 q=   1.00000000  0.00000000  0.25000000
 q=  -1.00000000 -0.25000000  0.00000000
 q=   0.00000000 -0.25000000 -1.00000000
 q=   0.00000000  0.25000000 -1.00000000
 q=   1.00000000  0.25000000  0.00000000
 q=  -0.25000000  0.00000000  1.00000000
 q=   0.25000000  0.00000000  1.00000000
  reading force constants from file fcc-li.dyn29
  nqs=            6
 q=  -0.50000000 -1.00000000  0.00000000
 q=   0.00000000  1.00000000  0.50000000
 q=   0.50000000 -1.00000000  0.00000000
 q=   0.00000000  1.00000000 -0.50000000
 q=  -1.00000000 -0.50000000  0.00000000
 q=   0.00000000 -0.50000000 -1.00000000

      q-space grid ok, #points =  512

      fft-check success (sum of imaginary terms < 10^-12)

     Q2R          :     0.03s CPU         0.02s WALL


   This run was terminated on:  11:32:18   6Jun2016            

=------------------------------------------------------------------------------=
   JOB DONE.
=------------------------------------------------------------------------------=
