
     Program PWSCF v.6.1 (svn rev. 13369) starts on 17Dec2017 at 17: 4:55 

     This program is part of the open-source Quantum ESPRESSO suite
     for quantum simulation of materials; please cite
         "P. Giannozzi et al., J. Phys.:Condens. Matter 21 395502 (2009);
          URL http://www.quantum-espresso.org", 
     in publications or presentations arising from this work. More details at
     http://www.quantum-espresso.org/quote

     Parallel version (MPI), running on     4 processors
     R & G space division:  proc/nbgrp/npool/nimage =       4
     Waiting for input...
     Reading input from standard input

     Current dimensions of program PWSCF are:
     Max number of different atomic species (ntypx) = 10
     Max number of k-points (npk) =  40000
     Max angular momentum in pseudopotentials (lmaxx) =  3

     Subspace diagonalization in iterative solution of the eigenvalue problem:
     a serial algorithm will be used


     Parallelization info
     --------------------
     sticks:   dense  smooth     PW     G-vecs:    dense   smooth      PW
     Min         293     149     45                 6424     2296     388
     Max         294     150     46                 6425     2298     389
     Sum        1175     599    181                25699     9189    1553



     bravais-lattice index     =            3
     lattice parameter (alat)  =       8.1080  a.u.
     unit-cell volume          =     266.5086 (a.u.)^3
     number of atoms/cell      =            1
     number of atomic types    =            1
     number of electrons       =         9.00
     number of Kohn-Sham states=            9
     kinetic-energy cutoff     =      40.0000  Ry
     charge density cutoff     =     320.0000  Ry
     convergence threshold     =      1.0E-08
     mixing beta               =       0.7000
     number of iterations used =            8  plain     mixing
     Exchange-correlation      = SLA  PW   PBE  PBE ( 1  4  3  4 0 0)

     celldm(1)=   8.108000  celldm(2)=   0.000000  celldm(3)=   0.000000
     celldm(4)=   0.000000  celldm(5)=   0.000000  celldm(6)=   0.000000

     crystal axes: (cart. coord. in units of alat)
               a(1) = (   0.500000   0.500000   0.500000 )  
               a(2) = (  -0.500000   0.500000   0.500000 )  
               a(3) = (  -0.500000  -0.500000   0.500000 )  

     reciprocal axes: (cart. coord. in units 2 pi/alat)
               b(1) = (  1.000000  0.000000  1.000000 )  
               b(2) = ( -1.000000  1.000000  0.000000 )  
               b(3) = (  0.000000 -1.000000  1.000000 )  


     PseudoPot. # 1 for Na read from file:
     /home/max/quantum_espresso/qe-6.1/pseudo/Na_pbe_v1.uspp.F.UPF
     MD5 check sum: 76a99c7e9422403d3e93cbc85ab7bccb
     Pseudo is Ultrasoft, Zval =  9.0
     Generated by new atomic code, or converted to UPF format
     Using radial grid of  819 points,  5 beta functions with: 
                l(1) =   0
                l(2) =   0
                l(3) =   1
                l(4) =   1
                l(5) =   2
     Q(r) pseudized with  8 coefficients,  rinner =    1.250   1.250   1.250
                                                       1.250   1.250

     atomic species   valence    mass     pseudopotential
        Na             9.00    22.99000     Na( 1.00)

     48 Sym. Ops., with inversion, found



   Cartesian axes

     site n.     atom                  positions (alat units)
         1           Na  tau(   1) = (   0.0000000   0.0000000   0.0000000  )

     number of k points=   504  Marzari-Vanderbilt smearing, width (Ry)=  0.0200

     Number of k-points >= 100: set verbosity='high' to print them.

     Dense  grid:    25699 G-vectors     FFT dimensions: (  40,  40,  40)

     Smooth grid:     9189 G-vectors     FFT dimensions: (  30,  30,  30)

     Estimated max dynamical RAM per process >      23.75MB

     Estimated total allocated dynamical RAM >      94.98MB

     Initial potential from superposition of free atoms

     starting charge    8.99371, renormalised to    9.00000
     Starting wfc are    5 randomized atomic wfcs +    4 random wfc

     total cpu time spent up to now is        1.8 secs

     per-process dynamical memory:    29.6 Mb

     Self-consistent Calculation

     iteration #  1     ecut=    40.00 Ry     beta=0.70
     Davidson diagonalization with overlap
     ethr =  1.00E-02,  avg # of iterations =  5.8

     Threshold (ethr) on eigenvalues was too large:
     Diagonalizing with lowered threshold

     Davidson diagonalization with overlap
     ethr =  9.80E-06,  avg # of iterations =  4.9

     total cpu time spent up to now is       15.9 secs

     total energy              =     -95.10615674 Ry
     Harris-Foulkes estimate   =     -95.10632889 Ry
     estimated scf accuracy    <       0.00088084 Ry

     iteration #  2     ecut=    40.00 Ry     beta=0.70
     Davidson diagonalization with overlap
     ethr =  9.79E-06,  avg # of iterations =  2.0

     total cpu time spent up to now is       20.8 secs

     total energy              =     -95.10625195 Ry
     Harris-Foulkes estimate   =     -95.10627091 Ry
     estimated scf accuracy    <       0.00009645 Ry

     iteration #  3     ecut=    40.00 Ry     beta=0.70
     Davidson diagonalization with overlap
     ethr =  1.07E-06,  avg # of iterations =  2.1

     total cpu time spent up to now is       25.5 secs

     total energy              =     -95.10626381 Ry
     Harris-Foulkes estimate   =     -95.10626468 Ry
     estimated scf accuracy    <       0.00000589 Ry

     iteration #  4     ecut=    40.00 Ry     beta=0.70
     Davidson diagonalization with overlap
     ethr =  6.54E-08,  avg # of iterations =  1.0

     total cpu time spent up to now is       30.0 secs

     total energy              =     -95.10626438 Ry
     Harris-Foulkes estimate   =     -95.10626433 Ry
     estimated scf accuracy    <       0.00000002 Ry

     iteration #  5     ecut=    40.00 Ry     beta=0.70
     Davidson diagonalization with overlap
     ethr =  1.70E-10,  avg # of iterations =  3.0

     total cpu time spent up to now is       35.6 secs

     End of self-consistent calculation

     Number of k-points >= 100: set verbosity='high' to print the bands.

     the Fermi energy is     1.3504 ev

!    total energy              =     -95.10626441 Ry
     Harris-Foulkes estimate   =     -95.10626441 Ry
     estimated scf accuracy    <          1.7E-09 Ry

     The total energy is the sum of the following terms:

     one-electron contribution =     -89.50091758 Ry
     hartree contribution      =      45.01163258 Ry
     xc contribution           =     -14.26049685 Ry
     ewald contribution        =     -36.35642691 Ry
     smearing contrib. (-TS)   =      -0.00005565 Ry

     convergence has been achieved in   5 iterations


     Computing stress (Cartesian axis) and pressure

          total   stress  (Ry/bohr**3)                   (kbar)     P=   -6.95
  -0.00004724  -0.00000000   0.00000000         -6.95     -0.00      0.00
  -0.00000000  -0.00004724  -0.00000000         -0.00     -6.95     -0.00
   0.00000000  -0.00000000  -0.00004724          0.00     -0.00     -6.95


     Writing output data file na.bcc.save

     init_run     :      1.47s CPU      1.72s WALL (       1 calls)
     electrons    :     29.91s CPU     33.83s WALL (       1 calls)
     stress       :      1.26s CPU      1.38s WALL (       1 calls)

     Called by init_run:
     wfcinit      :      1.23s CPU      1.34s WALL (       1 calls)
     potinit      :      0.02s CPU      0.02s WALL (       1 calls)

     Called by electrons:
     c_bands      :     25.53s CPU     28.91s WALL (       6 calls)
     sum_band     :      4.22s CPU      4.75s WALL (       6 calls)
     v_of_rho     :      0.07s CPU      0.08s WALL (       6 calls)
     newd         :      0.11s CPU      0.12s WALL (       6 calls)
     mix_rho      :      0.00s CPU      0.00s WALL (       6 calls)

     Called by c_bands:
     init_us_2    :      0.73s CPU      0.77s WALL (    7056 calls)
     cegterg      :     24.63s CPU     27.90s WALL (    3024 calls)

     Called by sum_band:
     sum_band:bec :      0.01s CPU      0.01s WALL (    3024 calls)
     addusdens    :      0.09s CPU      0.10s WALL (       6 calls)

     Called by *egterg:
     h_psi        :     20.07s CPU     22.70s WALL (   12995 calls)
     s_psi        :      0.37s CPU      0.39s WALL (   12995 calls)
     g_psi        :      0.10s CPU      0.12s WALL (    9467 calls)
     cdiaghg      :      2.19s CPU      2.45s WALL (   11987 calls)

     Called by h_psi:
     h_psi:pot    :     20.02s CPU     22.64s WALL (   12995 calls)
     h_psi:calbec :      0.81s CPU      0.93s WALL (   12995 calls)
     vloc_psi     :     18.82s CPU     21.29s WALL (   12995 calls)
     add_vuspsi   :      0.37s CPU      0.40s WALL (   12995 calls)

     General routines
     calbec       :      1.28s CPU      1.53s WALL (   16523 calls)
     fft          :      0.05s CPU      0.05s WALL (     101 calls)
     ffts         :      0.00s CPU      0.00s WALL (      12 calls)
     fftw         :     20.64s CPU     23.48s WALL (  182142 calls)
     interpolate  :      0.01s CPU      0.01s WALL (      12 calls)
     davcio       :      0.01s CPU      0.01s WALL (     504 calls)

     Parallel routines
     fft_scatter  :      6.40s CPU      8.14s WALL (  182255 calls)

     PWSCF        :    33.18s CPU        37.52s WALL


   This run was terminated on:  17: 5:32  17Dec2017            

=------------------------------------------------------------------------------=
   JOB DONE.
=------------------------------------------------------------------------------=
