
     Program PWSCF v.6.1 (svn rev. 13369) starts on 17Dec2017 at 17: 2:57 

     This program is part of the open-source Quantum ESPRESSO suite
     for quantum simulation of materials; please cite
         "P. Giannozzi et al., J. Phys.:Condens. Matter 21 395502 (2009);
          URL http://www.quantum-espresso.org", 
     in publications or presentations arising from this work. More details at
     http://www.quantum-espresso.org/quote

     Parallel version (MPI), running on     4 processors
     R & G space division:  proc/nbgrp/npool/nimage =       4
     Waiting for input...
     Reading input from standard input

     Current dimensions of program PWSCF are:
     Max number of different atomic species (ntypx) = 10
     Max number of k-points (npk) =  40000
     Max angular momentum in pseudopotentials (lmaxx) =  3

     Subspace diagonalization in iterative solution of the eigenvalue problem:
     a serial algorithm will be used


     Parallelization info
     --------------------
     sticks:   dense  smooth     PW     G-vecs:    dense   smooth      PW
     Min         293     149     45                 6424     2296     388
     Max         294     150     46                 6425     2298     389
     Sum        1175     599    181                25699     9189    1553



     bravais-lattice index     =            3
     lattice parameter (alat)  =       8.1080  a.u.
     unit-cell volume          =     266.5086 (a.u.)^3
     number of atoms/cell      =            1
     number of atomic types    =            1
     number of electrons       =         9.00
     number of Kohn-Sham states=            9
     kinetic-energy cutoff     =      40.0000  Ry
     charge density cutoff     =     320.0000  Ry
     convergence threshold     =      1.0E-08
     mixing beta               =       0.7000
     number of iterations used =            8  plain     mixing
     Exchange-correlation      = SLA  PW   PBE  PBE ( 1  4  3  4 0 0)

     celldm(1)=   8.108000  celldm(2)=   0.000000  celldm(3)=   0.000000
     celldm(4)=   0.000000  celldm(5)=   0.000000  celldm(6)=   0.000000

     crystal axes: (cart. coord. in units of alat)
               a(1) = (   0.500000   0.500000   0.500000 )  
               a(2) = (  -0.500000   0.500000   0.500000 )  
               a(3) = (  -0.500000  -0.500000   0.500000 )  

     reciprocal axes: (cart. coord. in units 2 pi/alat)
               b(1) = (  1.000000  0.000000  1.000000 )  
               b(2) = ( -1.000000  1.000000  0.000000 )  
               b(3) = (  0.000000 -1.000000  1.000000 )  


     PseudoPot. # 1 for Na read from file:
     /home/max/quantum_espresso/qe-6.1/pseudo/Na_pbe_v1.uspp.F.UPF
     MD5 check sum: 76a99c7e9422403d3e93cbc85ab7bccb
     Pseudo is Ultrasoft, Zval =  9.0
     Generated by new atomic code, or converted to UPF format
     Using radial grid of  819 points,  5 beta functions with: 
                l(1) =   0
                l(2) =   0
                l(3) =   1
                l(4) =   1
                l(5) =   2
     Q(r) pseudized with  8 coefficients,  rinner =    1.250   1.250   1.250
                                                       1.250   1.250

     atomic species   valence    mass     pseudopotential
        Na             9.00    22.99000     Na( 1.00)

     48 Sym. Ops., with inversion, found



   Cartesian axes

     site n.     atom                  positions (alat units)
         1           Na  tau(   1) = (   0.0000000   0.0000000   0.0000000  )

     number of k points=    44  Marzari-Vanderbilt smearing, width (Ry)=  0.0200
                       cart. coord. in units 2pi/alat
        k(    1) = (   0.0000000   0.0000000   0.1000000), wk =   0.0120000
        k(    2) = (   0.0000000  -0.1000000   0.2000000), wk =   0.0480000
        k(    3) = (   0.0000000  -0.2000000   0.3000000), wk =   0.0480000
        k(    4) = (   0.0000000  -0.3000000   0.4000000), wk =   0.0480000
        k(    5) = (   0.0000000  -0.4000000   0.5000000), wk =   0.0480000
        k(    6) = (  -0.1000000   0.1000000   0.1000000), wk =   0.0160000
        k(    7) = (  -0.1000000  -0.1000000   0.3000000), wk =   0.0480000
        k(    8) = (  -0.1000000  -0.2000000   0.4000000), wk =   0.0960000
        k(    9) = (  -0.1000000  -0.3000000   0.5000000), wk =   0.0960000
        k(   10) = (  -0.1000000   0.6000000  -0.4000000), wk =   0.0480000
        k(   11) = (  -0.2000000   0.2000000   0.1000000), wk =   0.0480000
        k(   12) = (  -0.2000000  -0.2000000   0.5000000), wk =   0.0480000
        k(   13) = (  -0.2000000   0.7000000  -0.4000000), wk =   0.0960000
        k(   14) = (  -0.3000000   0.3000000   0.1000000), wk =   0.0480000
        k(   15) = (  -0.3000000   0.2000000   0.2000000), wk =   0.0480000
        k(   16) = (  -0.3000000   0.7000000  -0.3000000), wk =   0.0160000
        k(   17) = (  -0.4000000   0.4000000   0.1000000), wk =   0.0480000
        k(   18) = (  -0.4000000   0.3000000   0.2000000), wk =   0.0960000
        k(   19) = (   0.5000000  -0.5000000   0.1000000), wk =   0.0240000
        k(   20) = (   0.5000000  -0.6000000   0.2000000), wk =   0.0960000
        k(   21) = (   0.5000000  -0.7000000   0.3000000), wk =   0.0480000
        k(   22) = (   0.4000000  -0.6000000   0.3000000), wk =   0.0480000
        k(   23) = (   0.0000000   0.0000000   0.3000000), wk =   0.0120000
        k(   24) = (   0.0000000  -0.1000000   0.4000000), wk =   0.0480000
        k(   25) = (   0.0000000  -0.2000000   0.5000000), wk =   0.0480000
        k(   26) = (   0.0000000  -0.3000000   0.6000000), wk =   0.0480000
        k(   27) = (  -0.1000000  -0.1000000   0.5000000), wk =   0.0480000
        k(   28) = (  -0.1000000  -0.2000000   0.6000000), wk =   0.0960000
        k(   29) = (  -0.1000000   0.7000000  -0.3000000), wk =   0.0480000
        k(   30) = (  -0.2000000   0.8000000  -0.3000000), wk =   0.0480000
        k(   31) = (  -0.3000000   0.3000000   0.3000000), wk =   0.0160000
        k(   32) = (   0.6000000  -0.6000000   0.3000000), wk =   0.0480000
        k(   33) = (   0.5000000  -0.5000000   0.3000000), wk =   0.0240000
        k(   34) = (   0.5000000  -0.6000000   0.4000000), wk =   0.0480000
        k(   35) = (   0.0000000   0.0000000   0.5000000), wk =   0.0120000
        k(   36) = (   0.0000000  -0.1000000   0.6000000), wk =   0.0480000
        k(   37) = (   0.0000000  -0.2000000   0.7000000), wk =   0.0480000
        k(   38) = (  -0.1000000  -0.1000000   0.7000000), wk =   0.0480000
        k(   39) = (  -0.1000000   0.8000000  -0.2000000), wk =   0.0480000
        k(   40) = (   0.5000000  -0.5000000   0.5000000), wk =   0.0040000
        k(   41) = (   0.0000000   0.0000000   0.7000000), wk =   0.0120000
        k(   42) = (   0.0000000  -0.1000000   0.8000000), wk =   0.0480000
        k(   43) = (  -0.1000000   0.9000000  -0.1000000), wk =   0.0160000
        k(   44) = (   0.0000000   0.0000000   0.9000000), wk =   0.0120000

     Dense  grid:    25699 G-vectors     FFT dimensions: (  40,  40,  40)

     Smooth grid:     9189 G-vectors     FFT dimensions: (  30,  30,  30)

     Estimated max dynamical RAM per process >       5.80MB

     Estimated total allocated dynamical RAM >      23.22MB

     Initial potential from superposition of free atoms

     starting charge    8.99371, renormalised to    9.00000
     Starting wfc are    5 randomized atomic wfcs +    4 random wfc

     total cpu time spent up to now is        0.6 secs

     per-process dynamical memory:    10.1 Mb

     Self-consistent Calculation

     iteration #  1     ecut=    40.00 Ry     beta=0.70
     Davidson diagonalization with overlap
     ethr =  1.00E-02,  avg # of iterations =  5.9

     Threshold (ethr) on eigenvalues was too large:
     Diagonalizing with lowered threshold

     Davidson diagonalization with overlap
     ethr =  9.80E-06,  avg # of iterations =  5.2

     total cpu time spent up to now is        1.7 secs

     total energy              =     -95.10631812 Ry
     Harris-Foulkes estimate   =     -95.10649053 Ry
     estimated scf accuracy    <       0.00088017 Ry

     iteration #  2     ecut=    40.00 Ry     beta=0.70
     Davidson diagonalization with overlap
     ethr =  9.78E-06,  avg # of iterations =  2.0

     total cpu time spent up to now is        2.1 secs

     total energy              =     -95.10641365 Ry
     Harris-Foulkes estimate   =     -95.10643262 Ry
     estimated scf accuracy    <       0.00009642 Ry

     iteration #  3     ecut=    40.00 Ry     beta=0.70
     Davidson diagonalization with overlap
     ethr =  1.07E-06,  avg # of iterations =  2.0

     total cpu time spent up to now is        2.8 secs

     total energy              =     -95.10642528 Ry
     Harris-Foulkes estimate   =     -95.10642618 Ry
     estimated scf accuracy    <       0.00000593 Ry

     iteration #  4     ecut=    40.00 Ry     beta=0.70
     Davidson diagonalization with overlap
     ethr =  6.58E-08,  avg # of iterations =  1.0

     total cpu time spent up to now is        3.1 secs

     total energy              =     -95.10642585 Ry
     Harris-Foulkes estimate   =     -95.10642580 Ry
     estimated scf accuracy    <       0.00000001 Ry

     iteration #  5     ecut=    40.00 Ry     beta=0.70
     Davidson diagonalization with overlap
     ethr =  1.62E-10,  avg # of iterations =  3.0

     total cpu time spent up to now is        3.6 secs

     End of self-consistent calculation

          k = 0.0000 0.0000 0.1000 (  1129 PWs)   bands (ev):

   -51.7016 -23.5991 -23.5988 -23.5988  -1.7170  11.8398  11.8398  12.3525
    12.7523

          k = 0.0000-0.1000 0.2000 (  1129 PWs)   bands (ev):

   -51.7014 -23.6042 -23.6005 -23.5989  -1.3814   9.5501  10.7212  11.5689
    12.1817

          k = 0.0000-0.2000 0.3000 (  1134 PWs)   bands (ev):

   -51.7010 -23.6125 -23.6035 -23.5989  -0.7163   7.1739   9.8352  10.7680
    11.4103

          k = 0.0000-0.3000 0.4000 (  1130 PWs)   bands (ev):

   -51.7005 -23.6208 -23.6063 -23.5987   0.2672   5.0396   9.2336  10.1870
    10.8721

          k = 0.0000-0.4000 0.5000 (  1132 PWs)   bands (ev):

   -51.7003 -23.6260 -23.6080 -23.5987   1.5448   3.1861   8.9305   9.8896
    10.6014

          k =-0.1000 0.1000 0.1000 (  1124 PWs)   bands (ev):

   -51.7015 -23.6027 -23.5987 -23.5987  -1.5490  10.7008  10.7008  11.4077
    13.4253

          k =-0.1000-0.1000 0.3000 (  1136 PWs)   bands (ev):

   -51.7011 -23.6100 -23.6026 -23.6001  -0.8819   8.2711   8.8333  11.3734
    11.6084

          k =-0.1000-0.2000 0.4000 (  1129 PWs)   bands (ev):

   -51.7006 -23.6171 -23.6058 -23.6004  -0.0587   6.2325   7.8785  10.9030
    11.0524

          k =-0.1000-0.3000 0.5000 (  1140 PWs)   bands (ev):

   -51.7003 -23.6232 -23.6088 -23.6004   1.0730   4.2613   7.4007  10.5075
    10.6345

          k =-0.1000 0.6000-0.4000 (  1145 PWs)   bands (ev):

   -51.7002 -23.6256 -23.6099 -23.6004   2.3129   2.7379   7.2438  10.3739
    10.4835

          k =-0.2000 0.2000 0.1000 (  1133 PWs)   bands (ev):

   -51.7012 -23.6096 -23.6012 -23.5988  -1.0479   8.3462   9.6257  10.4197
    12.8076

          k =-0.2000-0.2000 0.5000 (  1137 PWs)   bands (ev):

   -51.7003 -23.6210 -23.6098 -23.6014   0.9132   5.3531   6.0416  10.4299
    11.5392

          k =-0.2000 0.7000-0.4000 (  1143 PWs)   bands (ev):

   -51.7001 -23.6226 -23.6133 -23.6017   2.1711   3.7798   5.4736  10.1429
    11.5638

          k =-0.3000 0.3000 0.1000 (  1131 PWs)   bands (ev):

   -51.7007 -23.6173 -23.6046 -23.5988  -0.2224   6.1037   8.8506   9.7172
    12.0829

          k =-0.3000 0.2000 0.2000 (  1126 PWs)   bands (ev):

   -51.7008 -23.6156 -23.6029 -23.6001  -0.3866   7.1907   7.7443   9.3509
    13.3627

          k =-0.3000 0.7000-0.3000 (  1142 PWs)   bands (ev):

   -51.7000 -23.6187 -23.6187 -23.6021   3.3716   3.3716   4.2382   9.9984
    12.6289

          k =-0.4000 0.4000 0.1000 (  1136 PWs)   bands (ev):

   -51.7004 -23.6238 -23.6073 -23.5988   0.9126   4.1104   8.3845   9.2871
    11.6365

          k =-0.4000 0.3000 0.2000 (  1133 PWs)   bands (ev):

   -51.7005 -23.6209 -23.6067 -23.6006   0.5910   5.3048   6.9277   8.7216
    13.0676

          k = 0.5000-0.5000 0.1000 (  1140 PWs)   bands (ev):

   -51.7003 -23.6262 -23.6084 -23.5989   2.1620   2.5744   8.2289   9.1422
    11.4869

          k = 0.5000-0.6000 0.2000 (  1138 PWs)   bands (ev):

   -51.7003 -23.6236 -23.6097 -23.6008   1.8588   3.4907   6.5996   8.4098
    12.8089

          k = 0.5000-0.7000 0.3000 (  1139 PWs)   bands (ev):

   -51.7003 -23.6214 -23.6109 -23.6020   1.7068   4.5875   5.2439   8.2245
    13.8541

          k = 0.4000-0.6000 0.3000 (  1148 PWs)   bands (ev):

   -51.7002 -23.6203 -23.6140 -23.6024   2.9165   3.3254   4.8602   8.0628
    13.9646

          k = 0.0000 0.0000 0.3000 (  1132 PWs)   bands (ev):

   -51.7011 -23.6054 -23.6024 -23.6024  -1.0479   9.5760   9.5760   9.7592
    11.3469

          k = 0.0000-0.1000 0.4000 (  1134 PWs)   bands (ev):

   -51.7007 -23.6121 -23.6054 -23.6030  -0.3865   7.4297   8.7015   9.4367
    11.0937

          k = 0.0000-0.2000 0.5000 (  1137 PWs)   bands (ev):

   -51.7003 -23.6199 -23.6083 -23.6028   0.5914   5.3349   8.1163   8.9467
    11.7616

          k = 0.0000-0.3000 0.6000 (  1137 PWs)   bands (ev):

   -51.7001 -23.6247 -23.6101 -23.6026   1.8602   3.4995   7.8234   8.6547
    12.3181

          k =-0.1000-0.1000 0.5000 (  1136 PWs)   bands (ev):

   -51.7003 -23.6172 -23.6088 -23.6045   0.4297   6.4291   7.0639   9.5224
    10.6014

          k =-0.1000-0.2000 0.6000 (  1139 PWs)   bands (ev):

   -51.7000 -23.6218 -23.6120 -23.6047   1.5513   4.6975   6.3798   9.4315
    11.1799

          k =-0.1000 0.7000-0.3000 (  1150 PWs)   bands (ev):

   -51.6999 -23.6237 -23.6134 -23.6047   2.7663   3.2175   6.2078   9.3254
    12.0123

          k =-0.2000 0.8000-0.3000 (  1142 PWs)   bands (ev):

   -51.6998 -23.6213 -23.6168 -23.6050   2.7850   4.1326   4.8387  10.3040
    10.9758

          k =-0.3000 0.3000 0.3000 (  1127 PWs)   bands (ev):

   -51.7005 -23.6198 -23.6033 -23.6033   0.4293   6.4204   6.4204   7.6772
    15.3156

          k = 0.6000-0.6000 0.3000 (  1147 PWs)   bands (ev):

   -51.7003 -23.6213 -23.6082 -23.6038   1.5494   4.6670   5.9591   6.9794
    15.2952

          k = 0.5000-0.5000 0.3000 (  1150 PWs)   bands (ev):

   -51.7003 -23.6209 -23.6109 -23.6040   2.7650   3.1996   5.8055   6.7848
    15.1640

          k = 0.5000-0.6000 0.4000 (  1146 PWs)   bands (ev):

   -51.7002 -23.6181 -23.6119 -23.6061   2.7795   4.1295   4.6877   6.3530
    16.3791

          k = 0.0000 0.0000 0.5000 (  1136 PWs)   bands (ev):

   -51.7003 -23.6130 -23.6084 -23.6084   0.2675   7.8033   7.8334   7.8334
     9.5766

          k = 0.0000-0.1000 0.6000 (  1145 PWs)   bands (ev):

   -51.7000 -23.6184 -23.6116 -23.6092   1.2345   5.8974   7.2542   7.8464
     9.5537

          k = 0.0000-0.2000 0.7000 (  1148 PWs)   bands (ev):

   -51.6997 -23.6226 -23.6134 -23.6089   2.4861   4.1136   6.9648   7.6351
    10.4367

          k =-0.1000-0.1000 0.7000 (  1150 PWs)   bands (ev):

   -51.6997 -23.6205 -23.6154 -23.6104   2.3386   5.2021   5.8566   8.2902
     9.2609

          k =-0.1000 0.8000-0.2000 (  1148 PWs)   bands (ev):

   -51.6996 -23.6213 -23.6171 -23.6103   3.5245   3.9600   5.4914   8.4480
     9.6868

          k = 0.5000-0.5000 0.5000 (  1136 PWs)   bands (ev):

   -51.7002 -23.6122 -23.6122 -23.6122   3.9770   3.9770   3.9770   5.4113
    18.0520

          k = 0.0000 0.0000 0.7000 (  1144 PWs)   bands (ev):

   -51.6996 -23.6177 -23.6147 -23.6147   2.1851   6.4978   6.6790   6.6790
     8.1924

          k = 0.0000-0.1000 0.8000 (  1138 PWs)   bands (ev):

   -51.6994 -23.6203 -23.6166 -23.6150   3.4118   4.9858   6.3919   6.8625
     8.3667

          k =-0.1000 0.9000-0.1000 (  1135 PWs)   bands (ev):

   -51.6993 -23.6193 -23.6193 -23.6154   4.5895   4.5895   5.4280   7.6768
     7.6768

          k = 0.0000 0.0000 0.9000 (  1152 PWs)   bands (ev):

   -51.6992 -23.6191 -23.6188 -23.6188   4.6051   5.8447   6.1059   6.1059
     6.9714

     the Fermi energy is     1.3742 ev

!    total energy              =     -95.10642588 Ry
     Harris-Foulkes estimate   =     -95.10642588 Ry
     estimated scf accuracy    <          1.8E-09 Ry

     The total energy is the sum of the following terms:

     one-electron contribution =     -89.50132516 Ry
     hartree contribution      =      45.01167775 Ry
     xc contribution           =     -14.26049154 Ry
     ewald contribution        =     -36.35642691 Ry
     smearing contrib. (-TS)   =       0.00013998 Ry

     convergence has been achieved in   5 iterations


     Computing stress (Cartesian axis) and pressure

          total   stress  (Ry/bohr**3)                   (kbar)     P=   -7.07
  -0.00004803   0.00000000  -0.00000000         -7.07      0.00     -0.00
   0.00000000  -0.00004803   0.00000000          0.00     -7.07      0.00
  -0.00000000   0.00000000  -0.00004803         -0.00      0.00     -7.07


     Writing output data file na.bcc.save

     init_run     :      0.37s CPU      0.52s WALL (       1 calls)
     electrons    :      2.64s CPU      3.04s WALL (       1 calls)
     stress       :      0.19s CPU      0.20s WALL (       1 calls)

     Called by init_run:
     wfcinit      :      0.14s CPU      0.19s WALL (       1 calls)
     potinit      :      0.05s CPU      0.09s WALL (       1 calls)

     Called by electrons:
     c_bands      :      2.05s CPU      2.39s WALL (       6 calls)
     sum_band     :      0.42s CPU      0.46s WALL (       6 calls)
     v_of_rho     :      0.09s CPU      0.10s WALL (       6 calls)
     newd         :      0.12s CPU      0.16s WALL (       6 calls)
     mix_rho      :      0.01s CPU      0.01s WALL (       6 calls)

     Called by c_bands:
     init_us_2    :      0.07s CPU      0.08s WALL (     616 calls)
     cegterg      :      1.98s CPU      2.32s WALL (     264 calls)

     Called by sum_band:
     sum_band:bec :      0.00s CPU      0.00s WALL (     264 calls)
     addusdens    :      0.09s CPU      0.11s WALL (       6 calls)

     Called by *egterg:
     h_psi        :      1.66s CPU      1.97s WALL (    1150 calls)
     s_psi        :      0.03s CPU      0.04s WALL (    1150 calls)
     g_psi        :      0.01s CPU      0.01s WALL (     842 calls)
     cdiaghg      :      0.17s CPU      0.19s WALL (    1062 calls)

     Called by h_psi:
     h_psi:pot    :      1.66s CPU      1.96s WALL (    1150 calls)
     h_psi:calbec :      0.05s CPU      0.05s WALL (    1150 calls)
     vloc_psi     :      1.57s CPU      1.87s WALL (    1150 calls)
     add_vuspsi   :      0.03s CPU      0.04s WALL (    1150 calls)

     General routines
     calbec       :      0.06s CPU      0.07s WALL (    1458 calls)
     fft          :      0.08s CPU      0.12s WALL (     101 calls)
     ffts         :      0.00s CPU      0.00s WALL (      12 calls)
     fftw         :      1.68s CPU      1.98s WALL (   15954 calls)
     interpolate  :      0.02s CPU      0.04s WALL (      12 calls)
     davcio       :      0.00s CPU      0.00s WALL (      44 calls)

     Parallel routines
     fft_scatter  :      0.48s CPU      0.68s WALL (   16067 calls)

     PWSCF        :     3.30s CPU         3.87s WALL


   This run was terminated on:  17: 3: 1  17Dec2017            

=------------------------------------------------------------------------------=
   JOB DONE.
=------------------------------------------------------------------------------=
