
     Program PWSCF v.6.1 (svn rev. 13369) starts on 26Jan2018 at 19: 2:10 

     This program is part of the open-source Quantum ESPRESSO suite
     for quantum simulation of materials; please cite
         "P. Giannozzi et al., J. Phys.:Condens. Matter 21 395502 (2009);
          URL http://www.quantum-espresso.org", 
     in publications or presentations arising from this work. More details at
     http://www.quantum-espresso.org/quote

     Parallel version (MPI), running on     4 processors
     R & G space division:  proc/nbgrp/npool/nimage =       4
     Waiting for input...
     Reading input from standard input

     Current dimensions of program PWSCF are:
     Max number of different atomic species (ntypx) = 10
     Max number of k-points (npk) =  40000
     Max angular momentum in pseudopotentials (lmaxx) =  3

     Subspace diagonalization in iterative solution of the eigenvalue problem:
     a serial algorithm will be used


     Parallelization info
     --------------------
     sticks:   dense  smooth     PW     G-vecs:    dense   smooth      PW
     Min         267     136     46                 5821     2072     397
     Max         268     137     47                 5825     2073     398
     Sum        1069     547    187                23289     8291    1591



     bravais-lattice index     =            2
     lattice parameter (alat)  =       9.8733  a.u.
     unit-cell volume          =     240.6146 (a.u.)^3
     number of atoms/cell      =            1
     number of atomic types    =            1
     number of electrons       =         9.00
     number of Kohn-Sham states=            9
     kinetic-energy cutoff     =      40.0000  Ry
     charge density cutoff     =     320.0000  Ry
     convergence threshold     =      1.0E-10
     mixing beta               =       0.7000
     number of iterations used =            8  plain     mixing
     Exchange-correlation      = SLA  PW   PBE  PBE ( 1  4  3  4 0 0)
     nstep                     =           50


     celldm(1)=   9.873262  celldm(2)=   0.000000  celldm(3)=   0.000000
     celldm(4)=   0.000000  celldm(5)=   0.000000  celldm(6)=   0.000000

     crystal axes: (cart. coord. in units of alat)
               a(1) = (  -0.500000   0.000000   0.500000 )  
               a(2) = (   0.000000   0.500000   0.500000 )  
               a(3) = (  -0.500000   0.500000   0.000000 )  

     reciprocal axes: (cart. coord. in units 2 pi/alat)
               b(1) = ( -1.000000 -1.000000  1.000000 )  
               b(2) = (  1.000000  1.000000  1.000000 )  
               b(3) = ( -1.000000  1.000000 -1.000000 )  


     PseudoPot. # 1 for Na read from file:
     /home/s1333534/quantum_espresso/qe-6.1/pseudo/Na_pbe_v1.uspp.F.UPF
     MD5 check sum: 76a99c7e9422403d3e93cbc85ab7bccb
     Pseudo is Ultrasoft, Zval =  9.0
     Generated by new atomic code, or converted to UPF format
     Using radial grid of  819 points,  5 beta functions with: 
                l(1) =   0
                l(2) =   0
                l(3) =   1
                l(4) =   1
                l(5) =   2
     Q(r) pseudized with  8 coefficients,  rinner =    1.250   1.250   1.250
                                                       1.250   1.250

     atomic species   valence    mass     pseudopotential
        Na             9.00    22.99000     Na( 1.00)

     48 Sym. Ops., with inversion, found



   Cartesian axes

     site n.     atom                  positions (alat units)
         1           Na  tau(   1) = (   0.0000000   0.0000000   0.0000000  )

     number of k points=   280  Marzari-Vanderbilt smearing, width (Ry)=  0.0200

     Number of k-points >= 100: set verbosity='high' to print them.

     Dense  grid:    23289 G-vectors     FFT dimensions: (  40,  40,  40)

     Smooth grid:     8291 G-vectors     FFT dimensions: (  30,  30,  30)

     Estimated max dynamical RAM per process >      13.69MB

     Estimated total allocated dynamical RAM >      54.78MB

     Initial potential from superposition of free atoms

     starting charge    8.99371, renormalised to    9.00000
     Starting wfc are    5 randomized atomic wfcs +    4 random wfc

     total cpu time spent up to now is        1.2 secs

     per-process dynamical memory:    20.8 Mb

     Self-consistent Calculation

     iteration #  1     ecut=    40.00 Ry     beta=0.70
     Davidson diagonalization with overlap
     ethr =  1.00E-02,  avg # of iterations =  5.5

     Threshold (ethr) on eigenvalues was too large:
     Diagonalizing with lowered threshold

     Davidson diagonalization with overlap
     ethr =  9.96E-06,  avg # of iterations =  3.8

     total cpu time spent up to now is        7.0 secs

     total energy              =     -95.10636187 Ry
     Harris-Foulkes estimate   =     -95.10658671 Ry
     estimated scf accuracy    <       0.00089402 Ry

     iteration #  2     ecut=    40.00 Ry     beta=0.70
     Davidson diagonalization with overlap
     ethr =  9.93E-06,  avg # of iterations =  2.0

     total cpu time spent up to now is        9.0 secs

     total energy              =     -95.10646199 Ry
     Harris-Foulkes estimate   =     -95.10648402 Ry
     estimated scf accuracy    <       0.00009770 Ry

     iteration #  3     ecut=    40.00 Ry     beta=0.70
     Davidson diagonalization with overlap
     ethr =  1.09E-06,  avg # of iterations =  2.1

     total cpu time spent up to now is       11.1 secs

     total energy              =     -95.10647381 Ry
     Harris-Foulkes estimate   =     -95.10647486 Ry
     estimated scf accuracy    <       0.00000586 Ry

     iteration #  4     ecut=    40.00 Ry     beta=0.70
     Davidson diagonalization with overlap
     ethr =  6.51E-08,  avg # of iterations =  1.0

     total cpu time spent up to now is       12.9 secs

     total energy              =     -95.10647437 Ry
     Harris-Foulkes estimate   =     -95.10647432 Ry
     estimated scf accuracy    <       0.00000001 Ry

     iteration #  5     ecut=    40.00 Ry     beta=0.70
     Davidson diagonalization with overlap
     ethr =  1.21E-10,  avg # of iterations =  3.0

     total cpu time spent up to now is       15.4 secs

     total energy              =     -95.10647440 Ry
     Harris-Foulkes estimate   =     -95.10647440 Ry
     estimated scf accuracy    <          1.6E-09 Ry

     iteration #  6     ecut=    40.00 Ry     beta=0.70
     Davidson diagonalization with overlap
     ethr =  1.82E-11,  avg # of iterations =  1.6

     total cpu time spent up to now is       17.2 secs

     End of self-consistent calculation

     Number of k-points >= 100: set verbosity='high' to print the bands.

     the Fermi energy is     1.7681 ev

!    total energy              =     -95.10647440 Ry
     Harris-Foulkes estimate   =     -95.10647440 Ry
     estimated scf accuracy    <          8.2E-12 Ry

     The total energy is the sum of the following terms:

     one-electron contribution =     -87.29422265 Ry
     hartree contribution      =      44.07548724 Ry
     xc contribution           =     -14.27357224 Ry
     ewald contribution        =     -37.61409449 Ry
     smearing contrib. (-TS)   =      -0.00007226 Ry

     convergence has been achieved in   6 iterations

     Forces acting on atoms (cartesian axes, Ry/au):

     atom    1 type  1   force =     0.00000000    0.00000000    0.00000000

     Total force =     0.000000     Total SCF correction =     0.000000


     Computing stress (Cartesian axis) and pressure

          total   stress  (Ry/bohr**3)                   (kbar)     P=    0.35
   0.00000237   0.00000000   0.00000000          0.35      0.00      0.00
   0.00000000   0.00000237  -0.00000000          0.00      0.35     -0.00
   0.00000000  -0.00000000   0.00000237          0.00     -0.00      0.35


     BFGS Geometry Optimization

     number of scf cycles    =   1
     number of bfgs steps    =   0

     enthalpy new            =     -95.1064744020 Ry

     new trust radius        =       0.0001839560 bohr
     new conv_thr            =            1.0E-10 Ry

     new unit-cell volume =    240.65745 a.u.^3 (    35.66175 Ang^3 )
     density =      1.07050 g/cm^3

CELL_PARAMETERS (alat=  9.87326248)
  -0.500029648  -0.000000000   0.500029648
   0.000000000   0.500029648   0.500029648
  -0.500029648   0.500029648  -0.000000000

ATOMIC_POSITIONS (crystal)
Na       0.000000000   0.000000000   0.000000000



     Writing output data file na.fcc.save
     NEW-OLD atomic charge density approx. for the potential
     extrapolated charge    9.00160, renormalised to    9.00000

     total cpu time spent up to now is       18.6 secs

     per-process dynamical memory:    31.7 Mb

     Self-consistent Calculation

     iteration #  1     ecut=    40.00 Ry     beta=0.70
     Davidson diagonalization with overlap
     ethr =  1.00E-06,  avg # of iterations =  2.0

     Threshold (ethr) on eigenvalues was too large:
     Diagonalizing with lowered threshold

     Davidson diagonalization with overlap
     ethr =  1.05E-08,  avg # of iterations =  1.0

     total cpu time spent up to now is       22.5 secs

     total energy              =     -95.10647281 Ry
     Harris-Foulkes estimate   =     -95.09410138 Ry
     estimated scf accuracy    <       0.00000095 Ry

     iteration #  2     ecut=    40.00 Ry     beta=0.70
     Davidson diagonalization with overlap
     ethr =  1.05E-08,  avg # of iterations =  2.9

     total cpu time spent up to now is       24.9 secs

     total energy              =     -95.10647453 Ry
     Harris-Foulkes estimate   =     -95.10647522 Ry
     estimated scf accuracy    <       0.00000158 Ry

     iteration #  3     ecut=    40.00 Ry     beta=0.70
     Davidson diagonalization with overlap
     ethr =  1.05E-08,  avg # of iterations =  1.6

     total cpu time spent up to now is       26.7 secs

     total energy              =     -95.10647454 Ry
     Harris-Foulkes estimate   =     -95.10647463 Ry
     estimated scf accuracy    <       0.00000031 Ry

     iteration #  4     ecut=    40.00 Ry     beta=0.70
     Davidson diagonalization with overlap
     ethr =  3.44E-09,  avg # of iterations =  1.0

     total cpu time spent up to now is       28.5 secs

     total energy              =     -95.10647452 Ry
     Harris-Foulkes estimate   =     -95.10647456 Ry
     estimated scf accuracy    <       0.00000012 Ry

     iteration #  5     ecut=    40.00 Ry     beta=0.70
     Davidson diagonalization with overlap
     ethr =  1.35E-09,  avg # of iterations =  1.0

     total cpu time spent up to now is       30.3 secs

     total energy              =     -95.10647451 Ry
     Harris-Foulkes estimate   =     -95.10647452 Ry
     estimated scf accuracy    <       0.00000005 Ry

     iteration #  6     ecut=    40.00 Ry     beta=0.70
     Davidson diagonalization with overlap
     ethr =  5.13E-10,  avg # of iterations =  1.0

     total cpu time spent up to now is       32.1 secs

     total energy              =     -95.10647449 Ry
     Harris-Foulkes estimate   =     -95.10647451 Ry
     estimated scf accuracy    <       0.00000002 Ry

     iteration #  7     ecut=    40.00 Ry     beta=0.70
     Davidson diagonalization with overlap
     ethr =  2.11E-10,  avg # of iterations =  2.0

     total cpu time spent up to now is       34.2 secs

     End of self-consistent calculation

     Number of k-points >= 100: set verbosity='high' to print the bands.

     the Fermi energy is     1.7674 ev

!    total energy              =     -95.10647450 Ry
     Harris-Foulkes estimate   =     -95.10647450 Ry
     estimated scf accuracy    <          4.0E-11 Ry

     The total energy is the sum of the following terms:

     one-electron contribution =     -87.29810225 Ry
     hartree contribution      =      44.07710542 Ry
     xc contribution           =     -14.27354115 Ry
     ewald contribution        =     -37.61186427 Ry
     smearing contrib. (-TS)   =      -0.00007226 Ry

     convergence has been achieved in   7 iterations

     Forces acting on atoms (cartesian axes, Ry/au):

     atom    1 type  1   force =     0.00000000    0.00000000    0.00000000

     Total force =     0.000000     Total SCF correction =     0.000000


     Computing stress (Cartesian axis) and pressure

          total   stress  (Ry/bohr**3)                   (kbar)     P=    0.27
   0.00000186   0.00000000   0.00000000          0.27      0.00      0.00
   0.00000000   0.00000186  -0.00000000          0.00      0.27     -0.00
   0.00000000  -0.00000000   0.00000186          0.00     -0.00      0.27


     number of scf cycles    =   2
     number of bfgs steps    =   1

     enthalpy old            =     -95.1064744020 Ry
     enthalpy new            =     -95.1064744987 Ry

     CASE: enthalpy_new < enthalpy_old

     new trust radius        =       0.0002023576 bohr
     new conv_thr            =            1.0E-12 Ry

     new unit-cell volume =    240.70454 a.u.^3 (    35.66873 Ang^3 )
     density =      1.07029 g/cm^3

CELL_PARAMETERS (alat=  9.87326248)
  -0.500062260  -0.000000000   0.500062260
   0.000000000   0.500062260   0.500062260
  -0.500062260   0.500062260  -0.000000000

ATOMIC_POSITIONS (crystal)
Na       0.000000000   0.000000000   0.000000000



     Writing output data file na.fcc.save
     NEW-OLD atomic charge density approx. for the potential
     extrapolated charge    9.00176, renormalised to    9.00000

     total cpu time spent up to now is       35.6 secs

     per-process dynamical memory:    31.7 Mb

     Self-consistent Calculation

     iteration #  1     ecut=    40.00 Ry     beta=0.70
     Davidson diagonalization with overlap
     ethr =  1.00E-06,  avg # of iterations =  2.0

     Threshold (ethr) on eigenvalues was too large:
     Diagonalizing with lowered threshold

     Davidson diagonalization with overlap
     ethr =  1.25E-08,  avg # of iterations =  1.0

     total cpu time spent up to now is       39.5 secs

     total energy              =     -95.10647257 Ry
     Harris-Foulkes estimate   =     -95.09286437 Ry
     estimated scf accuracy    <       0.00000113 Ry

     iteration #  2     ecut=    40.00 Ry     beta=0.70
     Davidson diagonalization with overlap
     ethr =  1.26E-08,  avg # of iterations =  2.9

     total cpu time spent up to now is       41.9 secs

     total energy              =     -95.10647464 Ry
     Harris-Foulkes estimate   =     -95.10647547 Ry
     estimated scf accuracy    <       0.00000191 Ry

     iteration #  3     ecut=    40.00 Ry     beta=0.70
     Davidson diagonalization with overlap
     ethr =  1.26E-08,  avg # of iterations =  1.7

     total cpu time spent up to now is       43.8 secs

     total energy              =     -95.10647465 Ry
     Harris-Foulkes estimate   =     -95.10647476 Ry
     estimated scf accuracy    <       0.00000038 Ry

     iteration #  4     ecut=    40.00 Ry     beta=0.70
     Davidson diagonalization with overlap
     ethr =  4.17E-09,  avg # of iterations =  1.0

     total cpu time spent up to now is       45.5 secs

     total energy              =     -95.10647462 Ry
     Harris-Foulkes estimate   =     -95.10647467 Ry
     estimated scf accuracy    <       0.00000014 Ry

     iteration #  5     ecut=    40.00 Ry     beta=0.70
     Davidson diagonalization with overlap
     ethr =  1.60E-09,  avg # of iterations =  1.0

     total cpu time spent up to now is       47.3 secs

     total energy              =     -95.10647461 Ry
     Harris-Foulkes estimate   =     -95.10647462 Ry
     estimated scf accuracy    <       0.00000005 Ry

     iteration #  6     ecut=    40.00 Ry     beta=0.70
     Davidson diagonalization with overlap
     ethr =  5.83E-10,  avg # of iterations =  1.0

     total cpu time spent up to now is       49.1 secs

     total energy              =     -95.10647460 Ry
     Harris-Foulkes estimate   =     -95.10647461 Ry
     estimated scf accuracy    <       0.00000002 Ry

     iteration #  7     ecut=    40.00 Ry     beta=0.70
     Davidson diagonalization with overlap
     ethr =  2.35E-10,  avg # of iterations =  2.0

     total cpu time spent up to now is       51.2 secs

     total energy              =     -95.10647460 Ry
     Harris-Foulkes estimate   =     -95.10647460 Ry
     estimated scf accuracy    <          4.4E-10 Ry

     iteration #  8     ecut=    40.00 Ry     beta=0.70
     Davidson diagonalization with overlap
     ethr =  4.91E-12,  avg # of iterations =  2.0

     total cpu time spent up to now is       53.3 secs

     total energy              =     -95.10647460 Ry
     Harris-Foulkes estimate   =     -95.10647460 Ry
     estimated scf accuracy    <          5.3E-11 Ry

     iteration #  9     ecut=    40.00 Ry     beta=0.70
     Davidson diagonalization with overlap
     ethr =  5.83E-13,  avg # of iterations =  1.0

     total cpu time spent up to now is       55.1 secs

     total energy              =     -95.10647460 Ry
     Harris-Foulkes estimate   =     -95.10647460 Ry
     estimated scf accuracy    <          5.0E-11 Ry

     iteration # 10     ecut=    40.00 Ry     beta=0.70
     Davidson diagonalization with overlap
     ethr =  5.60E-13,  avg # of iterations =  2.0

     total cpu time spent up to now is       57.3 secs

     total energy              =     -95.10647460 Ry
     Harris-Foulkes estimate   =     -95.10647460 Ry
     estimated scf accuracy    <          7.1E-12 Ry

     iteration # 11     ecut=    40.00 Ry     beta=0.70
     Davidson diagonalization with overlap
     ethr =  1.00E-13,  avg # of iterations =  1.9

     total cpu time spent up to now is       59.2 secs

     End of self-consistent calculation

     Number of k-points >= 100: set verbosity='high' to print the bands.

     the Fermi energy is     1.7665 ev

!    total energy              =     -95.10647460 Ry
     Harris-Foulkes estimate   =     -95.10647460 Ry
     estimated scf accuracy    <          1.9E-13 Ry

     The total energy is the sum of the following terms:

     one-electron contribution =     -87.30243236 Ry
     hartree contribution      =      44.07896293 Ry
     xc contribution           =     -14.27352158 Ry
     ewald contribution        =     -37.60941133 Ry
     smearing contrib. (-TS)   =      -0.00007226 Ry

     convergence has been achieved in  11 iterations

     Forces acting on atoms (cartesian axes, Ry/au):

     atom    1 type  1   force =     0.00000000    0.00000000    0.00000000

     Total force =     0.000000     Total SCF correction =     0.000000


     Computing stress (Cartesian axis) and pressure

          total   stress  (Ry/bohr**3)                   (kbar)     P=    0.31
   0.00000208   0.00000000   0.00000000          0.31      0.00      0.00
   0.00000000   0.00000208  -0.00000000          0.00      0.31     -0.00
   0.00000000  -0.00000000   0.00000208          0.00     -0.00      0.31


     number of scf cycles    =   3
     number of bfgs steps    =   2

     enthalpy old            =     -95.1064744987 Ry
     enthalpy new            =     -95.1064745991 Ry

     CASE: enthalpy_new < enthalpy_old


     WARNING: bfgs curvature condition failed, Theta= 0.574
     uphill step: resetting bfgs history

     new trust radius        =       0.0001614228 bohr
     new conv_thr            =            1.0E-12 Ry

     new unit-cell volume =    240.74211 a.u.^3 (    35.67430 Ang^3 )
     density =      1.07012 g/cm^3

CELL_PARAMETERS (alat=  9.87326248)
  -0.500088275  -0.000000000   0.500088275
   0.000000000   0.500088275   0.500088275
  -0.500088275   0.500088275  -0.000000000

ATOMIC_POSITIONS (crystal)
Na       0.000000000   0.000000000   0.000000000



     Writing output data file na.fcc.save
     NEW-OLD atomic charge density approx. for the potential
     extrapolated charge    9.00140, renormalised to    9.00000

     total cpu time spent up to now is       60.6 secs

     per-process dynamical memory:    31.7 Mb

     Self-consistent Calculation

     iteration #  1     ecut=    40.00 Ry     beta=0.70
     Davidson diagonalization with overlap
     ethr =  1.00E-06,  avg # of iterations =  2.0

     Threshold (ethr) on eigenvalues was too large:
     Diagonalizing with lowered threshold

     Davidson diagonalization with overlap
     ethr =  8.07E-09,  avg # of iterations =  1.0

     total cpu time spent up to now is       64.5 secs

     total energy              =     -95.10647337 Ry
     Harris-Foulkes estimate   =     -95.09561804 Ry
     estimated scf accuracy    <       0.00000073 Ry

     iteration #  2     ecut=    40.00 Ry     beta=0.70
     Davidson diagonalization with overlap
     ethr =  8.07E-09,  avg # of iterations =  2.9

     total cpu time spent up to now is       66.8 secs

     total energy              =     -95.10647470 Ry
     Harris-Foulkes estimate   =     -95.10647523 Ry
     estimated scf accuracy    <       0.00000122 Ry

     iteration #  3     ecut=    40.00 Ry     beta=0.70
     Davidson diagonalization with overlap
     ethr =  8.07E-09,  avg # of iterations =  1.6

     total cpu time spent up to now is       68.7 secs

     total energy              =     -95.10647471 Ry
     Harris-Foulkes estimate   =     -95.10647478 Ry
     estimated scf accuracy    <       0.00000024 Ry

     iteration #  4     ecut=    40.00 Ry     beta=0.70
     Davidson diagonalization with overlap
     ethr =  2.65E-09,  avg # of iterations =  1.0

     total cpu time spent up to now is       70.5 secs

     total energy              =     -95.10647469 Ry
     Harris-Foulkes estimate   =     -95.10647472 Ry
     estimated scf accuracy    <       0.00000009 Ry

     iteration #  5     ecut=    40.00 Ry     beta=0.70
     Davidson diagonalization with overlap
     ethr =  1.04E-09,  avg # of iterations =  1.0

     total cpu time spent up to now is       72.3 secs

     total energy              =     -95.10647468 Ry
     Harris-Foulkes estimate   =     -95.10647469 Ry
     estimated scf accuracy    <       0.00000003 Ry

     iteration #  6     ecut=    40.00 Ry     beta=0.70
     Davidson diagonalization with overlap
     ethr =  3.84E-10,  avg # of iterations =  1.0

     total cpu time spent up to now is       74.1 secs

     total energy              =     -95.10647467 Ry
     Harris-Foulkes estimate   =     -95.10647468 Ry
     estimated scf accuracy    <       0.00000001 Ry

     iteration #  7     ecut=    40.00 Ry     beta=0.70
     Davidson diagonalization with overlap
     ethr =  1.53E-10,  avg # of iterations =  2.0

     total cpu time spent up to now is       76.2 secs

     total energy              =     -95.10647467 Ry
     Harris-Foulkes estimate   =     -95.10647467 Ry
     estimated scf accuracy    <          2.1E-10 Ry

     iteration #  8     ecut=    40.00 Ry     beta=0.70
     Davidson diagonalization with overlap
     ethr =  2.33E-12,  avg # of iterations =  2.0

     total cpu time spent up to now is       78.4 secs

     total energy              =     -95.10647467 Ry
     Harris-Foulkes estimate   =     -95.10647467 Ry
     estimated scf accuracy    <          3.2E-11 Ry

     iteration #  9     ecut=    40.00 Ry     beta=0.70
     Davidson diagonalization with overlap
     ethr =  3.53E-13,  avg # of iterations =  1.0

     total cpu time spent up to now is       80.1 secs

     total energy              =     -95.10647467 Ry
     Harris-Foulkes estimate   =     -95.10647467 Ry
     estimated scf accuracy    <          3.1E-11 Ry

     iteration # 10     ecut=    40.00 Ry     beta=0.70
     Davidson diagonalization with overlap
     ethr =  3.40E-13,  avg # of iterations =  2.0

     total cpu time spent up to now is       82.3 secs

     total energy              =     -95.10647467 Ry
     Harris-Foulkes estimate   =     -95.10647467 Ry
     estimated scf accuracy    <          3.2E-12 Ry

     iteration # 11     ecut=    40.00 Ry     beta=0.70
     Davidson diagonalization with overlap
     ethr =  1.00E-13,  avg # of iterations =  1.0

     total cpu time spent up to now is       84.0 secs

     End of self-consistent calculation

     Number of k-points >= 100: set verbosity='high' to print the bands.

     the Fermi energy is     1.7658 ev

!    total energy              =     -95.10647467 Ry
     Harris-Foulkes estimate   =     -95.10647467 Ry
     estimated scf accuracy    <          5.7E-14 Ry

     The total energy is the sum of the following terms:

     one-electron contribution =     -87.30586276 Ry
     hartree contribution      =      44.08041586 Ry
     xc contribution           =     -14.27350062 Ry
     ewald contribution        =     -37.60745489 Ry
     smearing contrib. (-TS)   =      -0.00007226 Ry

     convergence has been achieved in  11 iterations

     Forces acting on atoms (cartesian axes, Ry/au):

     atom    1 type  1   force =     0.00000000    0.00000000    0.00000000

     Total force =     0.000000     Total SCF correction =     0.000000


     Computing stress (Cartesian axis) and pressure

          total   stress  (Ry/bohr**3)                   (kbar)     P=    0.29
   0.00000196   0.00000000   0.00000000          0.29      0.00      0.00
   0.00000000   0.00000196  -0.00000000          0.00      0.29     -0.00
   0.00000000  -0.00000000   0.00000196          0.00     -0.00      0.29


     number of scf cycles    =   4
     number of bfgs steps    =   3

     enthalpy old            =     -95.1064745991 Ry
     enthalpy new            =     -95.1064746745 Ry

     CASE: enthalpy_new < enthalpy_old


     WARNING: bfgs curvature condition failed, Theta= 0.848
     new trust radius        =       0.0001775697 bohr
     new conv_thr            =            1.0E-12 Ry

     new unit-cell volume =    240.78344 a.u.^3 (    35.68042 Ang^3 )
     density =      1.06994 g/cm^3

CELL_PARAMETERS (alat=  9.87326248)
  -0.500116891  -0.000000000   0.500116891
   0.000000000   0.500116891   0.500116891
  -0.500116891   0.500116891  -0.000000000

ATOMIC_POSITIONS (crystal)
Na       0.000000000   0.000000000   0.000000000



     Writing output data file na.fcc.save
     NEW-OLD atomic charge density approx. for the potential
     extrapolated charge    9.00154, renormalised to    9.00000

     total cpu time spent up to now is       85.5 secs

     per-process dynamical memory:    31.7 Mb

     Self-consistent Calculation

     iteration #  1     ecut=    40.00 Ry     beta=0.70
     Davidson diagonalization with overlap
     ethr =  1.00E-06,  avg # of iterations =  2.0

     Threshold (ethr) on eigenvalues was too large:
     Diagonalizing with lowered threshold

     Davidson diagonalization with overlap
     ethr =  9.76E-09,  avg # of iterations =  1.0

     total cpu time spent up to now is       89.3 secs

     total energy              =     -95.10647318 Ry
     Harris-Foulkes estimate   =     -95.09453261 Ry
     estimated scf accuracy    <       0.00000088 Ry

     iteration #  2     ecut=    40.00 Ry     beta=0.70
     Davidson diagonalization with overlap
     ethr =  9.76E-09,  avg # of iterations =  2.9

     total cpu time spent up to now is       91.7 secs

     total energy              =     -95.10647478 Ry
     Harris-Foulkes estimate   =     -95.10647543 Ry
     estimated scf accuracy    <       0.00000147 Ry

     iteration #  3     ecut=    40.00 Ry     beta=0.70
     Davidson diagonalization with overlap
     ethr =  9.76E-09,  avg # of iterations =  1.6

     total cpu time spent up to now is       93.6 secs

     total energy              =     -95.10647479 Ry
     Harris-Foulkes estimate   =     -95.10647488 Ry
     estimated scf accuracy    <       0.00000029 Ry

     iteration #  4     ecut=    40.00 Ry     beta=0.70
     Davidson diagonalization with overlap
     ethr =  3.20E-09,  avg # of iterations =  1.0

     total cpu time spent up to now is       95.3 secs

     total energy              =     -95.10647477 Ry
     Harris-Foulkes estimate   =     -95.10647481 Ry
     estimated scf accuracy    <       0.00000011 Ry

     iteration #  5     ecut=    40.00 Ry     beta=0.70
     Davidson diagonalization with overlap
     ethr =  1.25E-09,  avg # of iterations =  1.0

     total cpu time spent up to now is       97.1 secs

     total energy              =     -95.10647476 Ry
     Harris-Foulkes estimate   =     -95.10647477 Ry
     estimated scf accuracy    <       0.00000004 Ry

     iteration #  6     ecut=    40.00 Ry     beta=0.70
     Davidson diagonalization with overlap
     ethr =  4.64E-10,  avg # of iterations =  1.0

     total cpu time spent up to now is       98.9 secs

     total energy              =     -95.10647475 Ry
     Harris-Foulkes estimate   =     -95.10647476 Ry
     estimated scf accuracy    <       0.00000002 Ry

     iteration #  7     ecut=    40.00 Ry     beta=0.70
     Davidson diagonalization with overlap
     ethr =  1.85E-10,  avg # of iterations =  2.0

     total cpu time spent up to now is      101.0 secs

     total energy              =     -95.10647475 Ry
     Harris-Foulkes estimate   =     -95.10647475 Ry
     estimated scf accuracy    <          2.6E-10 Ry

     iteration #  8     ecut=    40.00 Ry     beta=0.70
     Davidson diagonalization with overlap
     ethr =  2.92E-12,  avg # of iterations =  2.0

     total cpu time spent up to now is      103.1 secs

     total energy              =     -95.10647475 Ry
     Harris-Foulkes estimate   =     -95.10647475 Ry
     estimated scf accuracy    <          3.1E-11 Ry

     iteration #  9     ecut=    40.00 Ry     beta=0.70
     Davidson diagonalization with overlap
     ethr =  3.42E-13,  avg # of iterations =  1.0

     total cpu time spent up to now is      104.9 secs

     total energy              =     -95.10647475 Ry
     Harris-Foulkes estimate   =     -95.10647475 Ry
     estimated scf accuracy    <          3.4E-11 Ry

     iteration # 10     ecut=    40.00 Ry     beta=0.70
     Davidson diagonalization with overlap
     ethr =  3.42E-13,  avg # of iterations =  2.0

     total cpu time spent up to now is      107.1 secs

     total energy              =     -95.10647475 Ry
     Harris-Foulkes estimate   =     -95.10647475 Ry
     estimated scf accuracy    <          3.8E-12 Ry

     iteration # 11     ecut=    40.00 Ry     beta=0.70
     Davidson diagonalization with overlap
     ethr =  1.00E-13,  avg # of iterations =  1.0

     total cpu time spent up to now is      108.8 secs

     End of self-consistent calculation

     Number of k-points >= 100: set verbosity='high' to print the bands.

     the Fermi energy is     1.7651 ev

!    total energy              =     -95.10647475 Ry
     Harris-Foulkes estimate   =     -95.10647475 Ry
     estimated scf accuracy    <          1.0E-13 Ry

     The total energy is the sum of the following terms:

     one-electron contribution =     -87.30963686 Ry
     hartree contribution      =      44.08201523 Ry
     xc contribution           =     -14.27347782 Ry
     ewald contribution        =     -37.60530304 Ry
     smearing contrib. (-TS)   =      -0.00007226 Ry

     convergence has been achieved in  11 iterations

     Forces acting on atoms (cartesian axes, Ry/au):

     atom    1 type  1   force =     0.00000000    0.00000000    0.00000000

     Total force =     0.000000     Total SCF correction =     0.000000


     Computing stress (Cartesian axis) and pressure

          total   stress  (Ry/bohr**3)                   (kbar)     P=    0.27
   0.00000185   0.00000000   0.00000000          0.27      0.00      0.00
   0.00000000   0.00000185  -0.00000000          0.00      0.27     -0.00
   0.00000000  -0.00000000   0.00000185          0.00     -0.00      0.27


     number of scf cycles    =   5
     number of bfgs steps    =   4

     enthalpy old            =     -95.1064746745 Ry
     enthalpy new            =     -95.1064747526 Ry

     CASE: enthalpy_new < enthalpy_old

     new trust radius        =       0.0002663622 bohr
     new conv_thr            =            1.0E-12 Ry

     new unit-cell volume =    240.84544 a.u.^3 (    35.68961 Ang^3 )
     density =      1.06966 g/cm^3

CELL_PARAMETERS (alat=  9.87326248)
  -0.500159815  -0.000000000   0.500159815
   0.000000000   0.500159815   0.500159815
  -0.500159815   0.500159815  -0.000000000

ATOMIC_POSITIONS (crystal)
Na       0.000000000   0.000000000   0.000000000



     Writing output data file na.fcc.save
     NEW-OLD atomic charge density approx. for the potential
     extrapolated charge    9.00232, renormalised to    9.00000

     total cpu time spent up to now is      110.2 secs

     per-process dynamical memory:    31.7 Mb

     Self-consistent Calculation

     iteration #  1     ecut=    40.00 Ry     beta=0.70
     Davidson diagonalization with overlap
     ethr =  1.00E-06,  avg # of iterations =  2.0

     Threshold (ethr) on eigenvalues was too large:
     Diagonalizing with lowered threshold

     Davidson diagonalization with overlap
     ethr =  2.20E-08,  avg # of iterations =  1.0

     total cpu time spent up to now is      114.1 secs

     total energy              =     -95.10647132 Ry
     Harris-Foulkes estimate   =     -95.08856221 Ry
     estimated scf accuracy    <       0.00000198 Ry

     iteration #  2     ecut=    40.00 Ry     beta=0.70
     Davidson diagonalization with overlap
     ethr =  2.20E-08,  avg # of iterations =  2.9

     total cpu time spent up to now is      116.5 secs

     total energy              =     -95.10647493 Ry
     Harris-Foulkes estimate   =     -95.10647638 Ry
     estimated scf accuracy    <       0.00000331 Ry

     iteration #  3     ecut=    40.00 Ry     beta=0.70
     Davidson diagonalization with overlap
     ethr =  2.20E-08,  avg # of iterations =  1.6

     total cpu time spent up to now is      118.4 secs

     total energy              =     -95.10647495 Ry
     Harris-Foulkes estimate   =     -95.10647514 Ry
     estimated scf accuracy    <       0.00000065 Ry

     iteration #  4     ecut=    40.00 Ry     beta=0.70
     Davidson diagonalization with overlap
     ethr =  7.21E-09,  avg # of iterations =  1.0

     total cpu time spent up to now is      120.1 secs

     total energy              =     -95.10647490 Ry
     Harris-Foulkes estimate   =     -95.10647498 Ry
     estimated scf accuracy    <       0.00000025 Ry

     iteration #  5     ecut=    40.00 Ry     beta=0.70
     Davidson diagonalization with overlap
     ethr =  2.83E-09,  avg # of iterations =  1.0

     total cpu time spent up to now is      121.9 secs

     total energy              =     -95.10647487 Ry
     Harris-Foulkes estimate   =     -95.10647490 Ry
     estimated scf accuracy    <       0.00000009 Ry

     iteration #  6     ecut=    40.00 Ry     beta=0.70
     Davidson diagonalization with overlap
     ethr =  1.05E-09,  avg # of iterations =  1.0

     total cpu time spent up to now is      123.7 secs

     total energy              =     -95.10647485 Ry
     Harris-Foulkes estimate   =     -95.10647488 Ry
     estimated scf accuracy    <       0.00000004 Ry

     iteration #  7     ecut=    40.00 Ry     beta=0.70
     Davidson diagonalization with overlap
     ethr =  4.15E-10,  avg # of iterations =  2.0

     total cpu time spent up to now is      125.8 secs

     total energy              =     -95.10647486 Ry
     Harris-Foulkes estimate   =     -95.10647486 Ry
     estimated scf accuracy    <          6.8E-10 Ry

     iteration #  8     ecut=    40.00 Ry     beta=0.70
     Davidson diagonalization with overlap
     ethr =  7.61E-12,  avg # of iterations =  2.0

     total cpu time spent up to now is      127.9 secs

     total energy              =     -95.10647486 Ry
     Harris-Foulkes estimate   =     -95.10647486 Ry
     estimated scf accuracy    <          6.1E-11 Ry

     iteration #  9     ecut=    40.00 Ry     beta=0.70
     Davidson diagonalization with overlap
     ethr =  6.75E-13,  avg # of iterations =  1.0

     total cpu time spent up to now is      129.7 secs

     total energy              =     -95.10647486 Ry
     Harris-Foulkes estimate   =     -95.10647486 Ry
     estimated scf accuracy    <          7.2E-11 Ry

     iteration # 10     ecut=    40.00 Ry     beta=0.70
     Davidson diagonalization with overlap
     ethr =  6.75E-13,  avg # of iterations =  2.0

     total cpu time spent up to now is      131.8 secs

     total energy              =     -95.10647486 Ry
     Harris-Foulkes estimate   =     -95.10647486 Ry
     estimated scf accuracy    <          9.8E-12 Ry

     iteration # 11     ecut=    40.00 Ry     beta=0.70
     Davidson diagonalization with overlap
     ethr =  1.08E-13,  avg # of iterations =  2.0

     total cpu time spent up to now is      133.9 secs

     End of self-consistent calculation

     Number of k-points >= 100: set verbosity='high' to print the bands.

     the Fermi energy is     1.7640 ev

!    total energy              =     -95.10647486 Ry
     Harris-Foulkes estimate   =     -95.10647486 Ry
     estimated scf accuracy    <          2.2E-13 Ry

     The total energy is the sum of the following terms:

     one-electron contribution =     -87.31529705 Ry
     hartree contribution      =      44.08441375 Ry
     xc contribution           =     -14.27344358 Ry
     ewald contribution        =     -37.60207573 Ry
     smearing contrib. (-TS)   =      -0.00007226 Ry

     convergence has been achieved in  11 iterations

     Forces acting on atoms (cartesian axes, Ry/au):

     atom    1 type  1   force =     0.00000000    0.00000000    0.00000000

     Total force =     0.000000     Total SCF correction =     0.000000


     Computing stress (Cartesian axis) and pressure

          total   stress  (Ry/bohr**3)                   (kbar)     P=    0.25
   0.00000167   0.00000000  -0.00000000          0.25      0.00     -0.00
  -0.00000000   0.00000167   0.00000000         -0.00      0.25      0.00
  -0.00000000   0.00000000   0.00000167         -0.00      0.00      0.25


     number of scf cycles    =   6
     number of bfgs steps    =   5

     enthalpy old            =     -95.1064747526 Ry
     enthalpy new            =     -95.1064748606 Ry

     CASE: enthalpy_new < enthalpy_old

     new trust radius        =       0.0003995605 bohr
     new conv_thr            =            1.0E-12 Ry

     new unit-cell volume =    240.93847 a.u.^3 (    35.70340 Ang^3 )
     density =      1.06925 g/cm^3

CELL_PARAMETERS (alat=  9.87326248)
  -0.500224201  -0.000000000   0.500224201
   0.000000000   0.500224201   0.500224201
  -0.500224201   0.500224201  -0.000000000

ATOMIC_POSITIONS (crystal)
Na       0.000000000   0.000000000   0.000000000



     Writing output data file na.fcc.save
     NEW-OLD atomic charge density approx. for the potential
     extrapolated charge    9.00347, renormalised to    9.00000

     total cpu time spent up to now is      135.3 secs

     per-process dynamical memory:    31.7 Mb

     Self-consistent Calculation

     iteration #  1     ecut=    40.00 Ry     beta=0.70
     Davidson diagonalization with overlap
     ethr =  1.00E-06,  avg # of iterations =  2.0

     Threshold (ethr) on eigenvalues was too large:
     Diagonalizing with lowered threshold

     Davidson diagonalization with overlap
     ethr =  4.94E-08,  avg # of iterations =  1.0

     total cpu time spent up to now is      139.2 secs

     total energy              =     -95.10646704 Ry
     Harris-Foulkes estimate   =     -95.07960728 Ry
     estimated scf accuracy    <       0.00000445 Ry

     iteration #  2     ecut=    40.00 Ry     beta=0.70
     Davidson diagonalization with overlap
     ethr =  4.94E-08,  avg # of iterations =  2.9

     total cpu time spent up to now is      141.6 secs

     total energy              =     -95.10647515 Ry
     Harris-Foulkes estimate   =     -95.10647842 Ry
     estimated scf accuracy    <       0.00000745 Ry

     iteration #  3     ecut=    40.00 Ry     beta=0.70
     Davidson diagonalization with overlap
     ethr =  4.94E-08,  avg # of iterations =  1.6

     total cpu time spent up to now is      143.5 secs

     total energy              =     -95.10647521 Ry
     Harris-Foulkes estimate   =     -95.10647564 Ry
     estimated scf accuracy    <       0.00000146 Ry

     iteration #  4     ecut=    40.00 Ry     beta=0.70
     Davidson diagonalization with overlap
     ethr =  1.62E-08,  avg # of iterations =  1.0

     total cpu time spent up to now is      145.3 secs

     total energy              =     -95.10647508 Ry
     Harris-Foulkes estimate   =     -95.10647527 Ry
     estimated scf accuracy    <       0.00000057 Ry

     iteration #  5     ecut=    40.00 Ry     beta=0.70
     Davidson diagonalization with overlap
     ethr =  6.36E-09,  avg # of iterations =  1.0

     total cpu time spent up to now is      147.0 secs

     total energy              =     -95.10647503 Ry
     Harris-Foulkes estimate   =     -95.10647510 Ry
     estimated scf accuracy    <       0.00000021 Ry

     iteration #  6     ecut=    40.00 Ry     beta=0.70
     Davidson diagonalization with overlap
     ethr =  2.35E-09,  avg # of iterations =  1.0

     total cpu time spent up to now is      148.8 secs

     total energy              =     -95.10647499 Ry
     Harris-Foulkes estimate   =     -95.10647504 Ry
     estimated scf accuracy    <       0.00000008 Ry

     iteration #  7     ecut=    40.00 Ry     beta=0.70
     Davidson diagonalization with overlap
     ethr =  9.33E-10,  avg # of iterations =  2.0

     total cpu time spent up to now is      150.9 secs

     total energy              =     -95.10647500 Ry
     Harris-Foulkes estimate   =     -95.10647500 Ry
     estimated scf accuracy    <          1.6E-09 Ry

     iteration #  8     ecut=    40.00 Ry     beta=0.70
     Davidson diagonalization with overlap
     ethr =  1.76E-11,  avg # of iterations =  2.0

     total cpu time spent up to now is      153.0 secs

     total energy              =     -95.10647500 Ry
     Harris-Foulkes estimate   =     -95.10647500 Ry
     estimated scf accuracy    <          1.3E-10 Ry

     iteration #  9     ecut=    40.00 Ry     beta=0.70
     Davidson diagonalization with overlap
     ethr =  1.48E-12,  avg # of iterations =  1.0

     total cpu time spent up to now is      154.8 secs

     total energy              =     -95.10647500 Ry
     Harris-Foulkes estimate   =     -95.10647500 Ry
     estimated scf accuracy    <          1.6E-10 Ry

     iteration # 10     ecut=    40.00 Ry     beta=0.70
     Davidson diagonalization with overlap
     ethr =  1.48E-12,  avg # of iterations =  2.0

     total cpu time spent up to now is      156.9 secs

     total energy              =     -95.10647500 Ry
     Harris-Foulkes estimate   =     -95.10647500 Ry
     estimated scf accuracy    <          2.3E-11 Ry

     iteration # 11     ecut=    40.00 Ry     beta=0.70
     Davidson diagonalization with overlap
     ethr =  2.60E-13,  avg # of iterations =  2.0

     total cpu time spent up to now is      159.0 secs

     End of self-consistent calculation

     Number of k-points >= 100: set verbosity='high' to print the bands.

     the Fermi energy is     1.7623 ev

!    total energy              =     -95.10647500 Ry
     Harris-Foulkes estimate   =     -95.10647500 Ry
     estimated scf accuracy    <          5.2E-13 Ry

     The total energy is the sum of the following terms:

     one-electron contribution =     -87.32378614 Ry
     hartree contribution      =      44.08801154 Ry
     xc contribution           =     -14.27339235 Ry
     ewald contribution        =     -37.59723579 Ry
     smearing contrib. (-TS)   =      -0.00007226 Ry

     convergence has been achieved in  11 iterations

     Forces acting on atoms (cartesian axes, Ry/au):

     atom    1 type  1   force =     0.00000000    0.00000000    0.00000000

     Total force =     0.000000     Total SCF correction =     0.000000


     Computing stress (Cartesian axis) and pressure

          total   stress  (Ry/bohr**3)                   (kbar)     P=    0.21
   0.00000141   0.00000000  -0.00000000          0.21      0.00     -0.00
   0.00000000   0.00000141   0.00000000          0.00      0.21      0.00
  -0.00000000   0.00000000   0.00000141         -0.00      0.00      0.21


     number of scf cycles    =   7
     number of bfgs steps    =   6

     enthalpy old            =     -95.1064748606 Ry
     enthalpy new            =     -95.1064750015 Ry

     CASE: enthalpy_new < enthalpy_old

     new trust radius        =       0.0005993793 bohr
     new conv_thr            =            1.0E-12 Ry

     new unit-cell volume =    241.07805 a.u.^3 (    35.72408 Ang^3 )
     density =      1.06863 g/cm^3

CELL_PARAMETERS (alat=  9.87326248)
  -0.500320780  -0.000000000   0.500320780
   0.000000000   0.500320780   0.500320780
  -0.500320780   0.500320780  -0.000000000

ATOMIC_POSITIONS (crystal)
Na       0.000000000   0.000000000   0.000000000



     Writing output data file na.fcc.save
     NEW-OLD atomic charge density approx. for the potential
     extrapolated charge    9.00521, renormalised to    9.00000

     total cpu time spent up to now is      160.4 secs

     per-process dynamical memory:    31.7 Mb

     Self-consistent Calculation

     iteration #  1     ecut=    40.00 Ry     beta=0.70
     Davidson diagonalization with overlap
     ethr =  1.00E-06,  avg # of iterations =  2.0

     total cpu time spent up to now is      162.7 secs

     total energy              =     -95.10645725 Ry
     Harris-Foulkes estimate   =     -95.06617640 Ry
     estimated scf accuracy    <       0.00001001 Ry

     iteration #  2     ecut=    40.00 Ry     beta=0.70
     Davidson diagonalization with overlap
     ethr =  1.11E-07,  avg # of iterations =  3.0

     total cpu time spent up to now is      165.0 secs

     total energy              =     -95.10647550 Ry
     Harris-Foulkes estimate   =     -95.10648286 Ry
     estimated scf accuracy    <       0.00001676 Ry

     iteration #  3     ecut=    40.00 Ry     beta=0.70
     Davidson diagonalization with overlap
     ethr =  1.11E-07,  avg # of iterations =  1.6

     total cpu time spent up to now is      166.9 secs

     total energy              =     -95.10647564 Ry
     Harris-Foulkes estimate   =     -95.10647660 Ry
     estimated scf accuracy    <       0.00000329 Ry

     iteration #  4     ecut=    40.00 Ry     beta=0.70
     Davidson diagonalization with overlap
     ethr =  3.65E-08,  avg # of iterations =  1.0

     total cpu time spent up to now is      168.7 secs

     total energy              =     -95.10647534 Ry
     Harris-Foulkes estimate   =     -95.10647577 Ry
     estimated scf accuracy    <       0.00000130 Ry

     iteration #  5     ecut=    40.00 Ry     beta=0.70
     Davidson diagonalization with overlap
     ethr =  1.44E-08,  avg # of iterations =  1.0

     total cpu time spent up to now is      170.5 secs

     total energy              =     -95.10647523 Ry
     Harris-Foulkes estimate   =     -95.10647539 Ry
     estimated scf accuracy    <       0.00000048 Ry

     iteration #  6     ecut=    40.00 Ry     beta=0.70
     Davidson diagonalization with overlap
     ethr =  5.34E-09,  avg # of iterations =  1.0

     total cpu time spent up to now is      172.3 secs

     total energy              =     -95.10647513 Ry
     Harris-Foulkes estimate   =     -95.10647525 Ry
     estimated scf accuracy    <       0.00000018 Ry

     iteration #  7     ecut=    40.00 Ry     beta=0.70
     Davidson diagonalization with overlap
     ethr =  1.95E-09,  avg # of iterations =  2.0

     total cpu time spent up to now is      174.4 secs

     total energy              =     -95.10647517 Ry
     Harris-Foulkes estimate   =     -95.10647517 Ry
     estimated scf accuracy    <          1.2E-10 Ry

     iteration #  8     ecut=    40.00 Ry     beta=0.70
     Davidson diagonalization with overlap
     ethr =  1.35E-12,  avg # of iterations =  3.0

     total cpu time spent up to now is      176.9 secs

     total energy              =     -95.10647517 Ry
     Harris-Foulkes estimate   =     -95.10647517 Ry
     estimated scf accuracy    <          1.9E-09 Ry

     iteration #  9     ecut=    40.00 Ry     beta=0.70
     Davidson diagonalization with overlap
     ethr =  1.35E-12,  avg # of iterations =  3.0

     total cpu time spent up to now is      179.3 secs

     total energy              =     -95.10647517 Ry
     Harris-Foulkes estimate   =     -95.10647517 Ry
     estimated scf accuracy    <          8.3E-11 Ry

     iteration # 10     ecut=    40.00 Ry     beta=0.70
     Davidson diagonalization with overlap
     ethr =  9.23E-13,  avg # of iterations =  2.0

     total cpu time spent up to now is      181.4 secs

     total energy              =     -95.10647517 Ry
     Harris-Foulkes estimate   =     -95.10647517 Ry
     estimated scf accuracy    <          2.3E-12 Ry

     iteration # 11     ecut=    40.00 Ry     beta=0.70
     Davidson diagonalization with overlap
     ethr =  1.00E-13,  avg # of iterations =  1.0

     total cpu time spent up to now is      183.2 secs

     End of self-consistent calculation

     Number of k-points >= 100: set verbosity='high' to print the bands.

     the Fermi energy is     1.7598 ev

!    total energy              =     -95.10647517 Ry
     Harris-Foulkes estimate   =     -95.10647517 Ry
     estimated scf accuracy    <          8.0E-14 Ry

     The total energy is the sum of the following terms:

     one-electron contribution =     -87.33651046 Ry
     hartree contribution      =      44.09340010 Ry
     xc contribution           =     -14.27331432 Ry
     ewald contribution        =     -37.58997823 Ry
     smearing contrib. (-TS)   =      -0.00007226 Ry

     convergence has been achieved in  11 iterations

     Forces acting on atoms (cartesian axes, Ry/au):

     atom    1 type  1   force =     0.00000000    0.00000000    0.00000000

     Total force =     0.000000     Total SCF correction =     0.000000


     Computing stress (Cartesian axis) and pressure

          total   stress  (Ry/bohr**3)                   (kbar)     P=    0.14
   0.00000096   0.00000000   0.00000000          0.14      0.00      0.00
   0.00000000   0.00000096   0.00000000          0.00      0.14      0.00
   0.00000000   0.00000000   0.00000096          0.00      0.00      0.14


     number of scf cycles    =   8
     number of bfgs steps    =   7

     enthalpy old            =     -95.1064750015 Ry
     enthalpy new            =     -95.1064751658 Ry

     CASE: enthalpy_new < enthalpy_old

     new trust radius        =       0.0008991558 bohr
     new conv_thr            =            1.0E-12 Ry

     new unit-cell volume =    241.28752 a.u.^3 (    35.75512 Ang^3 )
     density =      1.06770 g/cm^3

CELL_PARAMETERS (alat=  9.87326248)
  -0.500465649  -0.000000000   0.500465649
   0.000000000   0.500465649   0.500465649
  -0.500465649   0.500465649  -0.000000000

ATOMIC_POSITIONS (crystal)
Na       0.000000000   0.000000000   0.000000000



     Writing output data file na.fcc.save
     NEW-OLD atomic charge density approx. for the potential
     extrapolated charge    9.00781, renormalised to    9.00000

     total cpu time spent up to now is      184.6 secs

     per-process dynamical memory:    31.7 Mb

     Self-consistent Calculation

     iteration #  1     ecut=    40.00 Ry     beta=0.70
     Davidson diagonalization with overlap
     ethr =  1.00E-06,  avg # of iterations =  2.0

     total cpu time spent up to now is      187.0 secs

     total energy              =     -95.10643499 Ry
     Harris-Foulkes estimate   =     -95.04603352 Ry
     estimated scf accuracy    <       0.00002252 Ry

     iteration #  2     ecut=    40.00 Ry     beta=0.70
     Davidson diagonalization with overlap
     ethr =  2.50E-07,  avg # of iterations =  3.0

     total cpu time spent up to now is      189.3 secs

     total energy              =     -95.10647607 Ry
     Harris-Foulkes estimate   =     -95.10649263 Ry
     estimated scf accuracy    <       0.00003773 Ry

     iteration #  3     ecut=    40.00 Ry     beta=0.70
     Davidson diagonalization with overlap
     ethr =  2.50E-07,  avg # of iterations =  1.6

     total cpu time spent up to now is      191.2 secs

     total energy              =     -95.10647636 Ry
     Harris-Foulkes estimate   =     -95.10647853 Ry
     estimated scf accuracy    <       0.00000741 Ry

     iteration #  4     ecut=    40.00 Ry     beta=0.70
     Davidson diagonalization with overlap
     ethr =  8.23E-08,  avg # of iterations =  1.0

     total cpu time spent up to now is      193.0 secs

     total energy              =     -95.10647570 Ry
     Harris-Foulkes estimate   =     -95.10647666 Ry
     estimated scf accuracy    <       0.00000291 Ry

     iteration #  5     ecut=    40.00 Ry     beta=0.70
     Davidson diagonalization with overlap
     ethr =  3.23E-08,  avg # of iterations =  1.0

     total cpu time spent up to now is      194.8 secs

     total energy              =     -95.10647546 Ry
     Harris-Foulkes estimate   =     -95.10647580 Ry
     estimated scf accuracy    <       0.00000108 Ry

     iteration #  6     ecut=    40.00 Ry     beta=0.70
     Davidson diagonalization with overlap
     ethr =  1.20E-08,  avg # of iterations =  1.0

     total cpu time spent up to now is      196.6 secs

     total energy              =     -95.10647522 Ry
     Harris-Foulkes estimate   =     -95.10647549 Ry
     estimated scf accuracy    <       0.00000040 Ry

     iteration #  7     ecut=    40.00 Ry     beta=0.70
     Davidson diagonalization with overlap
     ethr =  4.47E-09,  avg # of iterations =  2.0

     total cpu time spent up to now is      198.8 secs

     total energy              =     -95.10647531 Ry
     Harris-Foulkes estimate   =     -95.10647531 Ry
     estimated scf accuracy    <          2.1E-10 Ry

     iteration #  8     ecut=    40.00 Ry     beta=0.70
     Davidson diagonalization with overlap
     ethr =  2.32E-12,  avg # of iterations =  3.0

     total cpu time spent up to now is      201.3 secs

     total energy              =     -95.10647531 Ry
     Harris-Foulkes estimate   =     -95.10647531 Ry
     estimated scf accuracy    <          3.7E-09 Ry

     iteration #  9     ecut=    40.00 Ry     beta=0.70
     Davidson diagonalization with overlap
     ethr =  2.32E-12,  avg # of iterations =  3.0

     total cpu time spent up to now is      203.7 secs

     total energy              =     -95.10647531 Ry
     Harris-Foulkes estimate   =     -95.10647531 Ry
     estimated scf accuracy    <          3.2E-10 Ry

     iteration # 10     ecut=    40.00 Ry     beta=0.70
     Davidson diagonalization with overlap
     ethr =  2.32E-12,  avg # of iterations =  2.0

     total cpu time spent up to now is      205.8 secs

     total energy              =     -95.10647531 Ry
     Harris-Foulkes estimate   =     -95.10647531 Ry
     estimated scf accuracy    <          4.9E-12 Ry

     iteration # 11     ecut=    40.00 Ry     beta=0.70
     Davidson diagonalization with overlap
     ethr =  1.00E-13,  avg # of iterations =  1.0

     total cpu time spent up to now is      207.6 secs

     End of self-consistent calculation

     Number of k-points >= 100: set verbosity='high' to print the bands.

     the Fermi energy is     1.7560 ev

!    total energy              =     -95.10647531 Ry
     Harris-Foulkes estimate   =     -95.10647531 Ry
     estimated scf accuracy    <          1.3E-13 Ry

     The total energy is the sum of the following terms:

     one-electron contribution =     -87.35559382 Ry
     hartree contribution      =      44.10148654 Ry
     xc contribution           =     -14.27319863 Ry
     ewald contribution        =     -37.57909714 Ry
     smearing contrib. (-TS)   =      -0.00007226 Ry

     convergence has been achieved in  11 iterations

     Forces acting on atoms (cartesian axes, Ry/au):

     atom    1 type  1   force =     0.00000000    0.00000000    0.00000000

     Total force =     0.000000     Total SCF correction =     0.000000


     Computing stress (Cartesian axis) and pressure

          total   stress  (Ry/bohr**3)                   (kbar)     P=    0.05
   0.00000035  -0.00000000   0.00000000          0.05     -0.00      0.00
  -0.00000000   0.00000035   0.00000000         -0.00      0.05      0.00
   0.00000000   0.00000000   0.00000035          0.00      0.00      0.05


     bfgs converged in   9 scf cycles and   8 bfgs steps
     (criteria: energy <  1.0E-04 Ry, force <  1.0E-03Ry/Bohr, cell <  1.0E-01kbar)

     End of BFGS Geometry Optimization

     Final enthalpy =     -95.1064753065 Ry
Begin final coordinates
     new unit-cell volume =    241.28752 a.u.^3 (    35.75512 Ang^3 )
     density =      1.06770 g/cm^3

CELL_PARAMETERS (alat=  9.87326248)
  -0.500465649  -0.000000000   0.500465649
   0.000000000   0.500465649   0.500465649
  -0.500465649   0.500465649  -0.000000000

ATOMIC_POSITIONS (crystal)
Na       0.000000000   0.000000000   0.000000000
End final coordinates



     A final scf calculation at the relaxed structure.
     The G-vectors are recalculated for the final unit cell
     Results may differ from those at the preceding step.

     Parallelization info
     --------------------
     sticks:   dense  smooth     PW     G-vecs:    dense   smooth      PW
     Min         267     136     46                 5821     2072     397
     Max         268     137     47                 5825     2073     398
     Sum        1069     547    187                23289     8291    1591



     bravais-lattice index     =            2
     lattice parameter (alat)  =       9.8733  a.u.
     unit-cell volume          =     241.2875 (a.u.)^3
     number of atoms/cell      =            1
     number of atomic types    =            1
     number of electrons       =         9.00
     number of Kohn-Sham states=            9
     kinetic-energy cutoff     =      40.0000  Ry
     charge density cutoff     =     320.0000  Ry
     convergence threshold     =      1.0E-12
     mixing beta               =       0.7000
     number of iterations used =            8  plain     mixing
     Exchange-correlation      = SLA  PW   PBE  PBE ( 1  4  3  4 0 0)

     celldm(1)=   9.873262  celldm(2)=   0.000000  celldm(3)=   0.000000
     celldm(4)=   0.000000  celldm(5)=   0.000000  celldm(6)=   0.000000

     crystal axes: (cart. coord. in units of alat)
               a(1) = (  -0.500466  -0.000000   0.500466 )  
               a(2) = (   0.000000   0.500466   0.500466 )  
               a(3) = (  -0.500466   0.500466  -0.000000 )  

     reciprocal axes: (cart. coord. in units 2 pi/alat)
               b(1) = ( -0.999070 -0.999070  0.999070 )  
               b(2) = (  0.999070  0.999070  0.999070 )  
               b(3) = ( -0.999070  0.999070 -0.999070 )  


     PseudoPot. # 1 for Na read from file:
     /home/s1333534/quantum_espresso/qe-6.1/pseudo/Na_pbe_v1.uspp.F.UPF
     MD5 check sum: 76a99c7e9422403d3e93cbc85ab7bccb
     Pseudo is Ultrasoft, Zval =  9.0
     Generated by new atomic code, or converted to UPF format
     Using radial grid of  819 points,  5 beta functions with: 
                l(1) =   0
                l(2) =   0
                l(3) =   1
                l(4) =   1
                l(5) =   2
     Q(r) pseudized with  8 coefficients,  rinner =    1.250   1.250   1.250
                                                       1.250   1.250

     atomic species   valence    mass     pseudopotential
        Na             9.00    22.99000     Na( 1.00)

     48 Sym. Ops., with inversion, found



   Cartesian axes

     site n.     atom                  positions (alat units)
         1           Na  tau(   1) = (   0.0000000   0.0000000   0.0000000  )

     number of k points=   280  Marzari-Vanderbilt smearing, width (Ry)=  0.0200

     Number of k-points >= 100: set verbosity='high' to print them.

     Dense  grid:    23289 G-vectors     FFT dimensions: (  40,  40,  40)

     Smooth grid:     8291 G-vectors     FFT dimensions: (  30,  30,  30)

     Estimated max dynamical RAM per process >      13.69MB

     Estimated total allocated dynamical RAM >      54.78MB

     Initial potential from superposition of free atoms

     starting charge    8.99371, renormalised to    9.00000
     Starting wfc are    5 randomized atomic wfcs +    4 random wfc

     Writing output data file na.fcc.save

     total cpu time spent up to now is      209.8 secs

     per-process dynamical memory:    26.5 Mb

     Self-consistent Calculation

     iteration #  1     ecut=    40.00 Ry     beta=0.70
     Davidson diagonalization with overlap
     c_bands:  1 eigenvalues not converged
     c_bands:  1 eigenvalues not converged
     c_bands:  1 eigenvalues not converged
     c_bands:  1 eigenvalues not converged
     c_bands:  1 eigenvalues not converged
     c_bands:  1 eigenvalues not converged
     ethr =  1.00E-06,  avg # of iterations = 11.5

     total cpu time spent up to now is      215.7 secs

     total energy              =     -95.10637305 Ry
     Harris-Foulkes estimate   =     -95.10660681 Ry
     estimated scf accuracy    <       0.00089679 Ry

     iteration #  2     ecut=    40.00 Ry     beta=0.70
     Davidson diagonalization with overlap
     ethr =  9.96E-06,  avg # of iterations =  2.0

     total cpu time spent up to now is      217.7 secs

     total energy              =     -95.10647693 Ry
     Harris-Foulkes estimate   =     -95.10650072 Ry
     estimated scf accuracy    <       0.00010046 Ry

     iteration #  3     ecut=    40.00 Ry     beta=0.70
     Davidson diagonalization with overlap
     ethr =  1.12E-06,  avg # of iterations =  2.0

     total cpu time spent up to now is      219.8 secs

     total energy              =     -95.10648815 Ry
     Harris-Foulkes estimate   =     -95.10648942 Ry
     estimated scf accuracy    <       0.00000625 Ry

     iteration #  4     ecut=    40.00 Ry     beta=0.70
     Davidson diagonalization with overlap
     ethr =  6.94E-08,  avg # of iterations =  1.0

     total cpu time spent up to now is      221.6 secs

     total energy              =     -95.10648872 Ry
     Harris-Foulkes estimate   =     -95.10648868 Ry
     estimated scf accuracy    <          8.6E-09 Ry

     iteration #  5     ecut=    40.00 Ry     beta=0.70
     Davidson diagonalization with overlap
     ethr =  9.53E-11,  avg # of iterations =  3.0

     total cpu time spent up to now is      224.1 secs

     total energy              =     -95.10648876 Ry
     Harris-Foulkes estimate   =     -95.10648875 Ry
     estimated scf accuracy    <          1.6E-09 Ry

     iteration #  6     ecut=    40.00 Ry     beta=0.70
     Davidson diagonalization with overlap
     ethr =  1.81E-11,  avg # of iterations =  1.6

     total cpu time spent up to now is      226.0 secs

     total energy              =     -95.10648876 Ry
     Harris-Foulkes estimate   =     -95.10648876 Ry
     estimated scf accuracy    <          3.4E-11 Ry

     iteration #  7     ecut=    40.00 Ry     beta=0.70
     Davidson diagonalization with overlap
     ethr =  3.83E-13,  avg # of iterations =  1.7

     total cpu time spent up to now is      227.9 secs

     total energy              =     -95.10648876 Ry
     Harris-Foulkes estimate   =     -95.10648876 Ry
     estimated scf accuracy    <          3.6E-12 Ry

     iteration #  8     ecut=    40.00 Ry     beta=0.70
     Davidson diagonalization with overlap
     ethr =  1.00E-13,  avg # of iterations =  1.6

     total cpu time spent up to now is      229.8 secs

     End of self-consistent calculation

     Number of k-points >= 100: set verbosity='high' to print the bands.

     the Fermi energy is     1.7561 ev

!    total energy              =     -95.10648876 Ry
     Harris-Foulkes estimate   =     -95.10648876 Ry
     estimated scf accuracy    <          4.0E-13 Ry

     The total energy is the sum of the following terms:

     one-electron contribution =     -87.35561587 Ry
     hartree contribution      =      44.10150076 Ry
     xc contribution           =     -14.27320425 Ry
     ewald contribution        =     -37.57909714 Ry
     smearing contrib. (-TS)   =      -0.00007226 Ry

     convergence has been achieved in   8 iterations

     Forces acting on atoms (cartesian axes, Ry/au):

     atom    1 type  1   force =     0.00000000    0.00000000    0.00000000

     Total force =     0.000000     Total SCF correction =     0.000000


     Computing stress (Cartesian axis) and pressure

          total   stress  (Ry/bohr**3)                   (kbar)     P=    0.10
   0.00000069  -0.00000000   0.00000000          0.10     -0.00      0.00
  -0.00000000   0.00000069   0.00000000         -0.00      0.10      0.00
   0.00000000   0.00000000   0.00000069          0.00      0.00      0.10


     Writing output data file na.fcc.save

     init_run     :      2.09s CPU      2.18s WALL (       2 calls)
     electrons    :    203.95s CPU    215.12s WALL (      10 calls)
     update_pot   :      1.78s CPU      1.80s WALL (       8 calls)
     forces       :      1.48s CPU      1.51s WALL (      10 calls)
     stress       :      7.13s CPU      7.17s WALL (      10 calls)

     Called by init_run:
     wfcinit      :      1.32s CPU      1.40s WALL (       2 calls)
     potinit      :      0.09s CPU      0.10s WALL (       2 calls)

     Called by electrons:
     c_bands      :    163.96s CPU    173.23s WALL (     105 calls)
     sum_band     :     37.35s CPU     39.20s WALL (     105 calls)
     v_of_rho     :      1.23s CPU      1.25s WALL (     108 calls)
     newd         :      1.44s CPU      1.44s WALL (     108 calls)
     mix_rho      :      0.10s CPU      0.11s WALL (     105 calls)

     Called by c_bands:
     init_us_2    :      6.46s CPU      6.77s WALL (   64960 calls)
     cegterg      :    157.03s CPU    165.91s WALL (   29400 calls)

     Called by sum_band:
     sum_band:bec :      0.10s CPU      0.11s WALL (   29400 calls)
     addusdens    :      1.89s CPU      1.92s WALL (     105 calls)

     Called by *egterg:
     h_psi        :    137.22s CPU    144.94s WALL (   84012 calls)
     s_psi        :      1.21s CPU      1.29s WALL (   84012 calls)
     g_psi        :      0.73s CPU      0.77s WALL (   54052 calls)
     cdiaghg      :      9.68s CPU     10.27s WALL (   79252 calls)

     Called by h_psi:
     h_psi:pot    :    136.69s CPU    144.37s WALL (   84012 calls)
     h_psi:calbec :      1.98s CPU      2.10s WALL (   84012 calls)
     vloc_psi     :    133.16s CPU    140.63s WALL (   84012 calls)
     add_vuspsi   :      1.29s CPU      1.37s WALL (   84012 calls)

     General routines
     calbec       :      3.80s CPU      4.01s WALL (  127412 calls)
     fft          :      0.60s CPU      0.63s WALL (    1804 calls)
     ffts         :      0.03s CPU      0.03s WALL (     213 calls)
     fftw         :    145.67s CPU    153.63s WALL ( 1502996 calls)
     interpolate  :      0.12s CPU      0.12s WALL (     213 calls)
     davcio       :      0.00s CPU      0.01s WALL (     560 calls)

     Parallel routines
     fft_scatter  :     24.94s CPU     26.46s WALL ( 1505013 calls)

     PWSCF        :  3m39.24s CPU     3m50.76s WALL


   This run was terminated on:  19: 6: 1  26Jan2018            

=------------------------------------------------------------------------------=
   JOB DONE.
=------------------------------------------------------------------------------=
