
     Program PWSCF v.6.1 (svn rev. 13369) starts on 21Dec2017 at 12:17:20 

     This program is part of the open-source Quantum ESPRESSO suite
     for quantum simulation of materials; please cite
         "P. Giannozzi et al., J. Phys.:Condens. Matter 21 395502 (2009);
          URL http://www.quantum-espresso.org", 
     in publications or presentations arising from this work. More details at
     http://www.quantum-espresso.org/quote

     Parallel version (MPI), running on     4 processors
     R & G space division:  proc/nbgrp/npool/nimage =       4
     Waiting for input...
     Reading input from standard input

     Current dimensions of program PWSCF are:
     Max number of different atomic species (ntypx) = 10
     Max number of k-points (npk) =  40000
     Max angular momentum in pseudopotentials (lmaxx) =  3

     Subspace diagonalization in iterative solution of the eigenvalue problem:
     a serial algorithm will be used


     Parallelization info
     --------------------
     sticks:   dense  smooth     PW     G-vecs:    dense   smooth      PW
     Min         205     105     37                 3896     1394     284
     Max         206     106     38                 3899     1395     285
     Sum         823     421    151                15593     5577    1139



     bravais-lattice index     =            2
     lattice parameter (alat)  =       8.6604  a.u.
     unit-cell volume          =     162.3881 (a.u.)^3
     number of atoms/cell      =            1
     number of atomic types    =            1
     number of electrons       =         9.00
     number of Kohn-Sham states=            9
     kinetic-energy cutoff     =      40.0000  Ry
     charge density cutoff     =     320.0000  Ry
     convergence threshold     =      1.0E-08
     mixing beta               =       0.7000
     number of iterations used =            8  plain     mixing
     Exchange-correlation      = SLA  PW   PBE  PBE ( 1  4  3  4 0 0)

     celldm(1)=   8.660402  celldm(2)=   0.000000  celldm(3)=   0.000000
     celldm(4)=   0.000000  celldm(5)=   0.000000  celldm(6)=   0.000000

     crystal axes: (cart. coord. in units of alat)
               a(1) = (  -0.500000   0.000000   0.500000 )  
               a(2) = (   0.000000   0.500000   0.500000 )  
               a(3) = (  -0.500000   0.500000   0.000000 )  

     reciprocal axes: (cart. coord. in units 2 pi/alat)
               b(1) = ( -1.000000 -1.000000  1.000000 )  
               b(2) = (  1.000000  1.000000  1.000000 )  
               b(3) = ( -1.000000  1.000000 -1.000000 )  


     PseudoPot. # 1 for Na read from file:
     /home/s1333534/quantum_espresso/qe-6.1/pseudo/Na_pbe_v1.uspp.F.UPF
     MD5 check sum: 76a99c7e9422403d3e93cbc85ab7bccb
     Pseudo is Ultrasoft, Zval =  9.0
     Generated by new atomic code, or converted to UPF format
     Using radial grid of  819 points,  5 beta functions with: 
                l(1) =   0
                l(2) =   0
                l(3) =   1
                l(4) =   1
                l(5) =   2
     Q(r) pseudized with  8 coefficients,  rinner =    1.250   1.250   1.250
                                                       1.250   1.250

     atomic species   valence    mass     pseudopotential
        Na             9.00    22.99000     Na( 1.00)

     48 Sym. Ops., with inversion, found



   Cartesian axes

     site n.     atom                  positions (alat units)
         1           Na  tau(   1) = (   0.0000000   0.0000000   0.0000000  )

     number of k points=   280  Marzari-Vanderbilt smearing, width (Ry)=  0.0200

     Number of k-points >= 100: set verbosity='high' to print them.

     Dense  grid:    15593 G-vectors     FFT dimensions: (  36,  36,  36)

     Smooth grid:     5577 G-vectors     FFT dimensions: (  25,  25,  25)

     Estimated max dynamical RAM per process >       9.29MB

     Estimated total allocated dynamical RAM >      37.14MB

     Initial potential from superposition of free atoms

     starting charge    8.99371, renormalised to    9.00000
     Starting wfc are    5 randomized atomic wfcs +    4 random wfc

     total cpu time spent up to now is        0.8 secs

     per-process dynamical memory:    14.5 Mb

     Self-consistent Calculation

     iteration #  1     ecut=    40.00 Ry     beta=0.70
     Davidson diagonalization with overlap
     ethr =  1.00E-02,  avg # of iterations =  5.3

     Threshold (ethr) on eigenvalues was too large:
     Diagonalizing with lowered threshold

     Davidson diagonalization with overlap
     ethr =  1.58E-05,  avg # of iterations =  3.2

     total cpu time spent up to now is        3.9 secs

     total energy              =     -95.09066635 Ry
     Harris-Foulkes estimate   =     -95.09118887 Ry
     estimated scf accuracy    <       0.00141941 Ry

     iteration #  2     ecut=    40.00 Ry     beta=0.70
     Davidson diagonalization with overlap
     ethr =  1.58E-05,  avg # of iterations =  2.0

     total cpu time spent up to now is        4.9 secs

     total energy              =     -95.09084932 Ry
     Harris-Foulkes estimate   =     -95.09089166 Ry
     estimated scf accuracy    <       0.00015953 Ry

     iteration #  3     ecut=    40.00 Ry     beta=0.70
     Davidson diagonalization with overlap
     ethr =  1.77E-06,  avg # of iterations =  2.1

     total cpu time spent up to now is        6.1 secs

     total energy              =     -95.09086956 Ry
     Harris-Foulkes estimate   =     -95.09087088 Ry
     estimated scf accuracy    <       0.00000923 Ry

     iteration #  4     ecut=    40.00 Ry     beta=0.70
     Davidson diagonalization with overlap
     ethr =  1.03E-07,  avg # of iterations =  1.0

     total cpu time spent up to now is        7.0 secs

     total energy              =     -95.09087040 Ry
     Harris-Foulkes estimate   =     -95.09087034 Ry
     estimated scf accuracy    <       0.00000001 Ry

     iteration #  5     ecut=    40.00 Ry     beta=0.70
     Davidson diagonalization with overlap
     ethr =  1.44E-10,  avg # of iterations =  3.0

     total cpu time spent up to now is        8.4 secs

     End of self-consistent calculation

     Number of k-points >= 100: set verbosity='high' to print the bands.

     the Fermi energy is     3.8925 ev

!    total energy              =     -95.09087044 Ry
     Harris-Foulkes estimate   =     -95.09087044 Ry
     estimated scf accuracy    <          1.9E-09 Ry

     The total energy is the sum of the following terms:

     one-electron contribution =     -78.11584271 Ry
     hartree contribution      =      40.23955101 Ry
     xc contribution           =     -14.33268630 Ry
     ewald contribution        =     -42.88182238 Ry
     smearing contrib. (-TS)   =      -0.00007006 Ry

     convergence has been achieved in   5 iterations


     Computing stress (Cartesian axis) and pressure

          total   stress  (Ry/bohr**3)                   (kbar)     P=   70.23
   0.00047738  -0.00000000  -0.00000000         70.23     -0.00     -0.00
  -0.00000000   0.00047738  -0.00000000         -0.00     70.23     -0.00
   0.00000000  -0.00000000   0.00047738          0.00     -0.00     70.23


     Writing output data file na.fcc.save

     init_run     :      0.52s CPU      0.69s WALL (       1 calls)
     electrons    :      7.08s CPU      7.62s WALL (       1 calls)
     stress       :      0.39s CPU      0.39s WALL (       1 calls)

     Called by init_run:
     wfcinit      :      0.36s CPU      0.42s WALL (       1 calls)
     potinit      :      0.01s CPU      0.02s WALL (       1 calls)

     Called by electrons:
     c_bands      :      5.84s CPU      6.31s WALL (       6 calls)
     sum_band     :      1.13s CPU      1.20s WALL (       6 calls)
     v_of_rho     :      0.06s CPU      0.06s WALL (       6 calls)
     newd         :      0.06s CPU      0.10s WALL (       6 calls)
     mix_rho      :      0.00s CPU      0.01s WALL (       6 calls)

     Called by c_bands:
     init_us_2    :      0.32s CPU      0.29s WALL (    3920 calls)
     cegterg      :      5.55s CPU      6.03s WALL (    1680 calls)

     Called by sum_band:
     sum_band:bec :      0.00s CPU      0.01s WALL (    1680 calls)
     addusdens    :      0.07s CPU      0.07s WALL (       6 calls)

     Called by *egterg:
     h_psi        :      4.45s CPU      4.83s WALL (    6612 calls)
     s_psi        :      0.08s CPU      0.07s WALL (    6612 calls)
     g_psi        :      0.02s CPU      0.04s WALL (    4652 calls)
     cdiaghg      :      0.91s CPU      0.96s WALL (    6052 calls)

     Called by h_psi:
     h_psi:pot    :      4.43s CPU      4.80s WALL (    6612 calls)
     h_psi:calbec :      0.11s CPU      0.12s WALL (    6612 calls)
     vloc_psi     :      4.26s CPU      4.59s WALL (    6612 calls)
     add_vuspsi   :      0.05s CPU      0.07s WALL (    6612 calls)

     General routines
     calbec       :      0.15s CPU      0.16s WALL (    8572 calls)
     fft          :      0.02s CPU      0.09s WALL (     101 calls)
     ffts         :      0.00s CPU      0.00s WALL (      12 calls)
     fftw         :      4.50s CPU      4.73s WALL (   98404 calls)
     interpolate  :      0.00s CPU      0.00s WALL (      12 calls)
     davcio       :      0.00s CPU      0.01s WALL (     280 calls)

     Parallel routines
     fft_scatter  :      1.07s CPU      1.31s WALL (   98517 calls)

     PWSCF        :     8.29s CPU         9.07s WALL


   This run was terminated on:  12:17:29  21Dec2017            

=------------------------------------------------------------------------------=
   JOB DONE.
=------------------------------------------------------------------------------=
