
     Program PWSCF v.6.1 (svn rev. 13369) starts on 30Jan2018 at 22: 1:59 

     This program is part of the open-source Quantum ESPRESSO suite
     for quantum simulation of materials; please cite
         "P. Giannozzi et al., J. Phys.:Condens. Matter 21 395502 (2009);
          URL http://www.quantum-espresso.org", 
     in publications or presentations arising from this work. More details at
     http://www.quantum-espresso.org/quote

     Parallel version (MPI), running on    64 processors
     K-points division:     npool     =       4
     R & G space division:  proc/nbgrp/npool/nimage =      16
     Waiting for input...
     Reading input from standard input

     Current dimensions of program PWSCF are:
     Max number of different atomic species (ntypx) = 10
     Max number of k-points (npk) =  80000
     Max angular momentum in pseudopotentials (lmaxx) =  3

     Subspace diagonalization in iterative solution of the eigenvalue problem:
     a serial algorithm will be used


     Parallelization info
     --------------------
     sticks:   dense  smooth     PW     G-vecs:    dense   smooth      PW
     Min          61      30      9                 1211      425      76
     Max          62      31     10                 1214      428      79
     Sum         977     483    159                19381     6819    1253



     bravais-lattice index     =            3
     lattice parameter (alat)  =       7.3804  a.u.
     unit-cell volume          =     201.0082 (a.u.)^3
     number of atoms/cell      =            1
     number of atomic types    =            1
     number of electrons       =         9.00
     number of Kohn-Sham states=            9
     kinetic-energy cutoff     =      40.0000  Ry
     charge density cutoff     =     320.0000  Ry
     convergence threshold     =      1.0E-10
     mixing beta               =       0.7000
     number of iterations used =            8  plain     mixing
     Exchange-correlation      = SLA  PW   PBE  PBE ( 1  4  3  4 0 0)

     celldm(1)=   7.380423  celldm(2)=   0.000000  celldm(3)=   0.000000
     celldm(4)=   0.000000  celldm(5)=   0.000000  celldm(6)=   0.000000

     crystal axes: (cart. coord. in units of alat)
               a(1) = (   0.500000   0.500000   0.500000 )  
               a(2) = (  -0.500000   0.500000   0.500000 )  
               a(3) = (  -0.500000  -0.500000   0.500000 )  

     reciprocal axes: (cart. coord. in units 2 pi/alat)
               b(1) = (  1.000000  0.000000  1.000000 )  
               b(2) = ( -1.000000  1.000000  0.000000 )  
               b(3) = (  0.000000 -1.000000  1.000000 )  


     PseudoPot. # 1 for Na read from file:
     /home/s1333534/quantum_espresso/qe-6.1/pseudo/Na_pbe_v1.uspp.F.UPF
     MD5 check sum: 76a99c7e9422403d3e93cbc85ab7bccb
     Pseudo is Ultrasoft, Zval =  9.0
     Generated by new atomic code, or converted to UPF format
     Using radial grid of  819 points,  5 beta functions with: 
                l(1) =   0
                l(2) =   0
                l(3) =   1
                l(4) =   1
                l(5) =   2
     Q(r) pseudized with  8 coefficients,  rinner =    1.250   1.250   1.250
                                                       1.250   1.250

     atomic species   valence    mass     pseudopotential
        Na             9.00    22.99000     Na( 1.00)

     48 Sym. Ops., with inversion, found



   Cartesian axes

     site n.     atom                  positions (alat units)
         1           Na  tau(   1) = (   0.0000000   0.0000000   0.0000000  )

     number of k points=   250  Marzari-Vanderbilt smearing, width (Ry)=  0.0200

     Number of k-points >= 100: set verbosity='high' to print them.

     Dense  grid:    19381 G-vectors     FFT dimensions: (  40,  40,  40)

     Smooth grid:     6819 G-vectors     FFT dimensions: (  25,  25,  25)

     Estimated max dynamical RAM per process >       1.38MB

     Estimated total allocated dynamical RAM >      88.64MB

     Initial potential from superposition of free atoms

     starting charge    8.99371, renormalised to    9.00000
     Starting wfc are    5 randomized atomic wfcs +    4 random wfc

     total cpu time spent up to now is        0.5 secs

     per-process dynamical memory:     6.9 Mb

     Self-consistent Calculation

     iteration #  1     ecut=    40.00 Ry     beta=0.70
     Davidson diagonalization with overlap
     ethr =  1.00E-02,  avg # of iterations =  5.6

     Threshold (ethr) on eigenvalues was too large:
     Diagonalizing with lowered threshold

     Davidson diagonalization with overlap
     ethr =  1.14E-05,  avg # of iterations =  4.0

     total cpu time spent up to now is        2.5 secs

     total energy              =     -95.10289339 Ry
     Harris-Foulkes estimate   =     -95.10322820 Ry
     estimated scf accuracy    <       0.00102773 Ry

     iteration #  2     ecut=    40.00 Ry     beta=0.70
     Davidson diagonalization with overlap
     ethr =  1.14E-05,  avg # of iterations =  2.0

     total cpu time spent up to now is        3.0 secs

     total energy              =     -95.10302208 Ry
     Harris-Foulkes estimate   =     -95.10305093 Ry
     estimated scf accuracy    <       0.00011560 Ry

     iteration #  3     ecut=    40.00 Ry     beta=0.70
     Davidson diagonalization with overlap
     ethr =  1.28E-06,  avg # of iterations =  2.1

     total cpu time spent up to now is        3.6 secs

     total energy              =     -95.10303529 Ry
     Harris-Foulkes estimate   =     -95.10303652 Ry
     estimated scf accuracy    <       0.00000701 Ry

     iteration #  4     ecut=    40.00 Ry     beta=0.70
     Davidson diagonalization with overlap
     ethr =  7.78E-08,  avg # of iterations =  1.0

     total cpu time spent up to now is        4.1 secs

     total energy              =     -95.10303592 Ry
     Harris-Foulkes estimate   =     -95.10303587 Ry
     estimated scf accuracy    <          9.4E-09 Ry

     iteration #  5     ecut=    40.00 Ry     beta=0.70
     Davidson diagonalization with overlap
     ethr =  1.04E-10,  avg # of iterations =  3.0

     total cpu time spent up to now is        4.8 secs

     total energy              =     -95.10303595 Ry
     Harris-Foulkes estimate   =     -95.10303595 Ry
     estimated scf accuracy    <          1.3E-09 Ry

     iteration #  6     ecut=    40.00 Ry     beta=0.70
     Davidson diagonalization with overlap
     ethr =  1.50E-11,  avg # of iterations =  1.5

     total cpu time spent up to now is        5.3 secs

     End of self-consistent calculation

     Number of k-points >= 100: set verbosity='high' to print the bands.

     the Fermi energy is     2.6320 ev

!    total energy              =     -95.10303595 Ry
     Harris-Foulkes estimate   =     -95.10303595 Ry
     estimated scf accuracy    <          2.2E-11 Ry

     The total energy is the sum of the following terms:

     one-electron contribution =     -83.22293790 Ry
     hartree contribution      =      42.35914838 Ry
     xc contribution           =     -14.29862653 Ry
     ewald contribution        =     -39.94051744 Ry
     smearing contrib. (-TS)   =      -0.00010246 Ry

     convergence has been achieved in   6 iterations


     Computing stress (Cartesian axis) and pressure

          total   stress  (Ry/bohr**3)                   (kbar)     P=   21.70
   0.00014752   0.00000000  -0.00000000         21.70      0.00     -0.00
   0.00000000   0.00014752   0.00000000          0.00     21.70      0.00
  -0.00000000   0.00000000   0.00014752         -0.00      0.00     21.70


     Writing output data file na.bcc.save

     init_run     :      0.28s CPU      0.31s WALL (       1 calls)
     electrons    :      4.43s CPU      4.79s WALL (       1 calls)
     stress       :      0.17s CPU      0.17s WALL (       1 calls)

     Called by init_run:
     wfcinit      :      0.13s CPU      0.14s WALL (       1 calls)
     potinit      :      0.02s CPU      0.03s WALL (       1 calls)

     Called by electrons:
     c_bands      :      3.70s CPU      4.00s WALL (       7 calls)
     sum_band     :      0.58s CPU      0.63s WALL (       7 calls)
     v_of_rho     :      0.08s CPU      0.08s WALL (       7 calls)
     newd         :      0.06s CPU      0.06s WALL (       7 calls)
     mix_rho      :      0.01s CPU      0.01s WALL (       7 calls)

     Called by c_bands:
     init_us_2    :      0.07s CPU      0.07s WALL (    1008 calls)
     cegterg      :      3.19s CPU      3.48s WALL (     441 calls)

     Called by sum_band:
     sum_band:bec :      0.00s CPU      0.01s WALL (     441 calls)
     addusdens    :      0.07s CPU      0.07s WALL (       7 calls)

     Called by *egterg:
     h_psi        :      2.07s CPU      2.24s WALL (    1758 calls)
     s_psi        :      0.03s CPU      0.03s WALL (    1758 calls)
     g_psi        :      0.01s CPU      0.01s WALL (    1254 calls)
     cdiaghg      :      0.73s CPU      0.79s WALL (    1632 calls)

     Called by h_psi:
     h_psi:pot    :      2.05s CPU      2.22s WALL (    1758 calls)
     h_psi:calbec :      0.12s CPU      0.13s WALL (    1758 calls)
     vloc_psi     :      1.89s CPU      2.04s WALL (    1758 calls)
     add_vuspsi   :      0.03s CPU      0.03s WALL (    1758 calls)

     General routines
     calbec       :      0.16s CPU      0.18s WALL (    2262 calls)
     fft          :      0.09s CPU      0.09s WALL (     117 calls)
     ffts         :      0.00s CPU      0.00s WALL (      14 calls)
     fftw         :      1.96s CPU      2.12s WALL (   25633 calls)
     interpolate  :      0.01s CPU      0.01s WALL (      14 calls)
     davcio       :      0.00s CPU      0.01s WALL (      63 calls)

     Parallel routines
     fft_scatter  :      1.13s CPU      1.22s WALL (   25764 calls)

     PWSCF        :     6.12s CPU         6.59s WALL


   This run was terminated on:  22: 2: 6  30Jan2018            

=------------------------------------------------------------------------------=
   JOB DONE.
=------------------------------------------------------------------------------=
