
     Program PHONON v.6.1 (svn rev. 13369) starts on 30Jan2018 at 22: 2: 6 

     This program is part of the open-source Quantum ESPRESSO suite
     for quantum simulation of materials; please cite
         "P. Giannozzi et al., J. Phys.:Condens. Matter 21 395502 (2009);
          URL http://www.quantum-espresso.org", 
     in publications or presentations arising from this work. More details at
     http://www.quantum-espresso.org/quote

     Parallel version (MPI), running on    64 processors
     K-points division:     npool     =       4
     R & G space division:  proc/nbgrp/npool/nimage =      16

     Reading data from directory:
     ./na.bcc.save

   Info: using nr1, nr2, nr3 values from input

   Info: using nr1, nr2, nr3 values from input

     IMPORTANT: XC functional enforced from input :
     Exchange-correlation      = SLA  PW   PBE  PBE ( 1  4  3  4 0 0)
     Any further DFT definition will be discarded
     Please, verify this is what you really want


     Parallelization info
     --------------------
     sticks:   dense  smooth     PW     G-vecs:    dense   smooth      PW
     Min          61      30      9                 1211      425      76
     Max          62      31     10                 1214      428      79
     Sum         977     483    159                19381     6819    1253



     Dynamical matrices for ( 6, 6, 6)  uniform grid of q-points
     (  16q-points):
       N         xq(1)         xq(2)         xq(3) 
       1   0.000000000   0.000000000   0.000000000
       2   0.000000000  -0.166666667   0.166666667
       3   0.000000000  -0.333333333   0.333333333
       4   0.000000000   0.500000000  -0.500000000
       5  -0.166666667  -0.166666667   0.333333333
       6  -0.166666667   0.666666667  -0.500000000
       7  -0.333333333   0.666666667  -0.333333333
       8   0.000000000   0.000000000   0.333333333
       9   0.000000000  -0.166666667   0.500000000
      10   0.000000000   0.666666667  -0.333333333
      11  -0.166666667   0.833333333  -0.333333333
      12   0.666666667  -0.666666667   0.333333333
      13   0.500000000  -0.500000000   0.333333333
      14   0.000000000   0.000000000   0.666666667
      15   0.000000000   0.833333333  -0.166666667
      16   0.000000000   0.000000000  -1.000000000

     Calculation of q =    0.0000000   0.0000000   0.0000000

                                                                                

     bravais-lattice index     =            3
     lattice parameter (alat)  =       7.3804  a.u.
     unit-cell volume          =     201.0082 (a.u.)^3
     number of atoms/cell      =            1
     number of atomic types    =            1
     kinetic-energy cut-off    =      40.0000  Ry
     charge density cut-off    =     320.0000  Ry
     convergence threshold     =      1.0E-16
     beta                      =       0.7000
     number of iterations used =            4
     Exchange-correlation      = SLA  PW   PBE  PBE ( 1  4  3  4 0 0)


     celldm(1)=    7.38042  celldm(2)=    0.00000  celldm(3)=    0.00000
     celldm(4)=    0.00000  celldm(5)=    0.00000  celldm(6)=    0.00000

     crystal axes: (cart. coord. in units of alat)
               a(1) = (  0.5000  0.5000  0.5000 )  
               a(2) = ( -0.5000  0.5000  0.5000 )  
               a(3) = ( -0.5000 -0.5000  0.5000 )  

     reciprocal axes: (cart. coord. in units 2 pi/alat)
               b(1) = (  1.0000  0.0000  1.0000 )  
               b(2) = ( -1.0000  1.0000  0.0000 )  
               b(3) = (  0.0000 -1.0000  1.0000 )  


     Atoms inside the unit cell: 

     Cartesian axes

     site n.  atom      mass           positions (alat units)
        1     Na  22.9900   tau(    1) = (    0.00000    0.00000    0.00000  )

     Computing dynamical matrix for 
                    q = (   0.0000000   0.0000000   0.0000000 )

     49 Sym.Ops. (with q -> -q+G )


     G cutoff =  441.5224  (   1212 G-vectors)     FFT grid: ( 40, 40, 40)
     G cutoff =  220.7612  (    426 G-vectors)  smooth grid: ( 25, 25, 25)

     number of k points=   250  Marzari-Vanderbilt smearing, width (Ry)=  0.0200

     PseudoPot. # 1 for Na read from file:
     /home/s1333534/quantum_espresso/qe-6.1/pseudo/Na_pbe_v1.uspp.F.UPF
     MD5 check sum: 76a99c7e9422403d3e93cbc85ab7bccb
     Pseudo is Ultrasoft, Zval =  9.0
     Generated by new atomic code, or converted to UPF format
     Using radial grid of  819 points,  5 beta functions with: 
                l(1) =   0
                l(2) =   0
                l(3) =   1
                l(4) =   1
                l(5) =   2
     Q(r) pseudized with  8 coefficients,  rinner =    1.250   1.250   1.250
                                                       1.250   1.250

     Mode symmetry, O_h (m-3m)  point group:


     Atomic displacements:
     There are   1 irreducible representations

     Representation     1      3 modes -T_1u G_15  G_4-  To be done



     Alpha used in Ewald sum =   2.8000
     PHONON       :     2.95s CPU         3.17s WALL



     Representation #  1 modes #   1  2  3

     Self-consistent Calculation

     Pert. #  1: Fermi energy shift (Ry) =    -4.0928E-26    -1.8808E-37
     Pert. #  2: Fermi energy shift (Ry) =    -1.2925E-25    -7.8366E-37
     Pert. #  3: Fermi energy shift (Ry) =    -8.6165E-27    -3.1347E-38

      iter #   1 total cpu time :     6.5 secs   av.it.:   5.4
      thresh= 1.000E-02 alpha_mix =  0.700 |ddv_scf|^2 =  1.148E-06

     Pert. #  1: Fermi energy shift (Ry) =    -7.7548E-26    -9.7958E-39
     Pert. #  2: Fermi energy shift (Ry) =    -8.1856E-26    -9.7958E-40
     Pert. #  3: Fermi energy shift (Ry) =     9.0473E-26    -7.3468E-39

      iter #   2 total cpu time :    10.2 secs   av.it.:   8.4
      thresh= 1.071E-04 alpha_mix =  0.700 |ddv_scf|^2 =  2.199E-08

     Pert. #  1: Fermi energy shift (Ry) =    -6.0315E-26     2.4489E-40
     Pert. #  2: Fermi energy shift (Ry) =    -1.8310E-26    -6.1224E-40
     Pert. #  3: Fermi energy shift (Ry) =     1.0771E-26    -1.2245E-40

      iter #   3 total cpu time :    14.2 secs   av.it.:   8.6
      thresh= 1.483E-05 alpha_mix =  0.700 |ddv_scf|^2 =  3.135E-10

     Pert. #  1: Fermi energy shift (Ry) =    -3.4466E-26    -2.6785E-41
     Pert. #  2: Fermi energy shift (Ry) =     7.7548E-26     7.6530E-42
     Pert. #  3: Fermi energy shift (Ry) =     1.2925E-26     0.0000E+00

      iter #   4 total cpu time :    18.0 secs   av.it.:   8.1
      thresh= 1.771E-06 alpha_mix =  0.700 |ddv_scf|^2 =  1.243E-12

     Pert. #  1: Fermi energy shift (Ry) =    -1.2494E-25    -2.3915E-42
     Pert. #  2: Fermi energy shift (Ry) =     0.0000E+00     4.0656E-42
     Pert. #  3: Fermi energy shift (Ry) =    -4.5236E-26    -8.6096E-42

      iter #   5 total cpu time :    21.7 secs   av.it.:   8.4
      thresh= 1.115E-07 alpha_mix =  0.700 |ddv_scf|^2 =  3.291E-15

     Pert. #  1: Fermi energy shift (Ry) =     5.1699E-26    -6.4572E-42
     Pert. #  2: Fermi energy shift (Ry) =    -1.2063E-25     3.3840E-41
     Pert. #  3: Fermi energy shift (Ry) =     3.2312E-26    -4.3048E-42

      iter #   6 total cpu time :    25.5 secs   av.it.:   8.2
      thresh= 5.737E-09 alpha_mix =  0.700 |ddv_scf|^2 =  5.970E-17

     End of self-consistent calculation

     Convergence has been achieved 

     Number of q in the star =    1
     List of q in the star:
          1   0.000000000   0.000000000   0.000000000

     Diagonalizing the dynamical matrix

     q = (    0.000000000   0.000000000   0.000000000 ) 

 **************************************************************************
     freq (    1) =      -0.255614 [THz] =      -8.526359 [cm-1]
     freq (    2) =      -0.255614 [THz] =      -8.526359 [cm-1]
     freq (    3) =      -0.255614 [THz] =      -8.526359 [cm-1]
 **************************************************************************

     Mode symmetry, O_h (m-3m)  point group:

     freq (  1 -  3) =         -8.5  [cm-1]   --> T_1u G_15  G_4- I  

     Calculation of q =    0.0000000  -0.1666667   0.1666667

   Info: using nr1, nr2, nr3 values from input

   Info: using nr1, nr2, nr3 values from input

     Parallelization info
     --------------------
     sticks:   dense  smooth     PW     G-vecs:    dense   smooth      PW
     Min          61      30     10                 1211      425      87
     Max          62      31     11                 1214      428      89
     Sum         977     483    169                19381     6819    1409



     bravais-lattice index     =            3
     lattice parameter (alat)  =       7.3804  a.u.
     unit-cell volume          =     201.0082 (a.u.)^3
     number of atoms/cell      =            1
     number of atomic types    =            1
     number of electrons       =         9.00
     number of Kohn-Sham states=            9
     kinetic-energy cutoff     =      40.0000  Ry
     charge density cutoff     =     320.0000  Ry
     Exchange-correlation      = SLA  PW   PBE  PBE ( 1  4  3  4 0 0)

     celldm(1)=   7.380423  celldm(2)=   0.000000  celldm(3)=   0.000000
     celldm(4)=   0.000000  celldm(5)=   0.000000  celldm(6)=   0.000000

     crystal axes: (cart. coord. in units of alat)
               a(1) = (   0.500000   0.500000   0.500000 )  
               a(2) = (  -0.500000   0.500000   0.500000 )  
               a(3) = (  -0.500000  -0.500000   0.500000 )  

     reciprocal axes: (cart. coord. in units 2 pi/alat)
               b(1) = (  1.000000  0.000000  1.000000 )  
               b(2) = ( -1.000000  1.000000  0.000000 )  
               b(3) = (  0.000000 -1.000000  1.000000 )  


     PseudoPot. # 1 for Na read from file:
     /home/s1333534/quantum_espresso/qe-6.1/pseudo/Na_pbe_v1.uspp.F.UPF
     MD5 check sum: 76a99c7e9422403d3e93cbc85ab7bccb
     Pseudo is Ultrasoft, Zval =  9.0
     Generated by new atomic code, or converted to UPF format
     Using radial grid of  819 points,  5 beta functions with: 
                l(1) =   0
                l(2) =   0
                l(3) =   1
                l(4) =   1
                l(5) =   2
     Q(r) pseudized with  8 coefficients,  rinner =    1.250   1.250   1.250
                                                       1.250   1.250

     atomic species   valence    mass     pseudopotential
        Na             9.00    22.99000     Na( 1.00)

     48 Sym. Ops., with inversion, found



   Cartesian axes

     site n.     atom                  positions (alat units)
         1           Na  tau(   1) = (   0.0000000   0.0000000   0.0000000  )

     number of k points=  4400  Marzari-Vanderbilt smearing, width (Ry)=  0.0200

     Number of k-points >= 100: set verbosity='high' to print them.

     Dense  grid:    19381 G-vectors     FFT dimensions: (  40,  40,  40)

     Smooth grid:     6819 G-vectors     FFT dimensions: (  25,  25,  25)

     Estimated max dynamical RAM per process >       0.67MB

     Estimated total allocated dynamical RAM >      42.59MB

     The potential is recalculated from file :
     ./_ph0/na.bcc.save/charge-density.dat

     Starting wfc are    5 atomic +    4 random wfc

     Band Structure Calculation
     Davidson diagonalization with overlap

     ethr =  1.11E-10,  avg # of iterations = 19.3

     total cpu time spent up to now is       59.5 secs

     End of band structure calculation

     Number of k-points >= 100: set verbosity='high' to print the bands.

     the Fermi energy is     2.6320 ev

     Writing output data file na.bcc.save

                                                                                

     bravais-lattice index     =            3
     lattice parameter (alat)  =       7.3804  a.u.
     unit-cell volume          =     201.0082 (a.u.)^3
     number of atoms/cell      =            1
     number of atomic types    =            1
     kinetic-energy cut-off    =      40.0000  Ry
     charge density cut-off    =     320.0000  Ry
     convergence threshold     =      1.0E-16
     beta                      =       0.7000
     number of iterations used =            4
     Exchange-correlation      = SLA  PW   PBE  PBE ( 1  4  3  4 0 0)


     celldm(1)=    7.38042  celldm(2)=    0.00000  celldm(3)=    0.00000
     celldm(4)=    0.00000  celldm(5)=    0.00000  celldm(6)=    0.00000

     crystal axes: (cart. coord. in units of alat)
               a(1) = (  0.5000  0.5000  0.5000 )  
               a(2) = ( -0.5000  0.5000  0.5000 )  
               a(3) = ( -0.5000 -0.5000  0.5000 )  

     reciprocal axes: (cart. coord. in units 2 pi/alat)
               b(1) = (  1.0000  0.0000  1.0000 )  
               b(2) = ( -1.0000  1.0000  0.0000 )  
               b(3) = (  0.0000 -1.0000  1.0000 )  


     Atoms inside the unit cell: 

     Cartesian axes

     site n.  atom      mass           positions (alat units)
        1     Na  22.9900   tau(    1) = (    0.00000    0.00000    0.00000  )

     Computing dynamical matrix for 
                    q = (   0.0000000  -0.1666667   0.1666667 )

      4 Sym.Ops. (no q -> -q+G )


     G cutoff =  441.5224  (   1212 G-vectors)     FFT grid: ( 40, 40, 40)
     G cutoff =  220.7612  (    426 G-vectors)  smooth grid: ( 25, 25, 25)

     number of k points=  4400  Marzari-Vanderbilt smearing, width (Ry)=  0.0200

     PseudoPot. # 1 for Na read from file:
     /home/s1333534/quantum_espresso/qe-6.1/pseudo/Na_pbe_v1.uspp.F.UPF
     MD5 check sum: 76a99c7e9422403d3e93cbc85ab7bccb
     Pseudo is Ultrasoft, Zval =  9.0
     Generated by new atomic code, or converted to UPF format
     Using radial grid of  819 points,  5 beta functions with: 
                l(1) =   0
                l(2) =   0
                l(3) =   1
                l(4) =   1
                l(5) =   2
     Q(r) pseudized with  8 coefficients,  rinner =    1.250   1.250   1.250
                                                       1.250   1.250

     Mode symmetry, C_2v (mm2)  point group:


     Atomic displacements:
     There are   3 irreducible representations

     Representation     1      1 modes -A_1  D_1  S_1  To be done

     Representation     2      1 modes -B_1  D_3  S_3  To be done

     Representation     3      1 modes -B_2  D_4  S_4  To be done



     Alpha used in Ewald sum =   2.8000
     PHONON       :  1m34.07s CPU     1m40.93s WALL



     Representation #  1 mode #   1

     Self-consistent Calculation

      iter #   1 total cpu time :   108.0 secs   av.it.:   5.7
      thresh= 1.000E-02 alpha_mix =  0.700 |ddv_scf|^2 =  2.780E-02

      iter #   2 total cpu time :   114.9 secs   av.it.:   6.5
      thresh= 1.000E-02 alpha_mix =  0.700 |ddv_scf|^2 =  3.767E+00

      iter #   3 total cpu time :   122.1 secs   av.it.:   6.5
      thresh= 1.000E-02 alpha_mix =  0.700 |ddv_scf|^2 =  6.494E-07

      iter #   4 total cpu time :   130.4 secs   av.it.:   7.7
      thresh= 8.059E-05 alpha_mix =  0.700 |ddv_scf|^2 =  7.313E-08

      iter #   5 total cpu time :   138.3 secs   av.it.:   7.5
      thresh= 2.704E-05 alpha_mix =  0.700 |ddv_scf|^2 =  3.255E-09

      iter #   6 total cpu time :   146.0 secs   av.it.:   7.5
      thresh= 5.706E-06 alpha_mix =  0.700 |ddv_scf|^2 =  9.296E-09

      iter #   7 total cpu time :   151.2 secs   av.it.:   4.4
      thresh= 9.642E-06 alpha_mix =  0.700 |ddv_scf|^2 =  1.389E-09

      iter #   8 total cpu time :   158.4 secs   av.it.:   6.9
      thresh= 3.727E-06 alpha_mix =  0.700 |ddv_scf|^2 =  4.376E-11

      iter #   9 total cpu time :   165.8 secs   av.it.:   7.2
      thresh= 6.615E-07 alpha_mix =  0.700 |ddv_scf|^2 =  1.539E-12

      iter #  10 total cpu time :   173.2 secs   av.it.:   7.1
      thresh= 1.241E-07 alpha_mix =  0.700 |ddv_scf|^2 =  8.292E-14

      iter #  11 total cpu time :   180.6 secs   av.it.:   7.3
      thresh= 2.880E-08 alpha_mix =  0.700 |ddv_scf|^2 =  5.111E-16

      iter #  12 total cpu time :   188.6 secs   av.it.:   7.9
      thresh= 2.261E-09 alpha_mix =  0.700 |ddv_scf|^2 =  3.621E-16

      iter #  13 total cpu time :   196.2 secs   av.it.:   7.0
      thresh= 1.903E-09 alpha_mix =  0.700 |ddv_scf|^2 =  6.500E-15

      iter #  14 total cpu time :   202.7 secs   av.it.:   6.0
      thresh= 8.062E-09 alpha_mix =  0.700 |ddv_scf|^2 =  5.327E-18

     End of self-consistent calculation

     Convergence has been achieved 


     Representation #  2 mode #   2

     Self-consistent Calculation

      iter #   1 total cpu time :   209.6 secs   av.it.:   5.4
      thresh= 1.000E-02 alpha_mix =  0.700 |ddv_scf|^2 =  1.045E-05

      iter #   2 total cpu time :   217.7 secs   av.it.:   7.7
      thresh= 3.232E-04 alpha_mix =  0.700 |ddv_scf|^2 =  1.956E-07

      iter #   3 total cpu time :   225.6 secs   av.it.:   7.9
      thresh= 4.422E-05 alpha_mix =  0.700 |ddv_scf|^2 =  3.127E-09

      iter #   4 total cpu time :   233.2 secs   av.it.:   7.4
      thresh= 5.592E-06 alpha_mix =  0.700 |ddv_scf|^2 =  1.199E-11

      iter #   5 total cpu time :   241.0 secs   av.it.:   7.7
      thresh= 3.463E-07 alpha_mix =  0.700 |ddv_scf|^2 =  2.821E-14

      iter #   6 total cpu time :   248.8 secs   av.it.:   7.5
      thresh= 1.680E-08 alpha_mix =  0.700 |ddv_scf|^2 =  5.912E-16

      iter #   7 total cpu time :   257.0 secs   av.it.:   7.7
      thresh= 2.431E-09 alpha_mix =  0.700 |ddv_scf|^2 =  4.958E-19

     End of self-consistent calculation

     Convergence has been achieved 


     Representation #  3 mode #   3

     Self-consistent Calculation

      iter #   1 total cpu time :   264.3 secs   av.it.:   5.4
      thresh= 1.000E-02 alpha_mix =  0.700 |ddv_scf|^2 =  1.081E-05

      iter #   2 total cpu time :   272.2 secs   av.it.:   7.7
      thresh= 3.289E-04 alpha_mix =  0.700 |ddv_scf|^2 =  1.940E-07

      iter #   3 total cpu time :   280.1 secs   av.it.:   7.9
      thresh= 4.404E-05 alpha_mix =  0.700 |ddv_scf|^2 =  4.089E-09

      iter #   4 total cpu time :   287.8 secs   av.it.:   7.5
      thresh= 6.394E-06 alpha_mix =  0.700 |ddv_scf|^2 =  1.524E-11

      iter #   5 total cpu time :   295.7 secs   av.it.:   7.7
      thresh= 3.904E-07 alpha_mix =  0.700 |ddv_scf|^2 =  2.936E-14

      iter #   6 total cpu time :   303.5 secs   av.it.:   7.3
      thresh= 1.713E-08 alpha_mix =  0.700 |ddv_scf|^2 =  1.060E-15

      iter #   7 total cpu time :   311.3 secs   av.it.:   7.8
      thresh= 3.255E-09 alpha_mix =  0.700 |ddv_scf|^2 =  1.290E-18

     End of self-consistent calculation

     Convergence has been achieved 

     Number of q in the star =   12
     List of q in the star:
          1   0.000000000  -0.166666667   0.166666667
          2  -0.166666667   0.000000000   0.166666667
          3   0.166666667   0.000000000   0.166666667
          4   0.000000000   0.166666667   0.166666667
          5   0.166666667   0.166666667   0.000000000
          6  -0.166666667   0.166666667   0.000000000
          7   0.166666667  -0.166666667   0.000000000
          8  -0.166666667  -0.166666667   0.000000000
          9  -0.166666667   0.000000000  -0.166666667
         10   0.000000000  -0.166666667  -0.166666667
         11   0.000000000   0.166666667  -0.166666667
         12   0.166666667   0.000000000  -0.166666667

     Diagonalizing the dynamical matrix

     q = (    0.000000000  -0.166666667   0.166666667 ) 

 **************************************************************************
     freq (    1) =       0.657402 [THz] =      21.928579 [cm-1]
     freq (    2) =       1.557893 [THz] =      51.965702 [cm-1]
     freq (    3) =       2.625211 [THz] =      87.567597 [cm-1]
 **************************************************************************

     Mode symmetry, C_2v (mm2)  point group:

     freq (  1 -  1) =         21.9  [cm-1]   --> B_1  D_3  S_3      
     freq (  2 -  2) =         52.0  [cm-1]   --> B_2  D_4  S_4      
     freq (  3 -  3) =         87.6  [cm-1]   --> A_1  D_1  S_1      

     Calculation of q =    0.0000000  -0.3333333   0.3333333

   Info: using nr1, nr2, nr3 values from input

   Info: using nr1, nr2, nr3 values from input

     Parallelization info
     --------------------
     sticks:   dense  smooth     PW     G-vecs:    dense   smooth      PW
     Min          61      30     10                 1211      425      90
     Max          62      31     11                 1214      428      94
     Sum         977     483    173                19381     6819    1481



     bravais-lattice index     =            3
     lattice parameter (alat)  =       7.3804  a.u.
     unit-cell volume          =     201.0082 (a.u.)^3
     number of atoms/cell      =            1
     number of atomic types    =            1
     number of electrons       =         9.00
     number of Kohn-Sham states=            9
     kinetic-energy cutoff     =      40.0000  Ry
     charge density cutoff     =     320.0000  Ry
     Exchange-correlation      = SLA  PW   PBE  PBE ( 1  4  3  4 0 0)

     celldm(1)=   7.380423  celldm(2)=   0.000000  celldm(3)=   0.000000
     celldm(4)=   0.000000  celldm(5)=   0.000000  celldm(6)=   0.000000

     crystal axes: (cart. coord. in units of alat)
               a(1) = (   0.500000   0.500000   0.500000 )  
               a(2) = (  -0.500000   0.500000   0.500000 )  
               a(3) = (  -0.500000  -0.500000   0.500000 )  

     reciprocal axes: (cart. coord. in units 2 pi/alat)
               b(1) = (  1.000000  0.000000  1.000000 )  
               b(2) = ( -1.000000  1.000000  0.000000 )  
               b(3) = (  0.000000 -1.000000  1.000000 )  


     PseudoPot. # 1 for Na read from file:
     /home/s1333534/quantum_espresso/qe-6.1/pseudo/Na_pbe_v1.uspp.F.UPF
     MD5 check sum: 76a99c7e9422403d3e93cbc85ab7bccb
     Pseudo is Ultrasoft, Zval =  9.0
     Generated by new atomic code, or converted to UPF format
     Using radial grid of  819 points,  5 beta functions with: 
                l(1) =   0
                l(2) =   0
                l(3) =   1
                l(4) =   1
                l(5) =   2
     Q(r) pseudized with  8 coefficients,  rinner =    1.250   1.250   1.250
                                                       1.250   1.250

     atomic species   valence    mass     pseudopotential
        Na             9.00    22.99000     Na( 1.00)

     48 Sym. Ops., with inversion, found



   Cartesian axes

     site n.     atom                  positions (alat units)
         1           Na  tau(   1) = (   0.0000000   0.0000000   0.0000000  )

     number of k points=  4400  Marzari-Vanderbilt smearing, width (Ry)=  0.0200

     Number of k-points >= 100: set verbosity='high' to print them.

     Dense  grid:    19381 G-vectors     FFT dimensions: (  40,  40,  40)

     Smooth grid:     6819 G-vectors     FFT dimensions: (  25,  25,  25)

     Estimated max dynamical RAM per process >       0.67MB

     Estimated total allocated dynamical RAM >      42.59MB

     The potential is recalculated from file :
     ./_ph0/na.bcc.save/charge-density.dat

     Starting wfc are    5 atomic +    4 random wfc

     Band Structure Calculation
     Davidson diagonalization with overlap

     ethr =  1.11E-10,  avg # of iterations = 19.4

     total cpu time spent up to now is      131.0 secs

     End of band structure calculation

     Number of k-points >= 100: set verbosity='high' to print the bands.

     the Fermi energy is     2.6320 ev

     Writing output data file na.bcc.save

                                                                                

     bravais-lattice index     =            3
     lattice parameter (alat)  =       7.3804  a.u.
     unit-cell volume          =     201.0082 (a.u.)^3
     number of atoms/cell      =            1
     number of atomic types    =            1
     kinetic-energy cut-off    =      40.0000  Ry
     charge density cut-off    =     320.0000  Ry
     convergence threshold     =      1.0E-16
     beta                      =       0.7000
     number of iterations used =            4
     Exchange-correlation      = SLA  PW   PBE  PBE ( 1  4  3  4 0 0)


     celldm(1)=    7.38042  celldm(2)=    0.00000  celldm(3)=    0.00000
     celldm(4)=    0.00000  celldm(5)=    0.00000  celldm(6)=    0.00000

     crystal axes: (cart. coord. in units of alat)
               a(1) = (  0.5000  0.5000  0.5000 )  
               a(2) = ( -0.5000  0.5000  0.5000 )  
               a(3) = ( -0.5000 -0.5000  0.5000 )  

     reciprocal axes: (cart. coord. in units 2 pi/alat)
               b(1) = (  1.0000  0.0000  1.0000 )  
               b(2) = ( -1.0000  1.0000  0.0000 )  
               b(3) = (  0.0000 -1.0000  1.0000 )  


     Atoms inside the unit cell: 

     Cartesian axes

     site n.  atom      mass           positions (alat units)
        1     Na  22.9900   tau(    1) = (    0.00000    0.00000    0.00000  )

     Computing dynamical matrix for 
                    q = (   0.0000000  -0.3333333   0.3333333 )

      4 Sym.Ops. (no q -> -q+G )


     G cutoff =  441.5224  (   1212 G-vectors)     FFT grid: ( 40, 40, 40)
     G cutoff =  220.7612  (    426 G-vectors)  smooth grid: ( 25, 25, 25)

     number of k points=  4400  Marzari-Vanderbilt smearing, width (Ry)=  0.0200

     PseudoPot. # 1 for Na read from file:
     /home/s1333534/quantum_espresso/qe-6.1/pseudo/Na_pbe_v1.uspp.F.UPF
     MD5 check sum: 76a99c7e9422403d3e93cbc85ab7bccb
     Pseudo is Ultrasoft, Zval =  9.0
     Generated by new atomic code, or converted to UPF format
     Using radial grid of  819 points,  5 beta functions with: 
                l(1) =   0
                l(2) =   0
                l(3) =   1
                l(4) =   1
                l(5) =   2
     Q(r) pseudized with  8 coefficients,  rinner =    1.250   1.250   1.250
                                                       1.250   1.250

     Mode symmetry, C_2v (mm2)  point group:


     Atomic displacements:
     There are   3 irreducible representations

     Representation     1      1 modes -A_1  D_1  S_1  To be done

     Representation     2      1 modes -B_1  D_3  S_3  To be done

     Representation     3      1 modes -B_2  D_4  S_4  To be done



     Alpha used in Ewald sum =   2.8000
     PHONON       :  5m51.34s CPU     6m26.73s WALL



     Representation #  1 mode #   1

     Self-consistent Calculation

      iter #   1 total cpu time :   393.9 secs   av.it.:   5.7
      thresh= 1.000E-02 alpha_mix =  0.700 |ddv_scf|^2 =  4.749E-04

      iter #   2 total cpu time :   401.0 secs   av.it.:   6.7
      thresh= 2.179E-03 alpha_mix =  0.700 |ddv_scf|^2 =  2.504E-03

      iter #   3 total cpu time :   407.7 secs   av.it.:   5.9
      thresh= 5.004E-03 alpha_mix =  0.700 |ddv_scf|^2 =  5.105E-07

      iter #   4 total cpu time :   416.2 secs   av.it.:   7.7
      thresh= 7.145E-05 alpha_mix =  0.700 |ddv_scf|^2 =  7.815E-09

      iter #   5 total cpu time :   424.4 secs   av.it.:   8.3
      thresh= 8.840E-06 alpha_mix =  0.700 |ddv_scf|^2 =  4.976E-10

      iter #   6 total cpu time :   432.5 secs   av.it.:   8.1
      thresh= 2.231E-06 alpha_mix =  0.700 |ddv_scf|^2 =  1.411E-11

      iter #   7 total cpu time :   440.6 secs   av.it.:   7.7
      thresh= 3.756E-07 alpha_mix =  0.700 |ddv_scf|^2 =  2.056E-14

      iter #   8 total cpu time :   448.5 secs   av.it.:   7.7
      thresh= 1.434E-08 alpha_mix =  0.700 |ddv_scf|^2 =  5.639E-15

      iter #   9 total cpu time :   456.0 secs   av.it.:   7.1
      thresh= 7.509E-09 alpha_mix =  0.700 |ddv_scf|^2 =  1.189E-14

      iter #  10 total cpu time :   463.4 secs   av.it.:   7.0
      thresh= 1.090E-08 alpha_mix =  0.700 |ddv_scf|^2 =  8.309E-16

      iter #  11 total cpu time :   470.5 secs   av.it.:   6.6
      thresh= 2.883E-09 alpha_mix =  0.700 |ddv_scf|^2 =  2.257E-18

     End of self-consistent calculation

     Convergence has been achieved 


     Representation #  2 mode #   2

     Self-consistent Calculation

      iter #   1 total cpu time :   477.9 secs   av.it.:   5.5
      thresh= 1.000E-02 alpha_mix =  0.700 |ddv_scf|^2 =  1.075E-05

      iter #   2 total cpu time :   485.8 secs   av.it.:   7.8
      thresh= 3.278E-04 alpha_mix =  0.700 |ddv_scf|^2 =  1.888E-07

      iter #   3 total cpu time :   493.9 secs   av.it.:   7.9
      thresh= 4.345E-05 alpha_mix =  0.700 |ddv_scf|^2 =  4.107E-09

      iter #   4 total cpu time :   501.5 secs   av.it.:   7.4
      thresh= 6.408E-06 alpha_mix =  0.700 |ddv_scf|^2 =  1.429E-11

      iter #   5 total cpu time :   509.6 secs   av.it.:   7.8
      thresh= 3.781E-07 alpha_mix =  0.700 |ddv_scf|^2 =  2.380E-14

      iter #   6 total cpu time :   517.2 secs   av.it.:   7.5
      thresh= 1.543E-08 alpha_mix =  0.700 |ddv_scf|^2 =  6.668E-16

      iter #   7 total cpu time :   525.0 secs   av.it.:   7.7
      thresh= 2.582E-09 alpha_mix =  0.700 |ddv_scf|^2 =  5.857E-19

     End of self-consistent calculation

     Convergence has been achieved 


     Representation #  3 mode #   3

     Self-consistent Calculation

      iter #   1 total cpu time :   532.1 secs   av.it.:   5.5
      thresh= 1.000E-02 alpha_mix =  0.700 |ddv_scf|^2 =  1.189E-05

      iter #   2 total cpu time :   540.7 secs   av.it.:   7.7
      thresh= 3.449E-04 alpha_mix =  0.700 |ddv_scf|^2 =  1.853E-07

      iter #   3 total cpu time :   548.6 secs   av.it.:   7.9
      thresh= 4.305E-05 alpha_mix =  0.700 |ddv_scf|^2 =  7.431E-09

      iter #   4 total cpu time :   556.4 secs   av.it.:   7.5
      thresh= 8.620E-06 alpha_mix =  0.700 |ddv_scf|^2 =  2.622E-11

      iter #   5 total cpu time :   564.9 secs   av.it.:   7.8
      thresh= 5.120E-07 alpha_mix =  0.700 |ddv_scf|^2 =  3.107E-14

      iter #   6 total cpu time :   571.9 secs   av.it.:   6.6
      thresh= 1.763E-08 alpha_mix =  0.700 |ddv_scf|^2 =  1.831E-15

      iter #   7 total cpu time :   579.6 secs   av.it.:   7.7
      thresh= 4.279E-09 alpha_mix =  0.700 |ddv_scf|^2 =  2.013E-18

     End of self-consistent calculation

     Convergence has been achieved 

     Number of q in the star =   12
     List of q in the star:
          1   0.000000000  -0.333333333   0.333333333
          2  -0.333333333   0.000000000   0.333333333
          3   0.333333333   0.000000000   0.333333333
          4   0.000000000   0.333333333   0.333333333
          5   0.333333333   0.333333333   0.000000000
          6  -0.333333333   0.333333333   0.000000000
          7   0.333333333  -0.333333333   0.000000000
          8  -0.333333333  -0.333333333   0.000000000
          9  -0.333333333   0.000000000  -0.333333333
         10   0.000000000  -0.333333333  -0.333333333
         11   0.000000000   0.333333333  -0.333333333
         12   0.333333333   0.000000000  -0.333333333

     Diagonalizing the dynamical matrix

     q = (    0.000000000  -0.333333333   0.333333333 ) 

 **************************************************************************
     freq (    1) =       1.048036 [THz] =      34.958713 [cm-1]
     freq (    2) =       2.675319 [THz] =      89.239026 [cm-1]
     freq (    3) =       4.578563 [THz] =     152.724409 [cm-1]
 **************************************************************************

     Mode symmetry, C_2v (mm2)  point group:

     freq (  1 -  1) =         35.0  [cm-1]   --> B_1  D_3  S_3      
     freq (  2 -  2) =         89.2  [cm-1]   --> B_2  D_4  S_4      
     freq (  3 -  3) =        152.7  [cm-1]   --> A_1  D_1  S_1      

     Calculation of q =    0.0000000   0.5000000  -0.5000000

   Info: using nr1, nr2, nr3 values from input

   Info: using nr1, nr2, nr3 values from input

     Parallelization info
     --------------------
     sticks:   dense  smooth     PW     G-vecs:    dense   smooth      PW
     Min          61      30     11                 1211      425      96
     Max          62      31     12                 1214      428      98
     Sum         977     483    181                19381     6819    1553



     bravais-lattice index     =            3
     lattice parameter (alat)  =       7.3804  a.u.
     unit-cell volume          =     201.0082 (a.u.)^3
     number of atoms/cell      =            1
     number of atomic types    =            1
     number of electrons       =         9.00
     number of Kohn-Sham states=            9
     kinetic-energy cutoff     =      40.0000  Ry
     charge density cutoff     =     320.0000  Ry
     Exchange-correlation      = SLA  PW   PBE  PBE ( 1  4  3  4 0 0)

     celldm(1)=   7.380423  celldm(2)=   0.000000  celldm(3)=   0.000000
     celldm(4)=   0.000000  celldm(5)=   0.000000  celldm(6)=   0.000000

     crystal axes: (cart. coord. in units of alat)
               a(1) = (   0.500000   0.500000   0.500000 )  
               a(2) = (  -0.500000   0.500000   0.500000 )  
               a(3) = (  -0.500000  -0.500000   0.500000 )  

     reciprocal axes: (cart. coord. in units 2 pi/alat)
               b(1) = (  1.000000  0.000000  1.000000 )  
               b(2) = ( -1.000000  1.000000  0.000000 )  
               b(3) = (  0.000000 -1.000000  1.000000 )  


     PseudoPot. # 1 for Na read from file:
     /home/s1333534/quantum_espresso/qe-6.1/pseudo/Na_pbe_v1.uspp.F.UPF
     MD5 check sum: 76a99c7e9422403d3e93cbc85ab7bccb
     Pseudo is Ultrasoft, Zval =  9.0
     Generated by new atomic code, or converted to UPF format
     Using radial grid of  819 points,  5 beta functions with: 
                l(1) =   0
                l(2) =   0
                l(3) =   1
                l(4) =   1
                l(5) =   2
     Q(r) pseudized with  8 coefficients,  rinner =    1.250   1.250   1.250
                                                       1.250   1.250

     atomic species   valence    mass     pseudopotential
        Na             9.00    22.99000     Na( 1.00)

     48 Sym. Ops., with inversion, found



   Cartesian axes

     site n.     atom                  positions (alat units)
         1           Na  tau(   1) = (   0.0000000   0.0000000   0.0000000  )

     number of k points=  2310  Marzari-Vanderbilt smearing, width (Ry)=  0.0200

     Number of k-points >= 100: set verbosity='high' to print them.

     Dense  grid:    19381 G-vectors     FFT dimensions: (  40,  40,  40)

     Smooth grid:     6819 G-vectors     FFT dimensions: (  25,  25,  25)

     Estimated max dynamical RAM per process >       0.67MB

     Estimated total allocated dynamical RAM >      42.59MB

     The potential is recalculated from file :
     ./_ph0/na.bcc.save/charge-density.dat

     Starting wfc are    5 atomic +    4 random wfc

     Band Structure Calculation
     Davidson diagonalization with overlap

     ethr =  1.11E-10,  avg # of iterations = 19.4

     total cpu time spent up to now is      174.0 secs

     End of band structure calculation

     Number of k-points >= 100: set verbosity='high' to print the bands.

     the Fermi energy is     2.6320 ev

     Writing output data file na.bcc.save

                                                                                

     bravais-lattice index     =            3
     lattice parameter (alat)  =       7.3804  a.u.
     unit-cell volume          =     201.0082 (a.u.)^3
     number of atoms/cell      =            1
     number of atomic types    =            1
     kinetic-energy cut-off    =      40.0000  Ry
     charge density cut-off    =     320.0000  Ry
     convergence threshold     =      1.0E-16
     beta                      =       0.7000
     number of iterations used =            4
     Exchange-correlation      = SLA  PW   PBE  PBE ( 1  4  3  4 0 0)


     celldm(1)=    7.38042  celldm(2)=    0.00000  celldm(3)=    0.00000
     celldm(4)=    0.00000  celldm(5)=    0.00000  celldm(6)=    0.00000

     crystal axes: (cart. coord. in units of alat)
               a(1) = (  0.5000  0.5000  0.5000 )  
               a(2) = ( -0.5000  0.5000  0.5000 )  
               a(3) = ( -0.5000 -0.5000  0.5000 )  

     reciprocal axes: (cart. coord. in units 2 pi/alat)
               b(1) = (  1.0000  0.0000  1.0000 )  
               b(2) = ( -1.0000  1.0000  0.0000 )  
               b(3) = (  0.0000 -1.0000  1.0000 )  


     Atoms inside the unit cell: 

     Cartesian axes

     site n.  atom      mass           positions (alat units)
        1     Na  22.9900   tau(    1) = (    0.00000    0.00000    0.00000  )

     Computing dynamical matrix for 
                    q = (   0.0000000   0.5000000  -0.5000000 )

      9 Sym.Ops. (with q -> -q+G )


     G cutoff =  441.5224  (   1212 G-vectors)     FFT grid: ( 40, 40, 40)
     G cutoff =  220.7612  (    426 G-vectors)  smooth grid: ( 25, 25, 25)

     number of k points=  2310  Marzari-Vanderbilt smearing, width (Ry)=  0.0200

     PseudoPot. # 1 for Na read from file:
     /home/s1333534/quantum_espresso/qe-6.1/pseudo/Na_pbe_v1.uspp.F.UPF
     MD5 check sum: 76a99c7e9422403d3e93cbc85ab7bccb
     Pseudo is Ultrasoft, Zval =  9.0
     Generated by new atomic code, or converted to UPF format
     Using radial grid of  819 points,  5 beta functions with: 
                l(1) =   0
                l(2) =   0
                l(3) =   1
                l(4) =   1
                l(5) =   2
     Q(r) pseudized with  8 coefficients,  rinner =    1.250   1.250   1.250
                                                       1.250   1.250

     Mode symmetry, D_2h (mmm)  point group:


     Atomic displacements:
     There are   3 irreducible representations

     Representation     1      1 modes -B_1u  To be done

     Representation     2      1 modes -B_2u  To be done

     Representation     3      1 modes -B_3u  To be done



     Alpha used in Ewald sum =   2.8000
     PHONON       :  9m20.41s CPU    10m18.56s WALL



     Representation #  1 mode #   1

     Self-consistent Calculation

      iter #   1 total cpu time :   622.4 secs   av.it.:   5.5
      thresh= 1.000E-02 alpha_mix =  0.700 |ddv_scf|^2 =  1.249E-05

      iter #   2 total cpu time :   626.6 secs   av.it.:   7.7
      thresh= 3.534E-04 alpha_mix =  0.700 |ddv_scf|^2 =  1.814E-07

      iter #   3 total cpu time :   630.9 secs   av.it.:   7.8
      thresh= 4.260E-05 alpha_mix =  0.700 |ddv_scf|^2 =  9.507E-09

      iter #   4 total cpu time :   634.9 secs   av.it.:   7.3
      thresh= 9.750E-06 alpha_mix =  0.700 |ddv_scf|^2 =  3.347E-11

      iter #   5 total cpu time :   639.4 secs   av.it.:   7.7
      thresh= 5.785E-07 alpha_mix =  0.700 |ddv_scf|^2 =  3.342E-14

      iter #   6 total cpu time :   643.2 secs   av.it.:   6.8
      thresh= 1.828E-08 alpha_mix =  0.700 |ddv_scf|^2 =  2.154E-15

      iter #   7 total cpu time :   647.4 secs   av.it.:   7.5
      thresh= 4.642E-09 alpha_mix =  0.700 |ddv_scf|^2 =  1.907E-18

     End of self-consistent calculation

     Convergence has been achieved 


     Representation #  2 mode #   2

     Self-consistent Calculation

      iter #   1 total cpu time :   651.2 secs   av.it.:   5.5
      thresh= 1.000E-02 alpha_mix =  0.700 |ddv_scf|^2 =  1.093E-05

      iter #   2 total cpu time :   655.5 secs   av.it.:   7.7
      thresh= 3.306E-04 alpha_mix =  0.700 |ddv_scf|^2 =  1.849E-07

      iter #   3 total cpu time :   659.8 secs   av.it.:   7.9
      thresh= 4.300E-05 alpha_mix =  0.700 |ddv_scf|^2 =  4.788E-09

      iter #   4 total cpu time :   663.8 secs   av.it.:   7.2
      thresh= 6.920E-06 alpha_mix =  0.700 |ddv_scf|^2 =  1.565E-11

      iter #   5 total cpu time :   668.1 secs   av.it.:   7.7
      thresh= 3.956E-07 alpha_mix =  0.700 |ddv_scf|^2 =  2.094E-14

      iter #   6 total cpu time :   672.1 secs   av.it.:   7.3
      thresh= 1.447E-08 alpha_mix =  0.700 |ddv_scf|^2 =  6.360E-16

      iter #   7 total cpu time :   676.5 secs   av.it.:   7.6
      thresh= 2.522E-09 alpha_mix =  0.700 |ddv_scf|^2 =  2.763E-19

     End of self-consistent calculation

     Convergence has been achieved 


     Representation #  3 mode #   3

     Self-consistent Calculation

      iter #   1 total cpu time :   680.5 secs   av.it.:   5.7
      thresh= 1.000E-02 alpha_mix =  0.700 |ddv_scf|^2 =  9.688E-05

      iter #   2 total cpu time :   684.4 secs   av.it.:   6.8
      thresh= 9.843E-04 alpha_mix =  0.700 |ddv_scf|^2 =  4.693E-05

      iter #   3 total cpu time :   688.3 secs   av.it.:   6.8
      thresh= 6.851E-04 alpha_mix =  0.700 |ddv_scf|^2 =  6.979E-08

      iter #   4 total cpu time :   692.6 secs   av.it.:   7.8
      thresh= 2.642E-05 alpha_mix =  0.700 |ddv_scf|^2 =  2.292E-10

      iter #   5 total cpu time :   696.4 secs   av.it.:   6.7
      thresh= 1.514E-06 alpha_mix =  0.700 |ddv_scf|^2 =  4.789E-12

      iter #   6 total cpu time :   700.4 secs   av.it.:   6.8
      thresh= 2.188E-07 alpha_mix =  0.700 |ddv_scf|^2 =  1.543E-14

      iter #   7 total cpu time :   704.4 secs   av.it.:   7.2
      thresh= 1.242E-08 alpha_mix =  0.700 |ddv_scf|^2 =  3.570E-17

     End of self-consistent calculation

     Convergence has been achieved 

     Number of q in the star =    6
     List of q in the star:
          1   0.000000000   0.500000000  -0.500000000
          2  -0.500000000  -0.500000000   0.000000000
          3   0.500000000  -0.500000000   0.000000000
          4   0.500000000   0.000000000   0.500000000
          5   0.000000000  -0.500000000  -0.500000000
          6   0.500000000   0.000000000  -0.500000000

     Diagonalizing the dynamical matrix

     q = (    0.000000000   0.500000000  -0.500000000 ) 

 **************************************************************************
     freq (    1) =       1.180183 [THz] =      39.366664 [cm-1]
     freq (    2) =       3.086968 [THz] =     102.970157 [cm-1]
     freq (    3) =       5.295077 [THz] =     176.624769 [cm-1]
 **************************************************************************

     Mode symmetry, D_2h (mmm)  point group:

     freq (  1 -  1) =         39.4  [cm-1]   --> B_2u               
     freq (  2 -  2) =        103.0  [cm-1]   --> B_1u               
     freq (  3 -  3) =        176.6  [cm-1]   --> B_3u               

     Calculation of q =   -0.1666667  -0.1666667   0.3333333

   Info: using nr1, nr2, nr3 values from input

   Info: using nr1, nr2, nr3 values from input

     Parallelization info
     --------------------
     sticks:   dense  smooth     PW     G-vecs:    dense   smooth      PW
     Min          61      30     10                 1211      425      88
     Max          62      31     11                 1214      428      91
     Sum         977     483    173                19381     6819    1433



     bravais-lattice index     =            3
     lattice parameter (alat)  =       7.3804  a.u.
     unit-cell volume          =     201.0082 (a.u.)^3
     number of atoms/cell      =            1
     number of atomic types    =            1
     number of electrons       =         9.00
     number of Kohn-Sham states=            9
     kinetic-energy cutoff     =      40.0000  Ry
     charge density cutoff     =     320.0000  Ry
     Exchange-correlation      = SLA  PW   PBE  PBE ( 1  4  3  4 0 0)

     celldm(1)=   7.380423  celldm(2)=   0.000000  celldm(3)=   0.000000
     celldm(4)=   0.000000  celldm(5)=   0.000000  celldm(6)=   0.000000

     crystal axes: (cart. coord. in units of alat)
               a(1) = (   0.500000   0.500000   0.500000 )  
               a(2) = (  -0.500000   0.500000   0.500000 )  
               a(3) = (  -0.500000  -0.500000   0.500000 )  

     reciprocal axes: (cart. coord. in units 2 pi/alat)
               b(1) = (  1.000000  0.000000  1.000000 )  
               b(2) = ( -1.000000  1.000000  0.000000 )  
               b(3) = (  0.000000 -1.000000  1.000000 )  


     PseudoPot. # 1 for Na read from file:
     /home/s1333534/quantum_espresso/qe-6.1/pseudo/Na_pbe_v1.uspp.F.UPF
     MD5 check sum: 76a99c7e9422403d3e93cbc85ab7bccb
     Pseudo is Ultrasoft, Zval =  9.0
     Generated by new atomic code, or converted to UPF format
     Using radial grid of  819 points,  5 beta functions with: 
                l(1) =   0
                l(2) =   0
                l(3) =   1
                l(4) =   1
                l(5) =   2
     Q(r) pseudized with  8 coefficients,  rinner =    1.250   1.250   1.250
                                                       1.250   1.250

     atomic species   valence    mass     pseudopotential
        Na             9.00    22.99000     Na( 1.00)

     48 Sym. Ops., with inversion, found



   Cartesian axes

     site n.     atom                  positions (alat units)
         1           Na  tau(   1) = (   0.0000000   0.0000000   0.0000000  )

     number of k points=  8400  Marzari-Vanderbilt smearing, width (Ry)=  0.0200

     Number of k-points >= 100: set verbosity='high' to print them.

     Dense  grid:    19381 G-vectors     FFT dimensions: (  40,  40,  40)

     Smooth grid:     6819 G-vectors     FFT dimensions: (  25,  25,  25)

     Estimated max dynamical RAM per process >       0.67MB

     Estimated total allocated dynamical RAM >      42.59MB

     The potential is recalculated from file :
     ./_ph0/na.bcc.save/charge-density.dat

     Starting wfc are    5 atomic +    4 random wfc

     Band Structure Calculation
     Davidson diagonalization with overlap

     ethr =  1.11E-10,  avg # of iterations = 19.4

     total cpu time spent up to now is      293.8 secs

     End of band structure calculation

     Number of k-points >= 100: set verbosity='high' to print the bands.

     the Fermi energy is     2.6320 ev

     Writing output data file na.bcc.save

                                                                                

     bravais-lattice index     =            3
     lattice parameter (alat)  =       7.3804  a.u.
     unit-cell volume          =     201.0082 (a.u.)^3
     number of atoms/cell      =            1
     number of atomic types    =            1
     kinetic-energy cut-off    =      40.0000  Ry
     charge density cut-off    =     320.0000  Ry
     convergence threshold     =      1.0E-16
     beta                      =       0.7000
     number of iterations used =            4
     Exchange-correlation      = SLA  PW   PBE  PBE ( 1  4  3  4 0 0)


     celldm(1)=    7.38042  celldm(2)=    0.00000  celldm(3)=    0.00000
     celldm(4)=    0.00000  celldm(5)=    0.00000  celldm(6)=    0.00000

     crystal axes: (cart. coord. in units of alat)
               a(1) = (  0.5000  0.5000  0.5000 )  
               a(2) = ( -0.5000  0.5000  0.5000 )  
               a(3) = ( -0.5000 -0.5000  0.5000 )  

     reciprocal axes: (cart. coord. in units 2 pi/alat)
               b(1) = (  1.0000  0.0000  1.0000 )  
               b(2) = ( -1.0000  1.0000  0.0000 )  
               b(3) = (  0.0000 -1.0000  1.0000 )  


     Atoms inside the unit cell: 

     Cartesian axes

     site n.  atom      mass           positions (alat units)
        1     Na  22.9900   tau(    1) = (    0.00000    0.00000    0.00000  )

     Computing dynamical matrix for 
                    q = (  -0.1666667  -0.1666667   0.3333333 )

      2 Sym.Ops. (no q -> -q+G )


     G cutoff =  441.5224  (   1212 G-vectors)     FFT grid: ( 40, 40, 40)
     G cutoff =  220.7612  (    426 G-vectors)  smooth grid: ( 25, 25, 25)

     number of k points=  8400  Marzari-Vanderbilt smearing, width (Ry)=  0.0200

     PseudoPot. # 1 for Na read from file:
     /home/s1333534/quantum_espresso/qe-6.1/pseudo/Na_pbe_v1.uspp.F.UPF
     MD5 check sum: 76a99c7e9422403d3e93cbc85ab7bccb
     Pseudo is Ultrasoft, Zval =  9.0
     Generated by new atomic code, or converted to UPF format
     Using radial grid of  819 points,  5 beta functions with: 
                l(1) =   0
                l(2) =   0
                l(3) =   1
                l(4) =   1
                l(5) =   2
     Q(r) pseudized with  8 coefficients,  rinner =    1.250   1.250   1.250
                                                       1.250   1.250

     Mode symmetry, C_s (m)     point group:


     Atomic displacements:
     There are   3 irreducible representations

     Representation     1      1 modes -A'  To be done

     Representation     2      1 modes -A'  To be done

     Representation     3      1 modes -A''  To be done



     Alpha used in Ewald sum =   2.8000
     PHONON       : 12m53.65s CPU    14m 8.60s WALL



     Representation #  1 mode #   1

     Self-consistent Calculation

      iter #   1 total cpu time :   862.8 secs   av.it.:   5.6
      thresh= 1.000E-02 alpha_mix =  0.700 |ddv_scf|^2 =  1.180E-04

      iter #   2 total cpu time :   877.1 secs   av.it.:   7.3
      thresh= 1.086E-03 alpha_mix =  0.700 |ddv_scf|^2 =  1.191E-03

      iter #   3 total cpu time :   888.7 secs   av.it.:   5.5
      thresh= 3.451E-03 alpha_mix =  0.700 |ddv_scf|^2 =  1.406E-07

      iter #   4 total cpu time :   905.4 secs   av.it.:   8.3
      thresh= 3.749E-05 alpha_mix =  0.700 |ddv_scf|^2 =  5.036E-09

      iter #   5 total cpu time :   920.6 secs   av.it.:   7.9
      thresh= 7.097E-06 alpha_mix =  0.700 |ddv_scf|^2 =  1.852E-10

      iter #   6 total cpu time :   936.8 secs   av.it.:   8.2
      thresh= 1.361E-06 alpha_mix =  0.700 |ddv_scf|^2 =  1.880E-11

      iter #   7 total cpu time :   951.8 secs   av.it.:   7.8
      thresh= 4.335E-07 alpha_mix =  0.700 |ddv_scf|^2 =  3.765E-11

      iter #   8 total cpu time :   966.0 secs   av.it.:   7.2
      thresh= 6.136E-07 alpha_mix =  0.700 |ddv_scf|^2 =  3.405E-11

      iter #   9 total cpu time :   979.4 secs   av.it.:   6.7
      thresh= 5.835E-07 alpha_mix =  0.700 |ddv_scf|^2 =  9.866E-13

      iter #  10 total cpu time :   994.4 secs   av.it.:   7.2
      thresh= 9.933E-08 alpha_mix =  0.700 |ddv_scf|^2 =  4.839E-15

      iter #  11 total cpu time :  1010.0 secs   av.it.:   8.2
      thresh= 6.956E-09 alpha_mix =  0.700 |ddv_scf|^2 =  2.121E-16

      iter #  12 total cpu time :  1025.5 secs   av.it.:   7.8
      thresh= 1.456E-09 alpha_mix =  0.700 |ddv_scf|^2 =  1.466E-17

     End of self-consistent calculation

     Convergence has been achieved 


     Representation #  2 mode #   2

     Self-consistent Calculation

      iter #   1 total cpu time :  1039.7 secs   av.it.:   5.7
      thresh= 1.000E-02 alpha_mix =  0.700 |ddv_scf|^2 =  9.634E-04

      iter #   2 total cpu time :  1053.6 secs   av.it.:   6.7
      thresh= 3.104E-03 alpha_mix =  0.700 |ddv_scf|^2 =  1.057E-02

      iter #   3 total cpu time :  1066.0 secs   av.it.:   5.5
      thresh= 1.000E-02 alpha_mix =  0.700 |ddv_scf|^2 =  1.043E-06

      iter #   4 total cpu time :  1080.7 secs   av.it.:   7.7
      thresh= 1.021E-04 alpha_mix =  0.700 |ddv_scf|^2 =  5.656E-09

      iter #   5 total cpu time :  1096.6 secs   av.it.:   8.3
      thresh= 7.520E-06 alpha_mix =  0.700 |ddv_scf|^2 =  7.950E-10

      iter #   6 total cpu time :  1111.9 secs   av.it.:   8.1
      thresh= 2.820E-06 alpha_mix =  0.700 |ddv_scf|^2 =  1.436E-11

      iter #   7 total cpu time :  1127.3 secs   av.it.:   8.2
      thresh= 3.789E-07 alpha_mix =  0.700 |ddv_scf|^2 =  1.344E-11

      iter #   8 total cpu time :  1140.6 secs   av.it.:   6.5
      thresh= 3.666E-07 alpha_mix =  0.700 |ddv_scf|^2 =  4.519E-12

      iter #   9 total cpu time :  1155.0 secs   av.it.:   7.2
      thresh= 2.126E-07 alpha_mix =  0.700 |ddv_scf|^2 =  3.071E-13

      iter #  10 total cpu time :  1168.9 secs   av.it.:   6.9
      thresh= 5.542E-08 alpha_mix =  0.700 |ddv_scf|^2 =  9.602E-14

      iter #  11 total cpu time :  1183.0 secs   av.it.:   7.3
      thresh= 3.099E-08 alpha_mix =  0.700 |ddv_scf|^2 =  2.102E-16

      iter #  12 total cpu time :  1198.4 secs   av.it.:   7.7
      thresh= 1.450E-09 alpha_mix =  0.700 |ddv_scf|^2 =  1.409E-17

     End of self-consistent calculation

     Convergence has been achieved 


     Representation #  3 mode #   3

     Self-consistent Calculation

      iter #   1 total cpu time :  1211.8 secs   av.it.:   5.5
      thresh= 1.000E-02 alpha_mix =  0.700 |ddv_scf|^2 =  1.256E-05

      iter #   2 total cpu time :  1227.0 secs   av.it.:   7.8
      thresh= 3.544E-04 alpha_mix =  0.700 |ddv_scf|^2 =  1.762E-07

      iter #   3 total cpu time :  1242.5 secs   av.it.:   8.0
      thresh= 4.198E-05 alpha_mix =  0.700 |ddv_scf|^2 =  8.382E-09

      iter #   4 total cpu time :  1257.4 secs   av.it.:   7.7
      thresh= 9.155E-06 alpha_mix =  0.700 |ddv_scf|^2 =  6.794E-11

      iter #   5 total cpu time :  1272.3 secs   av.it.:   7.5
      thresh= 8.243E-07 alpha_mix =  0.700 |ddv_scf|^2 =  6.381E-14

      iter #   6 total cpu time :  1286.8 secs   av.it.:   7.5
      thresh= 2.526E-08 alpha_mix =  0.700 |ddv_scf|^2 =  3.005E-15

      iter #   7 total cpu time :  1301.3 secs   av.it.:   7.5
      thresh= 5.482E-09 alpha_mix =  0.700 |ddv_scf|^2 =  1.105E-17

     End of self-consistent calculation

     Convergence has been achieved 

     Number of q in the star =   24
     List of q in the star:
          1  -0.166666667  -0.166666667   0.333333333
          2  -0.166666667  -0.333333333   0.166666667
          3   0.166666667  -0.333333333   0.166666667
          4  -0.166666667   0.333333333  -0.166666667
          5   0.166666667   0.333333333  -0.166666667
          6   0.166666667   0.166666667  -0.333333333
          7  -0.166666667   0.166666667  -0.333333333
          8   0.333333333   0.166666667  -0.166666667
          9  -0.333333333   0.166666667   0.166666667
         10   0.333333333  -0.166666667   0.166666667
         11  -0.333333333  -0.166666667  -0.166666667
         12  -0.166666667  -0.166666667  -0.333333333
         13  -0.166666667   0.333333333   0.166666667
         14  -0.166666667  -0.333333333  -0.166666667
         15  -0.166666667   0.166666667   0.333333333
         16   0.166666667  -0.166666667   0.333333333
         17   0.166666667  -0.333333333  -0.166666667
         18  -0.333333333   0.166666667  -0.166666667
         19   0.333333333   0.166666667   0.166666667
         20  -0.333333333  -0.166666667   0.166666667
         21   0.333333333  -0.166666667  -0.166666667
         22   0.166666667  -0.166666667  -0.333333333
         23   0.166666667   0.166666667   0.333333333
         24   0.166666667   0.333333333   0.166666667

     Diagonalizing the dynamical matrix

     q = (   -0.166666667  -0.166666667   0.333333333 ) 

 **************************************************************************
     freq (    1) =       1.552445 [THz] =      51.783982 [cm-1]
     freq (    2) =       2.473356 [THz] =      82.502260 [cm-1]
     freq (    3) =       4.043058 [THz] =     134.861912 [cm-1]
 **************************************************************************

     Mode symmetry, C_s (m)     point group:

     freq (  1 -  1) =         51.8  [cm-1]   --> A'                 
     freq (  2 -  2) =         82.5  [cm-1]   --> A''                
     freq (  3 -  3) =        134.9  [cm-1]   --> A'                 

     Calculation of q =   -0.1666667   0.6666667  -0.5000000

   Info: using nr1, nr2, nr3 values from input

   Info: using nr1, nr2, nr3 values from input

     Parallelization info
     --------------------
     sticks:   dense  smooth     PW     G-vecs:    dense   smooth      PW
     Min          61      30     11                 1211      425      99
     Max          62      31     12                 1214      428     101
     Sum         977     483    181                19381     6819    1601



     bravais-lattice index     =            3
     lattice parameter (alat)  =       7.3804  a.u.
     unit-cell volume          =     201.0082 (a.u.)^3
     number of atoms/cell      =            1
     number of atomic types    =            1
     number of electrons       =         9.00
     number of Kohn-Sham states=            9
     kinetic-energy cutoff     =      40.0000  Ry
     charge density cutoff     =     320.0000  Ry
     Exchange-correlation      = SLA  PW   PBE  PBE ( 1  4  3  4 0 0)

     celldm(1)=   7.380423  celldm(2)=   0.000000  celldm(3)=   0.000000
     celldm(4)=   0.000000  celldm(5)=   0.000000  celldm(6)=   0.000000

     crystal axes: (cart. coord. in units of alat)
               a(1) = (   0.500000   0.500000   0.500000 )  
               a(2) = (  -0.500000   0.500000   0.500000 )  
               a(3) = (  -0.500000  -0.500000   0.500000 )  

     reciprocal axes: (cart. coord. in units 2 pi/alat)
               b(1) = (  1.000000  0.000000  1.000000 )  
               b(2) = ( -1.000000  1.000000  0.000000 )  
               b(3) = (  0.000000 -1.000000  1.000000 )  


     PseudoPot. # 1 for Na read from file:
     /home/s1333534/quantum_espresso/qe-6.1/pseudo/Na_pbe_v1.uspp.F.UPF
     MD5 check sum: 76a99c7e9422403d3e93cbc85ab7bccb
     Pseudo is Ultrasoft, Zval =  9.0
     Generated by new atomic code, or converted to UPF format
     Using radial grid of  819 points,  5 beta functions with: 
                l(1) =   0
                l(2) =   0
                l(3) =   1
                l(4) =   1
                l(5) =   2
     Q(r) pseudized with  8 coefficients,  rinner =    1.250   1.250   1.250
                                                       1.250   1.250

     atomic species   valence    mass     pseudopotential
        Na             9.00    22.99000     Na( 1.00)

     48 Sym. Ops., with inversion, found



   Cartesian axes

     site n.     atom                  positions (alat units)
         1           Na  tau(   1) = (   0.0000000   0.0000000   0.0000000  )

     number of k points= 16000  Marzari-Vanderbilt smearing, width (Ry)=  0.0200

     Number of k-points >= 100: set verbosity='high' to print them.

     Dense  grid:    19381 G-vectors     FFT dimensions: (  40,  40,  40)

     Smooth grid:     6819 G-vectors     FFT dimensions: (  25,  25,  25)

     Estimated max dynamical RAM per process >       0.67MB

     Estimated total allocated dynamical RAM >      42.59MB

     The potential is recalculated from file :
     ./_ph0/na.bcc.save/charge-density.dat

     Starting wfc are    5 atomic +    4 random wfc

     Band Structure Calculation
     Davidson diagonalization with overlap

     ethr =  1.11E-10,  avg # of iterations = 19.3

     total cpu time spent up to now is      530.0 secs

     End of band structure calculation

     Number of k-points >= 100: set verbosity='high' to print the bands.

     the Fermi energy is     2.6320 ev

     Writing output data file na.bcc.save

                                                                                

     bravais-lattice index     =            3
     lattice parameter (alat)  =       7.3804  a.u.
     unit-cell volume          =     201.0082 (a.u.)^3
     number of atoms/cell      =            1
     number of atomic types    =            1
     kinetic-energy cut-off    =      40.0000  Ry
     charge density cut-off    =     320.0000  Ry
     convergence threshold     =      1.0E-16
     beta                      =       0.7000
     number of iterations used =            4
     Exchange-correlation      = SLA  PW   PBE  PBE ( 1  4  3  4 0 0)


     celldm(1)=    7.38042  celldm(2)=    0.00000  celldm(3)=    0.00000
     celldm(4)=    0.00000  celldm(5)=    0.00000  celldm(6)=    0.00000

     crystal axes: (cart. coord. in units of alat)
               a(1) = (  0.5000  0.5000  0.5000 )  
               a(2) = ( -0.5000  0.5000  0.5000 )  
               a(3) = ( -0.5000 -0.5000  0.5000 )  

     reciprocal axes: (cart. coord. in units 2 pi/alat)
               b(1) = (  1.0000  0.0000  1.0000 )  
               b(2) = ( -1.0000  1.0000  0.0000 )  
               b(3) = (  0.0000 -1.0000  1.0000 )  


     Atoms inside the unit cell: 

     Cartesian axes

     site n.  atom      mass           positions (alat units)
        1     Na  22.9900   tau(    1) = (    0.00000    0.00000    0.00000  )

     Computing dynamical matrix for 
                    q = (  -0.1666667   0.6666667  -0.5000000 )

     No symmetry!

     G cutoff =  441.5224  (   1212 G-vectors)     FFT grid: ( 40, 40, 40)
     G cutoff =  220.7612  (    426 G-vectors)  smooth grid: ( 25, 25, 25)

     number of k points= 16000  Marzari-Vanderbilt smearing, width (Ry)=  0.0200

     PseudoPot. # 1 for Na read from file:
     /home/s1333534/quantum_espresso/qe-6.1/pseudo/Na_pbe_v1.uspp.F.UPF
     MD5 check sum: 76a99c7e9422403d3e93cbc85ab7bccb
     Pseudo is Ultrasoft, Zval =  9.0
     Generated by new atomic code, or converted to UPF format
     Using radial grid of  819 points,  5 beta functions with: 
                l(1) =   0
                l(2) =   0
                l(3) =   1
                l(4) =   1
                l(5) =   2
     Q(r) pseudized with  8 coefficients,  rinner =    1.250   1.250   1.250
                                                       1.250   1.250

     Mode symmetry, C_1 (1)     point group:


     Atomic displacements:
     There are   3 irreducible representations

     Representation     1      1 modes -A  To be done

     Representation     2      1 modes -A  To be done

     Representation     3      1 modes -A  To be done



     Alpha used in Ewald sum =   2.8000
     PHONON       : 23m49.31s CPU    26m10.80s WALL



     Representation #  1 mode #   1

     Self-consistent Calculation

      iter #   1 total cpu time :  1596.8 secs   av.it.:   5.7
      thresh= 1.000E-02 alpha_mix =  0.700 |ddv_scf|^2 =  1.379E-05

      iter #   2 total cpu time :  1626.7 secs   av.it.:   8.1
      thresh= 3.713E-04 alpha_mix =  0.700 |ddv_scf|^2 =  1.653E-06

      iter #   3 total cpu time :  1656.6 secs   av.it.:   7.6
      thresh= 1.286E-04 alpha_mix =  0.700 |ddv_scf|^2 =  7.098E-07

      iter #   4 total cpu time :  1684.0 secs   av.it.:   7.3
      thresh= 8.425E-05 alpha_mix =  0.700 |ddv_scf|^2 =  4.333E-09

      iter #   5 total cpu time :  1712.9 secs   av.it.:   7.9
      thresh= 6.583E-06 alpha_mix =  0.700 |ddv_scf|^2 =  3.509E-10

      iter #   6 total cpu time :  1742.0 secs   av.it.:   7.9
      thresh= 1.873E-06 alpha_mix =  0.700 |ddv_scf|^2 =  4.379E-12

      iter #   7 total cpu time :  1771.7 secs   av.it.:   8.4
      thresh= 2.093E-07 alpha_mix =  0.700 |ddv_scf|^2 =  2.685E-13

      iter #   8 total cpu time :  1801.8 secs   av.it.:   8.4
      thresh= 5.182E-08 alpha_mix =  0.700 |ddv_scf|^2 =  1.306E-14

      iter #   9 total cpu time :  1831.9 secs   av.it.:   8.4
      thresh= 1.143E-08 alpha_mix =  0.700 |ddv_scf|^2 =  2.864E-16

      iter #  10 total cpu time :  1860.0 secs   av.it.:   7.6
      thresh= 1.692E-09 alpha_mix =  0.700 |ddv_scf|^2 =  1.291E-16

      iter #  11 total cpu time :  1887.8 secs   av.it.:   7.3
      thresh= 1.136E-09 alpha_mix =  0.700 |ddv_scf|^2 =  2.052E-18

     End of self-consistent calculation

     Convergence has been achieved 


     Representation #  2 mode #   2

     Self-consistent Calculation

      iter #   1 total cpu time :  1915.3 secs   av.it.:   5.8
      thresh= 1.000E-02 alpha_mix =  0.700 |ddv_scf|^2 =  5.879E-05

      iter #   2 total cpu time :  1944.3 secs   av.it.:   7.6
      thresh= 7.668E-04 alpha_mix =  0.700 |ddv_scf|^2 =  4.890E-05

      iter #   3 total cpu time :  1971.3 secs   av.it.:   7.0
      thresh= 6.993E-04 alpha_mix =  0.700 |ddv_scf|^2 =  9.186E-08

      iter #   4 total cpu time :  2001.7 secs   av.it.:   8.3
      thresh= 3.031E-05 alpha_mix =  0.700 |ddv_scf|^2 =  3.729E-09

      iter #   5 total cpu time :  2032.4 secs   av.it.:   8.3
      thresh= 6.106E-06 alpha_mix =  0.700 |ddv_scf|^2 =  3.359E-10

      iter #   6 total cpu time :  2063.0 secs   av.it.:   8.2
      thresh= 1.833E-06 alpha_mix =  0.700 |ddv_scf|^2 =  9.093E-12

      iter #   7 total cpu time :  2091.9 secs   av.it.:   7.8
      thresh= 3.015E-07 alpha_mix =  0.700 |ddv_scf|^2 =  6.083E-13

      iter #   8 total cpu time :  2121.1 secs   av.it.:   7.9
      thresh= 7.800E-08 alpha_mix =  0.700 |ddv_scf|^2 =  2.305E-14

      iter #   9 total cpu time :  2149.3 secs   av.it.:   7.5
      thresh= 1.518E-08 alpha_mix =  0.700 |ddv_scf|^2 =  1.440E-15

      iter #  10 total cpu time :  2177.6 secs   av.it.:   7.5
      thresh= 3.795E-09 alpha_mix =  0.700 |ddv_scf|^2 =  3.153E-17

     End of self-consistent calculation

     Convergence has been achieved 


     Representation #  3 mode #   3

     Self-consistent Calculation

      iter #   1 total cpu time :  2204.4 secs   av.it.:   5.8
      thresh= 1.000E-02 alpha_mix =  0.700 |ddv_scf|^2 =  6.584E-05

      iter #   2 total cpu time :  2233.2 secs   av.it.:   7.5
      thresh= 8.114E-04 alpha_mix =  0.700 |ddv_scf|^2 =  4.926E-05

      iter #   3 total cpu time :  2259.5 secs   av.it.:   7.0
      thresh= 7.018E-04 alpha_mix =  0.700 |ddv_scf|^2 =  3.234E-07

      iter #   4 total cpu time :  2288.1 secs   av.it.:   7.7
      thresh= 5.687E-05 alpha_mix =  0.700 |ddv_scf|^2 =  7.717E-09

      iter #   5 total cpu time :  2317.8 secs   av.it.:   8.3
      thresh= 8.785E-06 alpha_mix =  0.700 |ddv_scf|^2 =  2.131E-10

      iter #   6 total cpu time :  2347.6 secs   av.it.:   8.3
      thresh= 1.460E-06 alpha_mix =  0.700 |ddv_scf|^2 =  1.693E-11

      iter #   7 total cpu time :  2378.0 secs   av.it.:   8.3
      thresh= 4.114E-07 alpha_mix =  0.700 |ddv_scf|^2 =  8.577E-13

      iter #   8 total cpu time :  2408.3 secs   av.it.:   8.4
      thresh= 9.261E-08 alpha_mix =  0.700 |ddv_scf|^2 =  5.353E-14

      iter #   9 total cpu time :  2437.2 secs   av.it.:   7.4
      thresh= 2.314E-08 alpha_mix =  0.700 |ddv_scf|^2 =  3.632E-15

      iter #  10 total cpu time :  2465.6 secs   av.it.:   7.7
      thresh= 6.027E-09 alpha_mix =  0.700 |ddv_scf|^2 =  5.440E-17

     End of self-consistent calculation

     Convergence has been achieved 

     Number of q in the star =   48
     List of q in the star:
          1  -0.166666667   0.666666667  -0.500000000
          2   0.666666667  -0.166666667  -0.500000000
          3  -0.166666667   0.500000000  -0.666666667
          4   0.166666667   0.500000000  -0.666666667
          5  -0.166666667  -0.500000000   0.666666667
          6   0.166666667  -0.500000000   0.666666667
          7   0.166666667  -0.666666667   0.500000000
          8  -0.166666667  -0.666666667   0.500000000
          9  -0.500000000  -0.666666667  -0.166666667
         10   0.500000000  -0.666666667   0.166666667
         11  -0.500000000   0.666666667   0.166666667
         12   0.500000000   0.666666667  -0.166666667
         13   0.666666667  -0.166666667   0.500000000
         14   0.666666667  -0.500000000  -0.166666667
         15  -0.166666667  -0.500000000  -0.666666667
         16  -0.166666667   0.500000000   0.666666667
         17   0.666666667   0.166666667  -0.500000000
         18   0.166666667   0.666666667  -0.500000000
         19   0.666666667   0.500000000   0.166666667
         20  -0.666666667   0.500000000  -0.166666667
         21   0.500000000   0.166666667   0.666666667
         22  -0.500000000   0.166666667  -0.666666667
         23   0.500000000   0.666666667   0.166666667
         24   0.500000000  -0.166666667  -0.666666667
         25  -0.666666667   0.166666667   0.500000000
         26  -0.166666667   0.666666667   0.500000000
         27  -0.500000000  -0.166666667   0.666666667
         28   0.166666667   0.666666667   0.500000000
         29  -0.500000000   0.666666667  -0.166666667
         30  -0.666666667  -0.166666667  -0.500000000
         31  -0.666666667  -0.166666667   0.500000000
         32   0.666666667   0.166666667   0.500000000
         33   0.166666667  -0.666666667  -0.500000000
         34  -0.666666667   0.166666667  -0.500000000
         35   0.500000000  -0.666666667  -0.166666667
         36  -0.500000000  -0.666666667   0.166666667
         37  -0.166666667  -0.666666667  -0.500000000
         38  -0.666666667  -0.500000000   0.166666667
         39   0.166666667   0.500000000   0.666666667
         40   0.166666667  -0.500000000  -0.666666667
         41  -0.666666667   0.500000000   0.166666667
         42   0.666666667   0.500000000  -0.166666667
         43  -0.666666667  -0.500000000  -0.166666667
         44   0.666666667  -0.500000000   0.166666667
         45   0.500000000   0.166666667  -0.666666667
         46   0.500000000  -0.166666667   0.666666667
         47  -0.500000000  -0.166666667  -0.666666667
         48  -0.500000000   0.166666667   0.666666667

     Diagonalizing the dynamical matrix

     q = (   -0.166666667   0.666666667  -0.500000000 ) 

 **************************************************************************
     freq (    1) =       1.876832 [THz] =      62.604361 [cm-1]
     freq (    2) =       3.443177 [THz] =     114.852015 [cm-1]
     freq (    3) =       4.993501 [THz] =     166.565270 [cm-1]
 **************************************************************************

     Mode symmetry, C_1 (1)     point group:

     freq (  1 -  1) =         62.6  [cm-1]   --> A                  
     freq (  2 -  2) =        114.9  [cm-1]   --> A                  
     freq (  3 -  3) =        166.6  [cm-1]   --> A                  

     Calculation of q =   -0.3333333   0.6666667  -0.3333333

   Info: using nr1, nr2, nr3 values from input

   Info: using nr1, nr2, nr3 values from input

     Parallelization info
     --------------------
     sticks:   dense  smooth     PW     G-vecs:    dense   smooth      PW
     Min          61      30     11                 1211      425      99
     Max          62      31     12                 1214      428     101
     Sum         977     483    181                19381     6819    1601



     bravais-lattice index     =            3
     lattice parameter (alat)  =       7.3804  a.u.
     unit-cell volume          =     201.0082 (a.u.)^3
     number of atoms/cell      =            1
     number of atomic types    =            1
     number of electrons       =         9.00
     number of Kohn-Sham states=            9
     kinetic-energy cutoff     =      40.0000  Ry
     charge density cutoff     =     320.0000  Ry
     Exchange-correlation      = SLA  PW   PBE  PBE ( 1  4  3  4 0 0)

     celldm(1)=   7.380423  celldm(2)=   0.000000  celldm(3)=   0.000000
     celldm(4)=   0.000000  celldm(5)=   0.000000  celldm(6)=   0.000000

     crystal axes: (cart. coord. in units of alat)
               a(1) = (   0.500000   0.500000   0.500000 )  
               a(2) = (  -0.500000   0.500000   0.500000 )  
               a(3) = (  -0.500000  -0.500000   0.500000 )  

     reciprocal axes: (cart. coord. in units 2 pi/alat)
               b(1) = (  1.000000  0.000000  1.000000 )  
               b(2) = ( -1.000000  1.000000  0.000000 )  
               b(3) = (  0.000000 -1.000000  1.000000 )  


     PseudoPot. # 1 for Na read from file:
     /home/s1333534/quantum_espresso/qe-6.1/pseudo/Na_pbe_v1.uspp.F.UPF
     MD5 check sum: 76a99c7e9422403d3e93cbc85ab7bccb
     Pseudo is Ultrasoft, Zval =  9.0
     Generated by new atomic code, or converted to UPF format
     Using radial grid of  819 points,  5 beta functions with: 
                l(1) =   0
                l(2) =   0
                l(3) =   1
                l(4) =   1
                l(5) =   2
     Q(r) pseudized with  8 coefficients,  rinner =    1.250   1.250   1.250
                                                       1.250   1.250

     atomic species   valence    mass     pseudopotential
        Na             9.00    22.99000     Na( 1.00)

     48 Sym. Ops., with inversion, found



   Cartesian axes

     site n.     atom                  positions (alat units)
         1           Na  tau(   1) = (   0.0000000   0.0000000   0.0000000  )

     number of k points=  3080  Marzari-Vanderbilt smearing, width (Ry)=  0.0200

     Number of k-points >= 100: set verbosity='high' to print them.

     Dense  grid:    19381 G-vectors     FFT dimensions: (  40,  40,  40)

     Smooth grid:     6819 G-vectors     FFT dimensions: (  25,  25,  25)

     Estimated max dynamical RAM per process >       0.67MB

     Estimated total allocated dynamical RAM >      42.59MB

     The potential is recalculated from file :
     ./_ph0/na.bcc.save/charge-density.dat

     Starting wfc are    5 atomic +    4 random wfc

     Band Structure Calculation
     Davidson diagonalization with overlap

     ethr =  1.11E-10,  avg # of iterations = 19.6

     total cpu time spent up to now is      618.1 secs

     End of band structure calculation

     Number of k-points >= 100: set verbosity='high' to print the bands.

     the Fermi energy is     2.6320 ev

     Writing output data file na.bcc.save

                                                                                

     bravais-lattice index     =            3
     lattice parameter (alat)  =       7.3804  a.u.
     unit-cell volume          =     201.0082 (a.u.)^3
     number of atoms/cell      =            1
     number of atomic types    =            1
     kinetic-energy cut-off    =      40.0000  Ry
     charge density cut-off    =     320.0000  Ry
     convergence threshold     =      1.0E-16
     beta                      =       0.7000
     number of iterations used =            4
     Exchange-correlation      = SLA  PW   PBE  PBE ( 1  4  3  4 0 0)


     celldm(1)=    7.38042  celldm(2)=    0.00000  celldm(3)=    0.00000
     celldm(4)=    0.00000  celldm(5)=    0.00000  celldm(6)=    0.00000

     crystal axes: (cart. coord. in units of alat)
               a(1) = (  0.5000  0.5000  0.5000 )  
               a(2) = ( -0.5000  0.5000  0.5000 )  
               a(3) = ( -0.5000 -0.5000  0.5000 )  

     reciprocal axes: (cart. coord. in units 2 pi/alat)
               b(1) = (  1.0000  0.0000  1.0000 )  
               b(2) = ( -1.0000  1.0000  0.0000 )  
               b(3) = (  0.0000 -1.0000  1.0000 )  


     Atoms inside the unit cell: 

     Cartesian axes

     site n.  atom      mass           positions (alat units)
        1     Na  22.9900   tau(    1) = (    0.00000    0.00000    0.00000  )

     Computing dynamical matrix for 
                    q = (  -0.3333333   0.6666667  -0.3333333 )

      6 Sym.Ops. (no q -> -q+G )


     G cutoff =  441.5224  (   1212 G-vectors)     FFT grid: ( 40, 40, 40)
     G cutoff =  220.7612  (    426 G-vectors)  smooth grid: ( 25, 25, 25)

     number of k points=  3080  Marzari-Vanderbilt smearing, width (Ry)=  0.0200

     PseudoPot. # 1 for Na read from file:
     /home/s1333534/quantum_espresso/qe-6.1/pseudo/Na_pbe_v1.uspp.F.UPF
     MD5 check sum: 76a99c7e9422403d3e93cbc85ab7bccb
     Pseudo is Ultrasoft, Zval =  9.0
     Generated by new atomic code, or converted to UPF format
     Using radial grid of  819 points,  5 beta functions with: 
                l(1) =   0
                l(2) =   0
                l(3) =   1
                l(4) =   1
                l(5) =   2
     Q(r) pseudized with  8 coefficients,  rinner =    1.250   1.250   1.250
                                                       1.250   1.250

     Mode symmetry, C_3v (3m)   point group:


     Atomic displacements:
     There are   2 irreducible representations

     Representation     1      1 modes -A_1  L_1  To be done

     Representation     2      2 modes -E    L_3  To be done



     Alpha used in Ewald sum =   2.8000
     PHONON       : 37m56.58s CPU    41m59.75s WALL



     Representation #  1 mode #   1

     Self-consistent Calculation

      iter #   1 total cpu time :  2524.6 secs   av.it.:   5.4
      thresh= 1.000E-02 alpha_mix =  0.700 |ddv_scf|^2 =  1.171E-05

      iter #   2 total cpu time :  2530.2 secs   av.it.:   7.8
      thresh= 3.423E-04 alpha_mix =  0.700 |ddv_scf|^2 =  1.848E-07

      iter #   3 total cpu time :  2535.9 secs   av.it.:   8.0
      thresh= 4.299E-05 alpha_mix =  0.700 |ddv_scf|^2 =  7.234E-09

      iter #   4 total cpu time :  2541.3 secs   av.it.:   7.6
      thresh= 8.505E-06 alpha_mix =  0.700 |ddv_scf|^2 =  1.448E-10

      iter #   5 total cpu time :  2546.8 secs   av.it.:   7.5
      thresh= 1.203E-06 alpha_mix =  0.700 |ddv_scf|^2 =  3.764E-12

      iter #   6 total cpu time :  2552.4 secs   av.it.:   8.1
      thresh= 1.940E-07 alpha_mix =  0.700 |ddv_scf|^2 =  2.135E-13

      iter #   7 total cpu time :  2558.3 secs   av.it.:   8.2
      thresh= 4.621E-08 alpha_mix =  0.700 |ddv_scf|^2 =  5.752E-15

      iter #   8 total cpu time :  2563.8 secs   av.it.:   8.0
      thresh= 7.584E-09 alpha_mix =  0.700 |ddv_scf|^2 =  5.924E-17

     End of self-consistent calculation

     Convergence has been achieved 


     Representation #  2 modes #   2  3

     Self-consistent Calculation

      iter #   1 total cpu time :  2573.7 secs   av.it.:   5.7
      thresh= 1.000E-02 alpha_mix =  0.700 |ddv_scf|^2 =  9.292E-06

      iter #   2 total cpu time :  2585.1 secs   av.it.:   8.2
      thresh= 3.048E-04 alpha_mix =  0.700 |ddv_scf|^2 =  1.068E-06

      iter #   3 total cpu time :  2596.4 secs   av.it.:   7.7
      thresh= 1.033E-04 alpha_mix =  0.700 |ddv_scf|^2 =  8.656E-09

      iter #   4 total cpu time :  2608.5 secs   av.it.:   8.6
      thresh= 9.304E-06 alpha_mix =  0.700 |ddv_scf|^2 =  6.310E-11

      iter #   5 total cpu time :  2619.5 secs   av.it.:   7.9
      thresh= 7.944E-07 alpha_mix =  0.700 |ddv_scf|^2 =  7.594E-14

      iter #   6 total cpu time :  2630.8 secs   av.it.:   8.0
      thresh= 2.756E-08 alpha_mix =  0.700 |ddv_scf|^2 =  4.514E-15

      iter #   7 total cpu time :  2642.5 secs   av.it.:   8.2
      thresh= 6.718E-09 alpha_mix =  0.700 |ddv_scf|^2 =  1.238E-17

     End of self-consistent calculation

     Convergence has been achieved 

     Number of q in the star =    8
     List of q in the star:
          1  -0.333333333   0.666666667  -0.333333333
          2   0.333333333  -0.666666667   0.333333333
          3  -0.333333333  -0.666666667   0.333333333
          4  -0.333333333  -0.666666667  -0.333333333
          5  -0.333333333   0.666666667   0.333333333
          6   0.333333333   0.666666667  -0.333333333
          7  -0.666666667   0.333333333  -0.333333333
          8   0.333333333   0.666666667   0.333333333

     Diagonalizing the dynamical matrix

     q = (   -0.333333333   0.666666667  -0.333333333 ) 

 **************************************************************************
     freq (    1) =       2.198069 [THz] =      73.319685 [cm-1]
     freq (    2) =       4.540619 [THz] =     151.458742 [cm-1]
     freq (    3) =       4.540619 [THz] =     151.458742 [cm-1]
 **************************************************************************

     Mode symmetry, C_3v (3m)   point group:

     freq (  1 -  1) =         73.3  [cm-1]   --> A_1  L_1           
     freq (  2 -  3) =        151.5  [cm-1]   --> E    L_3           

     Calculation of q =    0.0000000   0.0000000   0.3333333

   Info: using nr1, nr2, nr3 values from input

   Info: using nr1, nr2, nr3 values from input

     Parallelization info
     --------------------
     sticks:   dense  smooth     PW     G-vecs:    dense   smooth      PW
     Min          61      30     10                 1211      425      87
     Max          62      31     11                 1214      428      89
     Sum         977     483    169                19381     6819    1409



     bravais-lattice index     =            3
     lattice parameter (alat)  =       7.3804  a.u.
     unit-cell volume          =     201.0082 (a.u.)^3
     number of atoms/cell      =            1
     number of atomic types    =            1
     number of electrons       =         9.00
     number of Kohn-Sham states=            9
     kinetic-energy cutoff     =      40.0000  Ry
     charge density cutoff     =     320.0000  Ry
     Exchange-correlation      = SLA  PW   PBE  PBE ( 1  4  3  4 0 0)

     celldm(1)=   7.380423  celldm(2)=   0.000000  celldm(3)=   0.000000
     celldm(4)=   0.000000  celldm(5)=   0.000000  celldm(6)=   0.000000

     crystal axes: (cart. coord. in units of alat)
               a(1) = (   0.500000   0.500000   0.500000 )  
[...]
     G cutoff =  220.7612  (    426 G-vectors)  smooth grid: ( 25, 25, 25)

     number of k points=  4400  Marzari-Vanderbilt smearing, width (Ry)=  0.0200

     PseudoPot. # 1 for Na read from file:
     /home/s1333534/quantum_espresso/qe-6.1/pseudo/Na_pbe_v1.uspp.F.UPF
     MD5 check sum: 76a99c7e9422403d3e93cbc85ab7bccb
     Pseudo is Ultrasoft, Zval =  9.0
     Generated by new atomic code, or converted to UPF format
     Using radial grid of  819 points,  5 beta functions with: 
                l(1) =   0
                l(2) =   0
                l(3) =   1
                l(4) =   1
                l(5) =   2
     Q(r) pseudized with  8 coefficients,  rinner =    1.250   1.250   1.250
                                                       1.250   1.250

     Mode symmetry, C_2v (mm2)  point group:


     Atomic displacements:
     There are   3 irreducible representations

     Representation     1      1 modes -A_1  D_1  S_1  To be done

     Representation     2      1 modes -B_1  D_3  S_3  To be done

     Representation     3      1 modes -B_2  D_4  S_4  To be done



     Alpha used in Ewald sum =   2.8000
     PHONON       :     1h13m CPU        1h20m WALL



     Representation #  1 mode #   1

     Self-consistent Calculation

      iter #   1 total cpu time :  4866.1 secs   av.it.:   5.6
      thresh= 1.000E-02 alpha_mix =  0.700 |ddv_scf|^2 =  2.082E-05

      iter #   2 total cpu time :  4874.2 secs   av.it.:   7.8
      thresh= 4.563E-04 alpha_mix =  0.700 |ddv_scf|^2 =  9.047E-07

      iter #   3 total cpu time :  4882.5 secs   av.it.:   7.7
      thresh= 9.512E-05 alpha_mix =  0.700 |ddv_scf|^2 =  2.105E-08

      iter #   4 total cpu time :  4890.7 secs   av.it.:   8.1
      thresh= 1.451E-05 alpha_mix =  0.700 |ddv_scf|^2 =  1.336E-09

      iter #   5 total cpu time :  4899.1 secs   av.it.:   8.1
      thresh= 3.655E-06 alpha_mix =  0.700 |ddv_scf|^2 =  1.151E-10

      iter #   6 total cpu time :  4907.1 secs   av.it.:   7.9
      thresh= 1.073E-06 alpha_mix =  0.700 |ddv_scf|^2 =  5.202E-13

      iter #   7 total cpu time :  4915.3 secs   av.it.:   7.9
      thresh= 7.212E-08 alpha_mix =  0.700 |ddv_scf|^2 =  4.079E-14

      iter #   8 total cpu time :  4923.2 secs   av.it.:   7.9
      thresh= 2.020E-08 alpha_mix =  0.700 |ddv_scf|^2 =  7.012E-17

     End of self-consistent calculation

     Convergence has been achieved 


     Representation #  2 mode #   2

     Self-consistent Calculation

      iter #   1 total cpu time :  4930.4 secs   av.it.:   5.5
      thresh= 1.000E-02 alpha_mix =  0.700 |ddv_scf|^2 =  1.788E-05

      iter #   2 total cpu time :  4938.5 secs   av.it.:   7.7
      thresh= 4.229E-04 alpha_mix =  0.700 |ddv_scf|^2 =  2.098E-07

      iter #   3 total cpu time :  4946.1 secs   av.it.:   7.6
      thresh= 4.581E-05 alpha_mix =  0.700 |ddv_scf|^2 =  1.997E-08

      iter #   4 total cpu time :  4954.1 secs   av.it.:   7.7
      thresh= 1.413E-05 alpha_mix =  0.700 |ddv_scf|^2 =  8.788E-11

      iter #   5 total cpu time :  4962.2 secs   av.it.:   7.6
      thresh= 9.375E-07 alpha_mix =  0.700 |ddv_scf|^2 =  4.128E-14

      iter #   6 total cpu time :  4969.7 secs   av.it.:   7.0
      thresh= 2.032E-08 alpha_mix =  0.700 |ddv_scf|^2 =  2.761E-15

      iter #   7 total cpu time :  4977.6 secs   av.it.:   7.4
      thresh= 5.254E-09 alpha_mix =  0.700 |ddv_scf|^2 =  4.680E-18

     End of self-consistent calculation

     Convergence has been achieved 


     Representation #  3 mode #   3

     Self-consistent Calculation

      iter #   1 total cpu time :  4984.9 secs   av.it.:   5.7
      thresh= 1.000E-02 alpha_mix =  0.700 |ddv_scf|^2 =  3.068E-05

      iter #   2 total cpu time :  4993.1 secs   av.it.:   7.6
      thresh= 5.539E-04 alpha_mix =  0.700 |ddv_scf|^2 =  2.146E-06

      iter #   3 total cpu time :  5001.0 secs   av.it.:   7.3
      thresh= 1.465E-04 alpha_mix =  0.700 |ddv_scf|^2 =  2.978E-08

      iter #   4 total cpu time :  5009.1 secs   av.it.:   7.9
      thresh= 1.726E-05 alpha_mix =  0.700 |ddv_scf|^2 =  8.834E-10

      iter #   5 total cpu time :  5016.6 secs   av.it.:   7.4
      thresh= 2.972E-06 alpha_mix =  0.700 |ddv_scf|^2 =  1.605E-12

      iter #   6 total cpu time :  5024.7 secs   av.it.:   7.9
      thresh= 1.267E-07 alpha_mix =  0.700 |ddv_scf|^2 =  1.050E-14

      iter #   7 total cpu time :  5032.5 secs   av.it.:   7.8
      thresh= 1.025E-08 alpha_mix =  0.700 |ddv_scf|^2 =  1.857E-16

      iter #   8 total cpu time :  5040.2 secs   av.it.:   7.5
      thresh= 1.363E-09 alpha_mix =  0.700 |ddv_scf|^2 =  3.005E-19

     End of self-consistent calculation

     Convergence has been achieved 

     Number of q in the star =   12
     List of q in the star:
          1   0.000000000   0.833333333  -0.166666667
          2   0.000000000  -0.833333333  -0.166666667
          3   0.833333333   0.000000000  -0.166666667
          4  -0.833333333   0.000000000  -0.166666667
          5  -0.166666667  -0.833333333   0.000000000
          6   0.166666667  -0.833333333   0.000000000
          7  -0.166666667   0.833333333   0.000000000
          8   0.166666667   0.833333333   0.000000000
          9   0.833333333   0.000000000   0.166666667
         10   0.000000000   0.166666667  -0.833333333
         11   0.000000000  -0.166666667  -0.833333333
         12   0.166666667   0.000000000  -0.833333333

     Diagonalizing the dynamical matrix

     q = (    0.000000000   0.833333333  -0.166666667 ) 

 **************************************************************************
     freq (    1) =       4.023846 [THz] =     134.221064 [cm-1]
     freq (    2) =       4.358817 [THz] =     145.394484 [cm-1]
     freq (    3) =       4.837923 [THz] =     161.375740 [cm-1]
 **************************************************************************

     Mode symmetry, C_2v (mm2)  point group:

     freq (  1 -  1) =        134.2  [cm-1]   --> A_1  D_1  S_1      
     freq (  2 -  2) =        145.4  [cm-1]   --> B_1  D_3  S_3      
     freq (  3 -  3) =        161.4  [cm-1]   --> B_2  D_4  S_4      

     Calculation of q =    0.0000000   0.0000000  -1.0000000

   Info: using nr1, nr2, nr3 values from input

   Info: using nr1, nr2, nr3 values from input

     Parallelization info
     --------------------
     sticks:   dense  smooth     PW     G-vecs:    dense   smooth      PW
     Min          61      30     11                 1211      425      96
     Max          62      31     12                 1214      428      98
     Sum         977     483    181                19381     6819    1553



     bravais-lattice index     =            3
     lattice parameter (alat)  =       7.3804  a.u.
     unit-cell volume          =     201.0082 (a.u.)^3
     number of atoms/cell      =            1
     number of atomic types    =            1
     number of electrons       =         9.00
     number of Kohn-Sham states=            9
     kinetic-energy cutoff     =      40.0000  Ry
     charge density cutoff     =     320.0000  Ry
     Exchange-correlation      = SLA  PW   PBE  PBE ( 1  4  3  4 0 0)

     celldm(1)=   7.380423  celldm(2)=   0.000000  celldm(3)=   0.000000
     celldm(4)=   0.000000  celldm(5)=   0.000000  celldm(6)=   0.000000

     crystal axes: (cart. coord. in units of alat)
               a(1) = (   0.500000   0.500000   0.500000 )  
               a(2) = (  -0.500000   0.500000   0.500000 )  
               a(3) = (  -0.500000  -0.500000   0.500000 )  

     reciprocal axes: (cart. coord. in units 2 pi/alat)
               b(1) = (  1.000000  0.000000  1.000000 )  
               b(2) = ( -1.000000  1.000000  0.000000 )  
               b(3) = (  0.000000 -1.000000  1.000000 )  


     PseudoPot. # 1 for Na read from file:
     /home/s1333534/quantum_espresso/qe-6.1/pseudo/Na_pbe_v1.uspp.F.UPF
     MD5 check sum: 76a99c7e9422403d3e93cbc85ab7bccb
     Pseudo is Ultrasoft, Zval =  9.0
     Generated by new atomic code, or converted to UPF format
     Using radial grid of  819 points,  5 beta functions with: 
                l(1) =   0
                l(2) =   0
                l(3) =   1
                l(4) =   1
                l(5) =   2
     Q(r) pseudized with  8 coefficients,  rinner =    1.250   1.250   1.250
                                                       1.250   1.250

     atomic species   valence    mass     pseudopotential
        Na             9.00    22.99000     Na( 1.00)

     48 Sym. Ops., with inversion, found



   Cartesian axes

     site n.     atom                  positions (alat units)
         1           Na  tau(   1) = (   0.0000000   0.0000000   0.0000000  )

     number of k points=   500  Marzari-Vanderbilt smearing, width (Ry)=  0.0200

     Number of k-points >= 100: set verbosity='high' to print them.

     Dense  grid:    19381 G-vectors     FFT dimensions: (  40,  40,  40)

     Smooth grid:     6819 G-vectors     FFT dimensions: (  25,  25,  25)

     Estimated max dynamical RAM per process >       0.67MB

     Estimated total allocated dynamical RAM >      42.59MB

     The potential is recalculated from file :
     ./_ph0/na.bcc.save/charge-density.dat

     Starting wfc are    5 atomic +    4 random wfc

     Band Structure Calculation
     Davidson diagonalization with overlap

     ethr =  1.11E-10,  avg # of iterations = 19.7

     total cpu time spent up to now is     1253.1 secs

     End of band structure calculation

     Number of k-points >= 100: set verbosity='high' to print the bands.

     the Fermi energy is     2.6320 ev

     Writing output data file na.bcc.save

                                                                                

     bravais-lattice index     =            3
     lattice parameter (alat)  =       7.3804  a.u.
     unit-cell volume          =     201.0082 (a.u.)^3
     number of atoms/cell      =            1
     number of atomic types    =            1
     kinetic-energy cut-off    =      40.0000  Ry
     charge density cut-off    =     320.0000  Ry
     convergence threshold     =      1.0E-16
     beta                      =       0.7000
     number of iterations used =            4
     Exchange-correlation      = SLA  PW   PBE  PBE ( 1  4  3  4 0 0)


     celldm(1)=    7.38042  celldm(2)=    0.00000  celldm(3)=    0.00000
     celldm(4)=    0.00000  celldm(5)=    0.00000  celldm(6)=    0.00000

     crystal axes: (cart. coord. in units of alat)
               a(1) = (  0.5000  0.5000  0.5000 )  
               a(2) = ( -0.5000  0.5000  0.5000 )  
               a(3) = ( -0.5000 -0.5000  0.5000 )  

     reciprocal axes: (cart. coord. in units 2 pi/alat)
               b(1) = (  1.0000  0.0000  1.0000 )  
               b(2) = ( -1.0000  1.0000  0.0000 )  
               b(3) = (  0.0000 -1.0000  1.0000 )  


     Atoms inside the unit cell: 

     Cartesian axes

     site n.  atom      mass           positions (alat units)
        1     Na  22.9900   tau(    1) = (    0.00000    0.00000    0.00000  )

     Computing dynamical matrix for 
                    q = (   0.0000000   0.0000000  -1.0000000 )

     49 Sym.Ops. (with q -> -q+G )


     G cutoff =  441.5224  (   1212 G-vectors)     FFT grid: ( 40, 40, 40)
     G cutoff =  220.7612  (    426 G-vectors)  smooth grid: ( 25, 25, 25)

     number of k points=   500  Marzari-Vanderbilt smearing, width (Ry)=  0.0200

     PseudoPot. # 1 for Na read from file:
     /home/s1333534/quantum_espresso/qe-6.1/pseudo/Na_pbe_v1.uspp.F.UPF
     MD5 check sum: 76a99c7e9422403d3e93cbc85ab7bccb
     Pseudo is Ultrasoft, Zval =  9.0
     Generated by new atomic code, or converted to UPF format
     Using radial grid of  819 points,  5 beta functions with: 
                l(1) =   0
                l(2) =   0
                l(3) =   1
                l(4) =   1
                l(5) =   2
     Q(r) pseudized with  8 coefficients,  rinner =    1.250   1.250   1.250
                                                       1.250   1.250

     Mode symmetry, O_h (m-3m)  point group:


     Atomic displacements:
     There are   1 irreducible representations

     Representation     1      3 modes -T_1u G_15  G_4-  To be done



     Alpha used in Ewald sum =   2.8000
     PHONON       :     1h16m CPU        1h24m WALL



     Representation #  1 modes #   1  2  3

     Self-consistent Calculation

      iter #   1 total cpu time :  5053.3 secs   av.it.:   5.7
      thresh= 1.000E-02 alpha_mix =  0.700 |ddv_scf|^2 =  2.222E-06

      iter #   2 total cpu time :  5057.3 secs   av.it.:   8.5
      thresh= 1.491E-04 alpha_mix =  0.700 |ddv_scf|^2 =  2.996E-08

      iter #   3 total cpu time :  5061.2 secs   av.it.:   8.4
      thresh= 1.731E-05 alpha_mix =  0.700 |ddv_scf|^2 =  2.572E-09

      iter #   4 total cpu time :  5065.4 secs   av.it.:   8.5
      thresh= 5.072E-06 alpha_mix =  0.700 |ddv_scf|^2 =  1.054E-11

      iter #   5 total cpu time :  5069.2 secs   av.it.:   8.3
      thresh= 3.247E-07 alpha_mix =  0.700 |ddv_scf|^2 =  3.722E-15

      iter #   6 total cpu time :  5073.1 secs   av.it.:   7.3
      thresh= 6.101E-09 alpha_mix =  0.700 |ddv_scf|^2 =  2.618E-16

      iter #   7 total cpu time :  5076.9 secs   av.it.:   8.0
      thresh= 1.618E-09 alpha_mix =  0.700 |ddv_scf|^2 =  2.242E-19

     End of self-consistent calculation

     Convergence has been achieved 

     Number of q in the star =    1
     List of q in the star:
          1   0.000000000   0.000000000  -1.000000000

     Diagonalizing the dynamical matrix

     q = (    0.000000000   0.000000000  -1.000000000 ) 

 **************************************************************************
     freq (    1) =       4.694558 [THz] =     156.593586 [cm-1]
     freq (    2) =       4.694558 [THz] =     156.593586 [cm-1]
     freq (    3) =       4.694558 [THz] =     156.593586 [cm-1]
 **************************************************************************

     Mode symmetry, O_h (m-3m)  point group:

     freq (  1 -  3) =        156.6  [cm-1]   --> T_1u G_15  G_4-    

     init_run     :      2.16s CPU      2.30s WALL (      15 calls)
     electrons    :    957.65s CPU   1024.94s WALL (      15 calls)

     Called by init_run:
     wfcinit      :      0.00s CPU      0.01s WALL (      15 calls)
     potinit      :      0.37s CPU      0.37s WALL (      15 calls)

     Called by electrons:
     c_bands      :    957.35s CPU   1024.58s WALL (      15 calls)
     v_of_rho     :      0.16s CPU      0.16s WALL (      16 calls)
     newd         :      0.12s CPU      0.13s WALL (      16 calls)

     Called by c_bands:
     init_us_2    :     22.02s CPU     24.39s WALL (  336489 calls)
     cegterg      :    739.19s CPU    799.07s WALL (   24221 calls)

     Called by sum_band:

     Called by *egterg:
     h_psi        :   2466.06s CPU   2727.39s WALL ( 3099729 calls)
     s_psi        :     86.98s CPU     98.32s WALL ( 6046009 calls)
     g_psi        :      2.58s CPU      2.84s WALL (  372233 calls)
     cdiaghg      :    239.14s CPU    256.29s WALL (  391495 calls)

     Called by h_psi:
     h_psi:pot    :   2444.43s CPU   2702.76s WALL ( 3099729 calls)
     h_psi:calbec :    179.00s CPU    197.08s WALL ( 3099729 calls)
     vloc_psi     :   2185.40s CPU   2416.99s WALL ( 3099729 calls)
     add_vuspsi   :     47.08s CPU     52.98s WALL ( 3099729 calls)

     General routines
     calbec       :    330.62s CPU    366.03s WALL ( 6589213 calls)
     fft          :      3.98s CPU      4.36s WALL (    6346 calls)
     ffts         :      3.31s CPU      3.66s WALL (   30429 calls)
     fftw         :   2346.27s CPU   2610.48s WALL (29912150 calls)
     interpolate  :      0.60s CPU      0.72s WALL (     870 calls)
     davcio       :     30.27s CPU     64.13s WALL ( 1369453 calls)

     Parallel routines
     fft_scatter  :   1315.68s CPU   1462.20s WALL (29948925 calls)

     PHONON       :     1h16m CPU        1h24m WALL

     INITIALIZATION: 
     phq_setup    :      0.65s CPU      0.73s WALL (      16 calls)
     phq_init     :     51.22s CPU     55.14s WALL (      16 calls)

     phq_init     :     51.22s CPU     55.14s WALL (      16 calls)
     init_vloc    :      0.10s CPU      0.10s WALL (      16 calls)
     init_us_1    :      1.11s CPU      1.20s WALL (      16 calls)
     newd         :      0.12s CPU      0.13s WALL (      16 calls)
     dvanqq       :      0.53s CPU      0.54s WALL (      16 calls)
     drho         :     38.04s CPU     41.07s WALL (      16 calls)

     DYNAMICAL MATRIX:
     dynmat0      :      8.23s CPU      8.68s WALL (      16 calls)
     phqscf       :   3348.63s CPU   3762.86s WALL (      16 calls)
     dynmatrix    :      0.09s CPU      0.10s WALL (      16 calls)

     phqscf       :   3348.63s CPU   3762.86s WALL (      16 calls)
     solve_linter :   3336.52s CPU   3749.70s WALL (      40 calls)
     drhodv       :     11.89s CPU     12.75s WALL (      40 calls)

     dynmat0      :      8.23s CPU      8.68s WALL (      16 calls)
     dynmat_us    :      8.18s CPU      8.59s WALL (      16 calls)
     d2ionq       :      0.01s CPU      0.01s WALL (      16 calls)

     dynmat_us    :      8.18s CPU      8.59s WALL (      16 calls)
     addusdynmat  :      0.00s CPU      0.00s WALL (      16 calls)

     phqscf       :   3348.63s CPU   3762.86s WALL (      16 calls)
     solve_linter :   3336.52s CPU   3749.70s WALL (      40 calls)

     solve_linter :   3336.52s CPU   3749.70s WALL (      40 calls)
     dvqpsi_us    :     62.40s CPU     67.88s WALL (   29082 calls)
     ortho        :     50.83s CPU     55.87s WALL (  262267 calls)
     cgsolve      :   2626.58s CPU   2921.81s WALL (  262267 calls)
     incdrhoscf   :    239.46s CPU    282.17s WALL (  262267 calls)
     addusddens   :      4.06s CPU      4.13s WALL (     381 calls)
     vpsifft      :    191.36s CPU    213.34s WALL (  233185 calls)
     dv_of_drho   :      3.01s CPU      3.26s WALL (     395 calls)
     mix_pot      :      0.69s CPU      2.58s WALL (     341 calls)
     ef_shift     :      0.03s CPU      0.06s WALL (       7 calls)
     localdos     :      0.06s CPU      0.07s WALL (       1 calls)
     psymdvscf    :     28.91s CPU     29.52s WALL (     310 calls)
     newdq        :      3.99s CPU      4.06s WALL (     341 calls)
     adddvscf     :     13.47s CPU     14.87s WALL (  233185 calls)
     drhodvus     :      0.04s CPU      0.04s WALL (      40 calls)

     dvqpsi_us    :     62.40s CPU     67.88s WALL (   29082 calls)
     dvqpsi_us_on :     13.37s CPU     14.25s WALL (   29082 calls)

     cgsolve      :   2626.58s CPU   2921.81s WALL (  262267 calls)
     ch_psi       :   2445.64s CPU   2719.63s WALL ( 2684013 calls)

     ch_psi       :   2445.64s CPU   2719.63s WALL ( 2684013 calls)
     h_psi        :   2466.06s CPU   2727.39s WALL ( 3099729 calls)
     last         :    310.73s CPU    346.35s WALL ( 2684013 calls)

     h_psi        :   2466.06s CPU   2727.39s WALL ( 3099729 calls)
     add_vuspsi   :     47.08s CPU     52.98s WALL ( 3099729 calls)

     incdrhoscf   :    239.46s CPU    282.17s WALL (  262267 calls)
     addusdbec    :     23.26s CPU     25.58s WALL (  291349 calls)

     drhodvus     :      0.04s CPU      0.04s WALL (      40 calls)

      General routines
     calbec       :    330.62s CPU    366.03s WALL ( 6589213 calls)
     fft          :      3.98s CPU      4.36s WALL (    6346 calls)
     ffts         :      3.31s CPU      3.66s WALL (   30429 calls)
     fftw         :   2346.27s CPU   2610.48s WALL (29912150 calls)
     davcio       :     30.27s CPU     64.13s WALL ( 1369453 calls)
     write_rec    :      1.69s CPU      6.48s WALL (     381 calls)


     PHONON       :     1h16m CPU        1h24m WALL


   This run was terminated on:  23:26:43  30Jan2018            

=------------------------------------------------------------------------------=
   JOB DONE.
=------------------------------------------------------------------------------=
