
     Program PWSCF v.6.1 (svn rev. 13369) starts on 20Dec2017 at 16:53:33 

     This program is part of the open-source Quantum ESPRESSO suite
     for quantum simulation of materials; please cite
         "P. Giannozzi et al., J. Phys.:Condens. Matter 21 395502 (2009);
          URL http://www.quantum-espresso.org", 
     in publications or presentations arising from this work. More details at
     http://www.quantum-espresso.org/quote

     Parallel version (MPI), running on     4 processors
     R & G space division:  proc/nbgrp/npool/nimage =       4
     Waiting for input...
     Reading input from standard input

     Current dimensions of program PWSCF are:
     Max number of different atomic species (ntypx) = 10
     Max number of k-points (npk) =  40000
     Max angular momentum in pseudopotentials (lmaxx) =  3

     Subspace diagonalization in iterative solution of the eigenvalue problem:
     a serial algorithm will be used


     Parallelization info
     --------------------
     sticks:   dense  smooth     PW     G-vecs:    dense   smooth      PW
     Min         261     132     42                 5382     1926     352
     Max         262     133     43                 5383     1927     353
     Sum        1047     531    169                21529     7707    1409



     bravais-lattice index     =            3
     lattice parameter (alat)  =       7.6406  a.u.
     unit-cell volume          =     223.0222 (a.u.)^3
     number of atoms/cell      =            1
     number of atomic types    =            1
     number of electrons       =         9.00
     number of Kohn-Sham states=            9
     kinetic-energy cutoff     =      40.0000  Ry
     charge density cutoff     =     320.0000  Ry
     convergence threshold     =      1.0E-08
     mixing beta               =       0.7000
     number of iterations used =            8  plain     mixing
     Exchange-correlation      = SLA  PW   PBE  PBE ( 1  4  3  4 0 0)
     nstep                     =           50


     celldm(1)=   7.640574  celldm(2)=   0.000000  celldm(3)=   0.000000
     celldm(4)=   0.000000  celldm(5)=   0.000000  celldm(6)=   0.000000

     crystal axes: (cart. coord. in units of alat)
               a(1) = (   0.500000   0.500000   0.500000 )  
               a(2) = (  -0.500000   0.500000   0.500000 )  
               a(3) = (  -0.500000  -0.500000   0.500000 )  

     reciprocal axes: (cart. coord. in units 2 pi/alat)
               b(1) = (  1.000000  0.000000  1.000000 )  
               b(2) = ( -1.000000  1.000000  0.000000 )  
               b(3) = (  0.000000 -1.000000  1.000000 )  


     PseudoPot. # 1 for Na read from file:
     /home/s1333534/quantum_espresso/qe-6.1/pseudo/Na_pbe_v1.uspp.F.UPF
     MD5 check sum: 76a99c7e9422403d3e93cbc85ab7bccb
     Pseudo is Ultrasoft, Zval =  9.0
     Generated by new atomic code, or converted to UPF format
     Using radial grid of  819 points,  5 beta functions with: 
                l(1) =   0
                l(2) =   0
                l(3) =   1
                l(4) =   1
                l(5) =   2
     Q(r) pseudized with  8 coefficients,  rinner =    1.250   1.250   1.250
                                                       1.250   1.250

     atomic species   valence    mass     pseudopotential
        Na             9.00    22.99000     Na( 1.00)

     48 Sym. Ops., with inversion, found



   Cartesian axes

     site n.     atom                  positions (alat units)
         1           Na  tau(   1) = (   0.0000000   0.0000000   0.0000000  )

     number of k points=   250  Marzari-Vanderbilt smearing, width (Ry)=  0.0200

     Number of k-points >= 100: set verbosity='high' to print them.

     Dense  grid:    21529 G-vectors     FFT dimensions: (  40,  40,  40)

     Smooth grid:     7707 G-vectors     FFT dimensions: (  27,  27,  27)

     Estimated max dynamical RAM per process >      11.78MB

     Estimated total allocated dynamical RAM >      47.13MB

     Initial potential from superposition of free atoms

     starting charge    8.99371, renormalised to    9.00000
     Starting wfc are    5 randomized atomic wfcs +    4 random wfc

     total cpu time spent up to now is        0.9 secs

     per-process dynamical memory:    17.9 Mb

     Self-consistent Calculation

     iteration #  1     ecut=    40.00 Ry     beta=0.70
     Davidson diagonalization with overlap
     ethr =  1.00E-02,  avg # of iterations =  5.7

     Threshold (ethr) on eigenvalues was too large:
     Diagonalizing with lowered threshold

     Davidson diagonalization with overlap
     ethr =  1.04E-05,  avg # of iterations =  4.2

     total cpu time spent up to now is        5.3 secs

     total energy              =     -95.10551299 Ry
     Harris-Foulkes estimate   =     -95.10577988 Ry
     estimated scf accuracy    <       0.00093626 Ry

     iteration #  2     ecut=    40.00 Ry     beta=0.70
     Davidson diagonalization with overlap
     ethr =  1.04E-05,  avg # of iterations =  2.0

     total cpu time spent up to now is        6.8 secs

     total energy              =     -95.10562509 Ry
     Harris-Foulkes estimate   =     -95.10564971 Ry
     estimated scf accuracy    <       0.00010444 Ry

     iteration #  3     ecut=    40.00 Ry     beta=0.70
     Davidson diagonalization with overlap
     ethr =  1.16E-06,  avg # of iterations =  2.1

     total cpu time spent up to now is        8.3 secs

     total energy              =     -95.10563690 Ry
     Harris-Foulkes estimate   =     -95.10563808 Ry
     estimated scf accuracy    <       0.00000644 Ry

     iteration #  4     ecut=    40.00 Ry     beta=0.70
     Davidson diagonalization with overlap
     ethr =  7.15E-08,  avg # of iterations =  1.0

     total cpu time spent up to now is        9.6 secs

     End of self-consistent calculation

     Number of k-points >= 100: set verbosity='high' to print the bands.

     the Fermi energy is     2.1147 ev

!    total energy              =     -95.10563749 Ry
     Harris-Foulkes estimate   =     -95.10563744 Ry
     estimated scf accuracy    <          9.5E-09 Ry

     The total energy is the sum of the following terms:

     one-electron contribution =     -85.59781127 Ry
     hartree contribution      =      43.35656258 Ry
     xc contribution           =     -14.28369482 Ry
     ewald contribution        =     -38.58059570 Ry
     smearing contrib. (-TS)   =      -0.00009828 Ry

     convergence has been achieved in   4 iterations

     Forces acting on atoms (cartesian axes, Ry/au):

     atom    1 type  1   force =     0.00000000    0.00000000    0.00000000

     Total force =     0.000000     Total SCF correction =     0.000000


     Computing stress (Cartesian axis) and pressure

          total   stress  (Ry/bohr**3)                   (kbar)     P=    7.46
   0.00005070  -0.00000000   0.00000000          7.46     -0.00      0.00
  -0.00000000   0.00005070   0.00000000         -0.00      7.46      0.00
   0.00000000   0.00000000   0.00005070          0.00      0.00      7.46


     BFGS Geometry Optimization

     number of scf cycles    =   1
     number of bfgs steps    =   0

     enthalpy new            =     -95.0904767523 Ry

     new trust radius        =       0.0012898275 bohr
     new conv_thr            =       0.0000000100 Ry

     new unit-cell volume =    222.73335 a.u.^3 (    33.00568 Ang^3 )
     density =      1.15664 g/cm^3

CELL_PARAMETERS (alat=  7.64057434)
   0.499784078   0.499784078   0.499784078
  -0.499784078   0.499784078   0.499784078
  -0.499784078  -0.499784078   0.499784078

ATOMIC_POSITIONS (crystal)
Na       0.000000000   0.000000000   0.000000000



     Writing output data file na.bcc.save
     NEW-OLD atomic charge density approx. for the potential
     extrapolated charge    8.98834, renormalised to    9.00000

     total cpu time spent up to now is       10.9 secs

     per-process dynamical memory:    28.1 Mb

     Self-consistent Calculation

     iteration #  1     ecut=    40.00 Ry     beta=0.70
     Davidson diagonalization with overlap
     ethr =  1.00E-06,  avg # of iterations =  2.0

     total cpu time spent up to now is       12.7 secs

     total energy              =     -95.10553348 Ry
     Harris-Foulkes estimate   =     -95.19388624 Ry
     estimated scf accuracy    <       0.00004993 Ry

     iteration #  2     ecut=    40.00 Ry     beta=0.70
     Davidson diagonalization with overlap
     ethr =  5.55E-07,  avg # of iterations =  3.0

     total cpu time spent up to now is       14.4 secs

     total energy              =     -95.10562390 Ry
     Harris-Foulkes estimate   =     -95.10566043 Ry
     estimated scf accuracy    <       0.00008312 Ry

     iteration #  3     ecut=    40.00 Ry     beta=0.70
     Davidson diagonalization with overlap
     ethr =  5.55E-07,  avg # of iterations =  1.6

     total cpu time spent up to now is       15.8 secs

     total energy              =     -95.10562436 Ry
     Harris-Foulkes estimate   =     -95.10562936 Ry
     estimated scf accuracy    <       0.00001615 Ry

     iteration #  4     ecut=    40.00 Ry     beta=0.70
     Davidson diagonalization with overlap
     ethr =  1.79E-07,  avg # of iterations =  1.0

     total cpu time spent up to now is       17.1 secs

     total energy              =     -95.10562335 Ry
     Harris-Foulkes estimate   =     -95.10562506 Ry
     estimated scf accuracy    <       0.00000588 Ry

     iteration #  5     ecut=    40.00 Ry     beta=0.70
     Davidson diagonalization with overlap
     ethr =  6.54E-08,  avg # of iterations =  1.0

     total cpu time spent up to now is       18.4 secs

     total energy              =     -95.10562286 Ry
     Harris-Foulkes estimate   =     -95.10562351 Ry
     estimated scf accuracy    <       0.00000252 Ry

     iteration #  6     ecut=    40.00 Ry     beta=0.70
     Davidson diagonalization with overlap
     ethr =  2.80E-08,  avg # of iterations =  1.0

     total cpu time spent up to now is       19.7 secs

     total energy              =     -95.10562226 Ry
     Harris-Foulkes estimate   =     -95.10562291 Ry
     estimated scf accuracy    <       0.00000123 Ry

     iteration #  7     ecut=    40.00 Ry     beta=0.70
     Davidson diagonalization with overlap
     ethr =  1.37E-08,  avg # of iterations =  1.1

     total cpu time spent up to now is       21.0 secs

     total energy              =     -95.10562232 Ry
     Harris-Foulkes estimate   =     -95.10562238 Ry
     estimated scf accuracy    <       0.00000011 Ry

     iteration #  8     ecut=    40.00 Ry     beta=0.70
     Davidson diagonalization with overlap
     ethr =  1.22E-09,  avg # of iterations =  2.0

     total cpu time spent up to now is       22.5 secs

     End of self-consistent calculation

     Number of k-points >= 100: set verbosity='high' to print the bands.

     the Fermi energy is     2.1206 ev

!    total energy              =     -95.10562234 Ry
     Harris-Foulkes estimate   =     -95.10562234 Ry
     estimated scf accuracy    <          5.8E-09 Ry

     The total energy is the sum of the following terms:

     one-electron contribution =     -85.56855239 Ry
     hartree contribution      =      43.34414388 Ry
     xc contribution           =     -14.28385175 Ry
     ewald contribution        =     -38.59726373 Ry
     smearing contrib. (-TS)   =      -0.00009835 Ry

     convergence has been achieved in   8 iterations

     Forces acting on atoms (cartesian axes, Ry/au):

     atom    1 type  1   force =     0.00000000    0.00000000    0.00000000

     Total force =     0.000000     Total SCF correction =     0.000000


     Computing stress (Cartesian axis) and pressure

          total   stress  (Ry/bohr**3)                   (kbar)     P=    7.14
   0.00004856  -0.00000000   0.00000000          7.14     -0.00      0.00
  -0.00000000   0.00004856  -0.00000000         -0.00      7.14     -0.00
   0.00000000  -0.00000000   0.00004856          0.00     -0.00      7.14


     number of scf cycles    =   2
     number of bfgs steps    =   1

     enthalpy old            =     -95.0904767523 Ry
     enthalpy new            =     -95.0904812272 Ry

     CASE: enthalpy_new < enthalpy_old


     WARNING: bfgs curvature condition failed, Theta= 0.712
     uphill step: resetting bfgs history

     new trust radius        =       0.0014492997 bohr
     new conv_thr            =            1.0E-10 Ry

     new unit-cell volume =    222.40907 a.u.^3 (    32.95762 Ang^3 )
     density =      1.15833 g/cm^3

CELL_PARAMETERS (alat=  7.64057434)
   0.499541407   0.499541407   0.499541407
  -0.499541407   0.499541407   0.499541407
  -0.499541407  -0.499541407   0.499541407

ATOMIC_POSITIONS (crystal)
Na       0.000000000   0.000000000   0.000000000



     Writing output data file na.bcc.save
     NEW-OLD atomic charge density approx. for the potential
     extrapolated charge    8.98689, renormalised to    9.00000

     total cpu time spent up to now is       23.8 secs

     per-process dynamical memory:    28.1 Mb

     Self-consistent Calculation

     iteration #  1     ecut=    40.00 Ry     beta=0.70
     Davidson diagonalization with overlap
     ethr =  1.00E-06,  avg # of iterations =  2.0

     total cpu time spent up to now is       25.6 secs

     total energy              =     -95.10549221 Ry
     Harris-Foulkes estimate   =     -95.20481345 Ry
     estimated scf accuracy    <       0.00006363 Ry

     iteration #  2     ecut=    40.00 Ry     beta=0.70
     Davidson diagonalization with overlap
     ethr =  7.07E-07,  avg # of iterations =  2.9

     total cpu time spent up to now is       27.3 secs

     total energy              =     -95.10560679 Ry
     Harris-Foulkes estimate   =     -95.10565312 Ry
     estimated scf accuracy    <       0.00010524 Ry

     iteration #  3     ecut=    40.00 Ry     beta=0.70
     Davidson diagonalization with overlap
     ethr =  7.07E-07,  avg # of iterations =  1.6

     total cpu time spent up to now is       29.3 secs

     total energy              =     -95.10560806 Ry
     Harris-Foulkes estimate   =     -95.10561374 Ry
     estimated scf accuracy    <       0.00002035 Ry

     iteration #  4     ecut=    40.00 Ry     beta=0.70
     Davidson diagonalization with overlap
     ethr =  2.26E-07,  avg # of iterations =  1.0

     total cpu time spent up to now is       31.3 secs

     total energy              =     -95.10560606 Ry
     Harris-Foulkes estimate   =     -95.10560881 Ry
     estimated scf accuracy    <       0.00000845 Ry

     iteration #  5     ecut=    40.00 Ry     beta=0.70
     Davidson diagonalization with overlap
     ethr =  9.39E-08,  avg # of iterations =  1.0

     total cpu time spent up to now is       32.6 secs

     total energy              =     -95.10560514 Ry
     Harris-Foulkes estimate   =     -95.10560633 Ry
     estimated scf accuracy    <       0.00000315 Ry

     iteration #  6     ecut=    40.00 Ry     beta=0.70
     Davidson diagonalization with overlap
     ethr =  3.50E-08,  avg # of iterations =  1.0

     total cpu time spent up to now is       33.9 secs

     total energy              =     -95.10560479 Ry
     Harris-Foulkes estimate   =     -95.10560529 Ry
     estimated scf accuracy    <       0.00000088 Ry

     iteration #  7     ecut=    40.00 Ry     beta=0.70
     Davidson diagonalization with overlap
     ethr =  9.77E-09,  avg # of iterations =  2.0

     total cpu time spent up to now is       35.4 secs

     total energy              =     -95.10560488 Ry
     Harris-Foulkes estimate   =     -95.10560491 Ry
     estimated scf accuracy    <       0.00000005 Ry

     iteration #  8     ecut=    40.00 Ry     beta=0.70
     Davidson diagonalization with overlap
     ethr =  5.11E-10,  avg # of iterations =  2.0

     total cpu time spent up to now is       37.0 secs

     total energy              =     -95.10560489 Ry
     Harris-Foulkes estimate   =     -95.10560489 Ry
     estimated scf accuracy    <          1.6E-09 Ry

     iteration #  9     ecut=    40.00 Ry     beta=0.70
     Davidson diagonalization with overlap
     ethr =  1.75E-11,  avg # of iterations =  2.0

     total cpu time spent up to now is       38.6 secs

     End of self-consistent calculation

     Number of k-points >= 100: set verbosity='high' to print the bands.

     the Fermi energy is     2.1275 ev

!    total energy              =     -95.10560489 Ry
     Harris-Foulkes estimate   =     -95.10560489 Ry
     estimated scf accuracy    <          6.1E-11 Ry

     The total energy is the sum of the following terms:

     one-electron contribution =     -85.53606212 Ry
     hartree contribution      =      43.33069341 Ry
     xc contribution           =     -14.28412396 Ry
     ewald contribution        =     -38.61601381 Ry
     smearing contrib. (-TS)   =      -0.00009841 Ry

     convergence has been achieved in   9 iterations

     Forces acting on atoms (cartesian axes, Ry/au):

     atom    1 type  1   force =     0.00000000    0.00000000    0.00000000

     Total force =     0.000000     Total SCF correction =     0.000000


     Computing stress (Cartesian axis) and pressure

          total   stress  (Ry/bohr**3)                   (kbar)     P=    7.95
   0.00005405  -0.00000000   0.00000000          7.95     -0.00      0.00
  -0.00000000   0.00005405  -0.00000000         -0.00      7.95     -0.00
   0.00000000  -0.00000000   0.00005405          0.00     -0.00      7.95


     number of scf cycles    =   3
     number of bfgs steps    =   2

     enthalpy old            =     -95.0904812272 Ry
     enthalpy new            =     -95.0904858251 Ry

     CASE: enthalpy_new < enthalpy_old

     new trust radius        =       0.0021734218 bohr
     new conv_thr            =            1.0E-10 Ry

     new unit-cell volume =    221.92322 a.u.^3 (    32.88563 Ang^3 )
     density =      1.16087 g/cm^3

CELL_PARAMETERS (alat=  7.64057434)
   0.499177400   0.499177400   0.499177400
  -0.499177400   0.499177400   0.499177400
  -0.499177400  -0.499177400   0.499177400

ATOMIC_POSITIONS (crystal)
Na       0.000000000   0.000000000   0.000000000



     Writing output data file na.bcc.save
     NEW-OLD atomic charge density approx. for the potential
     extrapolated charge    8.98031, renormalised to    9.00000

     total cpu time spent up to now is       39.8 secs

     per-process dynamical memory:    28.1 Mb

     Self-consistent Calculation

     iteration #  1     ecut=    40.00 Ry     beta=0.70
     Davidson diagonalization with overlap
     ethr =  1.00E-06,  avg # of iterations =  2.0

     total cpu time spent up to now is       41.6 secs

     total energy              =     -95.10532627 Ry
     Harris-Foulkes estimate   =     -95.25442655 Ry
     estimated scf accuracy    <       0.00014091 Ry

     iteration #  2     ecut=    40.00 Ry     beta=0.70
     Davidson diagonalization with overlap
     ethr =  1.57E-06,  avg # of iterations =  2.9

     total cpu time spent up to now is       43.6 secs

     total energy              =     -95.10558243 Ry
     Harris-Foulkes estimate   =     -95.10568597 Ry
     estimated scf accuracy    <       0.00023581 Ry

     iteration #  3     ecut=    40.00 Ry     beta=0.70
     Davidson diagonalization with overlap
     ethr =  1.57E-06,  avg # of iterations =  1.7

     total cpu time spent up to now is       45.0 secs

     total energy              =     -95.10558340 Ry
     Harris-Foulkes estimate   =     -95.10559807 Ry
     estimated scf accuracy    <       0.00004545 Ry

     iteration #  4     ecut=    40.00 Ry     beta=0.70
     Davidson diagonalization with overlap
     ethr =  5.05E-07,  avg # of iterations =  1.0

     total cpu time spent up to now is       46.3 secs

     total energy              =     -95.10557956 Ry
     Harris-Foulkes estimate   =     -95.10558527 Ry
     estimated scf accuracy    <       0.00001602 Ry

     iteration #  5     ecut=    40.00 Ry     beta=0.70
     Davidson diagonalization with overlap
     ethr =  1.78E-07,  avg # of iterations =  1.0

     total cpu time spent up to now is       47.6 secs

     total energy              =     -95.10557867 Ry
     Harris-Foulkes estimate   =     -95.10558026 Ry
     estimated scf accuracy    <       0.00000502 Ry

     iteration #  6     ecut=    40.00 Ry     beta=0.70
     Davidson diagonalization with overlap
     ethr =  5.58E-08,  avg # of iterations =  1.0

     total cpu time spent up to now is       48.9 secs

     total energy              =     -95.10557806 Ry
     Harris-Foulkes estimate   =     -95.10557884 Ry
     estimated scf accuracy    <       0.00000191 Ry

     iteration #  7     ecut=    40.00 Ry     beta=0.70
     Davidson diagonalization with overlap
     ethr =  2.12E-08,  avg # of iterations =  1.0

     total cpu time spent up to now is       50.2 secs

     total energy              =     -95.10557786 Ry
     Harris-Foulkes estimate   =     -95.10557816 Ry
     estimated scf accuracy    <       0.00000046 Ry

     iteration #  8     ecut=    40.00 Ry     beta=0.70
     Davidson diagonalization with overlap
     ethr =  5.17E-09,  avg # of iterations =  2.0

     total cpu time spent up to now is       51.7 secs

     total energy              =     -95.10557795 Ry
     Harris-Foulkes estimate   =     -95.10557795 Ry
     estimated scf accuracy    <          4.1E-09 Ry

     iteration #  9     ecut=    40.00 Ry     beta=0.70
     Davidson diagonalization with overlap
     ethr =  4.57E-11,  avg # of iterations =  1.7

     total cpu time spent up to now is       53.1 secs

     total energy              =     -95.10557795 Ry
     Harris-Foulkes estimate   =     -95.10557795 Ry
     estimated scf accuracy    <          1.0E-09 Ry

     iteration # 10     ecut=    40.00 Ry     beta=0.70
     Davidson diagonalization with overlap
     ethr =  1.15E-11,  avg # of iterations =  1.0

     total cpu time spent up to now is       54.4 secs

     total energy              =     -95.10557795 Ry
     Harris-Foulkes estimate   =     -95.10557795 Ry
     estimated scf accuracy    <          3.1E-10 Ry

     iteration # 11     ecut=    40.00 Ry     beta=0.70
     Davidson diagonalization with overlap
     ethr =  3.39E-12,  avg # of iterations =  2.0

     total cpu time spent up to now is       55.9 secs

     End of self-consistent calculation

     Number of k-points >= 100: set verbosity='high' to print the bands.

     the Fermi energy is     2.1378 ev

!    total energy              =     -95.10557795 Ry
     Harris-Foulkes estimate   =     -95.10557795 Ry
     estimated scf accuracy    <          1.6E-11 Ry

     The total energy is the sum of the following terms:

     one-electron contribution =     -85.48683398 Ry
     hartree contribution      =      43.30996253 Ry
     xc contribution           =     -14.28443489 Ry
     ewald contribution        =     -38.64417310 Ry
     smearing contrib. (-TS)   =      -0.00009851 Ry

     convergence has been achieved in  11 iterations

     Forces acting on atoms (cartesian axes, Ry/au):

     atom    1 type  1   force =     0.00000000    0.00000000    0.00000000

     Total force =     0.000000     Total SCF correction =     0.000000


     Computing stress (Cartesian axis) and pressure

          total   stress  (Ry/bohr**3)                   (kbar)     P=    8.28
   0.00005628  -0.00000000  -0.00000000          8.28     -0.00     -0.00
   0.00000000   0.00005628   0.00000000          0.00      8.28      0.00
  -0.00000000   0.00000000   0.00005628         -0.00      0.00      8.28


     number of scf cycles    =   4
     number of bfgs steps    =   3

     enthalpy old            =     -95.0904858251 Ry
     enthalpy new            =     -95.0904919125 Ry

     CASE: enthalpy_new < enthalpy_old

     new trust radius        =       0.0032589446 bohr
     new conv_thr            =            1.0E-10 Ry

     new unit-cell volume =    221.19579 a.u.^3 (    32.77783 Ang^3 )
     density =      1.16468 g/cm^3

CELL_PARAMETERS (alat=  7.64057434)
   0.498631390   0.498631390   0.498631390
  -0.498631390   0.498631390   0.498631390
  -0.498631390  -0.498631390   0.498631390

ATOMIC_POSITIONS (crystal)
Na       0.000000000   0.000000000   0.000000000



     Writing output data file na.bcc.save
     NEW-OLD atomic charge density approx. for the potential
     extrapolated charge    8.97042, renormalised to    9.00000

     total cpu time spent up to now is       57.2 secs

     per-process dynamical memory:    28.1 Mb

     Self-consistent Calculation

     iteration #  1     ecut=    40.00 Ry     beta=0.70
     Davidson diagonalization with overlap
     ethr =  1.00E-06,  avg # of iterations =  2.0

     total cpu time spent up to now is       59.0 secs

     total energy              =     -95.10497030 Ry
     Harris-Foulkes estimate   =     -95.32888868 Ry
     estimated scf accuracy    <       0.00031658 Ry

     iteration #  2     ecut=    40.00 Ry     beta=0.70
     Davidson diagonalization with overlap
     ethr =  3.52E-06,  avg # of iterations =  2.9

     total cpu time spent up to now is       61.0 secs

     total energy              =     -95.10554570 Ry
     Harris-Foulkes estimate   =     -95.10577839 Ry
     estimated scf accuracy    <       0.00052999 Ry

     iteration #  3     ecut=    40.00 Ry     beta=0.70
     Davidson diagonalization with overlap
     ethr =  3.52E-06,  avg # of iterations =  1.8

     total cpu time spent up to now is       62.4 secs

     total energy              =     -95.10554772 Ry
     Harris-Foulkes estimate   =     -95.10558094 Ry
     estimated scf accuracy    <       0.00010187 Ry

     iteration #  4     ecut=    40.00 Ry     beta=0.70
     Davidson diagonalization with overlap
     ethr =  1.13E-06,  avg # of iterations =  1.0

     total cpu time spent up to now is       63.7 secs

     total energy              =     -95.10553917 Ry
     Harris-Foulkes estimate   =     -95.10555196 Ry
     estimated scf accuracy    <       0.00003539 Ry

     iteration #  5     ecut=    40.00 Ry     beta=0.70
     Davidson diagonalization with overlap
     ethr =  3.93E-07,  avg # of iterations =  1.0

     total cpu time spent up to now is       65.0 secs

     total energy              =     -95.10553751 Ry
     Harris-Foulkes estimate   =     -95.10554077 Ry
     estimated scf accuracy    <       0.00001079 Ry

     iteration #  6     ecut=    40.00 Ry     beta=0.70
     Davidson diagonalization with overlap
     ethr =  1.20E-07,  avg # of iterations =  1.0

     total cpu time spent up to now is       66.3 secs

     total energy              =     -95.10553629 Ry
     Harris-Foulkes estimate   =     -95.10553786 Ry
     estimated scf accuracy    <       0.00000438 Ry

     iteration #  7     ecut=    40.00 Ry     beta=0.70
     Davidson diagonalization with overlap
     ethr =  4.87E-08,  avg # of iterations =  1.0

     total cpu time spent up to now is       67.6 secs

     total energy              =     -95.10553555 Ry
     Harris-Foulkes estimate   =     -95.10553645 Ry
     estimated scf accuracy    <       0.00000141 Ry

     iteration #  8     ecut=    40.00 Ry     beta=0.70
     Davidson diagonalization with overlap
     ethr =  1.57E-08,  avg # of iterations =  2.0

     total cpu time spent up to now is       69.1 secs

     total energy              =     -95.10553581 Ry
     Harris-Foulkes estimate   =     -95.10553581 Ry
     estimated scf accuracy    <          9.2E-09 Ry

     iteration #  9     ecut=    40.00 Ry     beta=0.70
     Davidson diagonalization with overlap
     ethr =  1.03E-10,  avg # of iterations =  1.7

     total cpu time spent up to now is       70.5 secs

     total energy              =     -95.10553581 Ry
     Harris-Foulkes estimate   =     -95.10553581 Ry
     estimated scf accuracy    <          3.0E-09 Ry

     iteration # 10     ecut=    40.00 Ry     beta=0.70
     Davidson diagonalization with overlap
     ethr =  3.29E-11,  avg # of iterations =  1.0

     total cpu time spent up to now is       71.8 secs

     total energy              =     -95.10553581 Ry
     Harris-Foulkes estimate   =     -95.10553581 Ry
     estimated scf accuracy    <          8.1E-10 Ry

     iteration # 11     ecut=    40.00 Ry     beta=0.70
     Davidson diagonalization with overlap
     ethr =  8.98E-12,  avg # of iterations =  1.8

     total cpu time spent up to now is       73.2 secs

     End of self-consistent calculation

     Number of k-points >= 100: set verbosity='high' to print the bands.

     the Fermi energy is     2.1534 ev

!    total energy              =     -95.10553581 Ry
     Harris-Foulkes estimate   =     -95.10553581 Ry
     estimated scf accuracy    <          7.2E-11 Ry

     The total energy is the sum of the following terms:

     one-electron contribution =     -85.41282279 Ry
     hartree contribution      =      43.27876804 Ry
     xc contribution           =     -14.28489327 Ry
     ewald contribution        =     -38.68648913 Ry
     smearing contrib. (-TS)   =      -0.00009866 Ry

     convergence has been achieved in  11 iterations

     Forces acting on atoms (cartesian axes, Ry/au):

     atom    1 type  1   force =     0.00000000    0.00000000    0.00000000

     Total force =     0.000000     Total SCF correction =     0.000000


     Computing stress (Cartesian axis) and pressure

          total   stress  (Ry/bohr**3)                   (kbar)     P=    8.70
   0.00005913   0.00000000  -0.00000000          8.70      0.00     -0.00
   0.00000000   0.00005913   0.00000000          0.00      8.70      0.00
  -0.00000000   0.00000000   0.00005913         -0.00      0.00      8.70


     number of scf cycles    =   5
     number of bfgs steps    =   4

     enthalpy old            =     -95.0904919125 Ry
     enthalpy new            =     -95.0904992200 Ry

     CASE: enthalpy_new < enthalpy_old

     new trust radius        =       0.0048857427 bohr
     new conv_thr            =            1.0E-10 Ry

     new unit-cell volume =    220.10762 a.u.^3 (    32.61658 Ang^3 )
     density =      1.17044 g/cm^3

CELL_PARAMETERS (alat=  7.64057434)
   0.497812375   0.497812375   0.497812375
  -0.497812375   0.497812375   0.497812375
  -0.497812375  -0.497812375   0.497812375

ATOMIC_POSITIONS (crystal)
Na       0.000000000   0.000000000   0.000000000



     Writing output data file na.bcc.save
     NEW-OLD atomic charge density approx. for the potential
     extrapolated charge    8.95554, renormalised to    9.00000

     total cpu time spent up to now is       74.5 secs

     per-process dynamical memory:    28.1 Mb

     Self-consistent Calculation

     iteration #  1     ecut=    40.00 Ry     beta=0.70
     Davidson diagonalization with overlap
     ethr =  1.00E-06,  avg # of iterations =  2.2

     total cpu time spent up to now is       76.3 secs

     total energy              =     -95.10419814 Ry
     Harris-Foulkes estimate   =     -95.44067633 Ry
     estimated scf accuracy    <       0.00071161 Ry

     iteration #  2     ecut=    40.00 Ry     beta=0.70
     Davidson diagonalization with overlap
     ethr =  7.91E-06,  avg # of iterations =  2.9

     total cpu time spent up to now is       78.3 secs

     total energy              =     -95.10549017 Ry
     Harris-Foulkes estimate   =     -95.10601306 Ry
     estimated scf accuracy    <       0.00119087 Ry

     iteration #  3     ecut=    40.00 Ry     beta=0.70
     Davidson diagonalization with overlap
     ethr =  7.91E-06,  avg # of iterations =  1.8

     total cpu time spent up to now is       79.7 secs

     total energy              =     -95.10549507 Ry
     Harris-Foulkes estimate   =     -95.10556965 Ry
     estimated scf accuracy    <       0.00022803 Ry

     iteration #  4     ecut=    40.00 Ry     beta=0.70
     Davidson diagonalization with overlap
     ethr =  2.53E-06,  avg # of iterations =  1.0

     total cpu time spent up to now is       81.0 secs

     total energy              =     -95.10547601 Ry
     Harris-Foulkes estimate   =     -95.10550461 Ry
     estimated scf accuracy    <       0.00007885 Ry

     iteration #  5     ecut=    40.00 Ry     beta=0.70
     Davidson diagonalization with overlap
     ethr =  8.76E-07,  avg # of iterations =  1.0

     total cpu time spent up to now is       82.3 secs

     total energy              =     -95.10547264 Ry
     Harris-Foulkes estimate   =     -95.10547962 Ry
     estimated scf accuracy    <       0.00002386 Ry

     iteration #  6     ecut=    40.00 Ry     beta=0.70
     Davidson diagonalization with overlap
     ethr =  2.65E-07,  avg # of iterations =  1.0

     total cpu time spent up to now is       83.6 secs

     total energy              =     -95.10547106 Ry
     Harris-Foulkes estimate   =     -95.10547336 Ry
     estimated scf accuracy    <       0.00001005 Ry

     iteration #  7     ecut=    40.00 Ry     beta=0.70
     Davidson diagonalization with overlap
     ethr =  1.12E-07,  avg # of iterations =  1.0

     total cpu time spent up to now is       84.9 secs

     total energy              =     -95.10546765 Ry
     Harris-Foulkes estimate   =     -95.10547121 Ry
     estimated scf accuracy    <       0.00000547 Ry

     iteration #  8     ecut=    40.00 Ry     beta=0.70
     Davidson diagonalization with overlap
     ethr =  6.07E-08,  avg # of iterations =  2.0

     total cpu time spent up to now is       86.4 secs

     total energy              =     -95.10546866 Ry
     Harris-Foulkes estimate   =     -95.10546867 Ry
     estimated scf accuracy    <       0.00000002 Ry

     iteration #  9     ecut=    40.00 Ry     beta=0.70
     Davidson diagonalization with overlap
     ethr =  2.24E-10,  avg # of iterations =  1.4

     total cpu time spent up to now is       87.8 secs

     total energy              =     -95.10546867 Ry
     Harris-Foulkes estimate   =     -95.10546866 Ry
     estimated scf accuracy    <       0.00000001 Ry

     iteration # 10     ecut=    40.00 Ry     beta=0.70
     Davidson diagonalization with overlap
     ethr =  1.43E-10,  avg # of iterations =  1.0

     total cpu time spent up to now is       89.1 secs

     total energy              =     -95.10546865 Ry
     Harris-Foulkes estimate   =     -95.10546867 Ry
     estimated scf accuracy    <       0.00000002 Ry

     iteration # 11     ecut=    40.00 Ry     beta=0.70
     Davidson diagonalization with overlap
     ethr =  1.43E-10,  avg # of iterations =  2.0

     total cpu time spent up to now is       90.7 secs

     total energy              =     -95.10546866 Ry
     Harris-Foulkes estimate   =     -95.10546866 Ry
     estimated scf accuracy    <          8.1E-10 Ry

     iteration # 12     ecut=    40.00 Ry     beta=0.70
     Davidson diagonalization with overlap
     ethr =  8.99E-12,  avg # of iterations =  1.6

     total cpu time spent up to now is       92.0 secs

     End of self-consistent calculation

     Number of k-points >= 100: set verbosity='high' to print the bands.

     the Fermi energy is     2.1769 ev

!    total energy              =     -95.10546866 Ry
     Harris-Foulkes estimate   =     -95.10546866 Ry
     estimated scf accuracy    <          1.5E-11 Ry

     The total energy is the sum of the following terms:

     one-electron contribution =     -85.30158142 Ry
     hartree contribution      =      43.23194732 Ry
     xc contribution           =     -14.28559844 Ry
     ewald contribution        =     -38.75013723 Ry
     smearing contrib. (-TS)   =      -0.00009889 Ry

     convergence has been achieved in  12 iterations

     Forces acting on atoms (cartesian axes, Ry/au):

     atom    1 type  1   force =     0.00000000    0.00000000    0.00000000

     Total force =     0.000000     Total SCF correction =     0.000000


     Computing stress (Cartesian axis) and pressure

          total   stress  (Ry/bohr**3)                   (kbar)     P=    9.45
   0.00006422  -0.00000000   0.00000000          9.45     -0.00      0.00
  -0.00000000   0.00006422  -0.00000000         -0.00      9.45     -0.00
   0.00000000  -0.00000000   0.00006422          0.00     -0.00      9.45


     number of scf cycles    =   6
     number of bfgs steps    =   5

     enthalpy old            =     -95.0904992200 Ry
     enthalpy new            =     -95.0905060432 Ry

     CASE: enthalpy_new < enthalpy_old

     new trust radius        =       0.0035862239 bohr
     new conv_thr            =            1.0E-10 Ry

     new unit-cell volume =    219.31050 a.u.^3 (    32.49846 Ang^3 )
     density =      1.17470 g/cm^3

CELL_PARAMETERS (alat=  7.64057434)
   0.497210709   0.497210709   0.497210709
  -0.497210709   0.497210709   0.497210709
  -0.497210709  -0.497210709   0.497210709

ATOMIC_POSITIONS (crystal)
Na       0.000000000   0.000000000   0.000000000



     Writing output data file na.bcc.save
     NEW-OLD atomic charge density approx. for the potential
     extrapolated charge    8.96731, renormalised to    9.00000

     total cpu time spent up to now is       93.3 secs

     per-process dynamical memory:    28.1 Mb

     Self-consistent Calculation

     iteration #  1     ecut=    40.00 Ry     beta=0.70
     Davidson diagonalization with overlap
     ethr =  1.00E-06,  avg # of iterations =  2.0

     total cpu time spent up to now is       95.1 secs

     total energy              =     -95.10472708 Ry
     Harris-Foulkes estimate   =     -95.35165758 Ry
     estimated scf accuracy    <       0.00038576 Ry

     iteration #  2     ecut=    40.00 Ry     beta=0.70
     Davidson diagonalization with overlap
     ethr =  4.29E-06,  avg # of iterations =  2.9

     total cpu time spent up to now is       97.1 secs

     total energy              =     -95.10542830 Ry
     Harris-Foulkes estimate   =     -95.10571193 Ry
     estimated scf accuracy    <       0.00064609 Ry

     iteration #  3     ecut=    40.00 Ry     beta=0.70
     Davidson diagonalization with overlap
     ethr =  4.29E-06,  avg # of iterations =  1.8

     total cpu time spent up to now is       98.5 secs

     total energy              =     -95.10543097 Ry
     Harris-Foulkes estimate   =     -95.10547128 Ry
     estimated scf accuracy    <       0.00012414 Ry

     iteration #  4     ecut=    40.00 Ry     beta=0.70
     Davidson diagonalization with overlap
     ethr =  1.38E-06,  avg # of iterations =  1.0

     total cpu time spent up to now is       99.8 secs

     total energy              =     -95.10542051 Ry
     Harris-Foulkes estimate   =     -95.10543610 Ry
     estimated scf accuracy    <       0.00004339 Ry

     iteration #  5     ecut=    40.00 Ry     beta=0.70
     Davidson diagonalization with overlap
     ethr =  4.82E-07,  avg # of iterations =  1.0

     total cpu time spent up to now is      101.1 secs

     total energy              =     -95.10541839 Ry
     Harris-Foulkes estimate   =     -95.10542245 Ry
     estimated scf accuracy    <       0.00001339 Ry

     iteration #  6     ecut=    40.00 Ry     beta=0.70
     Davidson diagonalization with overlap
     ethr =  1.49E-07,  avg # of iterations =  1.0

     total cpu time spent up to now is      102.4 secs

     total energy              =     -95.10541664 Ry
     Harris-Foulkes estimate   =     -95.10541882 Ry
     estimated scf accuracy    <       0.00000540 Ry

     iteration #  7     ecut=    40.00 Ry     beta=0.70
     Davidson diagonalization with overlap
     ethr =  6.00E-08,  avg # of iterations =  1.0

     total cpu time spent up to now is      103.7 secs

     total energy              =     -95.10541604 Ry
     Harris-Foulkes estimate   =     -95.10541691 Ry
     estimated scf accuracy    <       0.00000138 Ry

     iteration #  8     ecut=    40.00 Ry     beta=0.70
     Davidson diagonalization with overlap
     ethr =  1.53E-08,  avg # of iterations =  2.0

     total cpu time spent up to now is      105.2 secs

     total energy              =     -95.10541629 Ry
     Harris-Foulkes estimate   =     -95.10541630 Ry
     estimated scf accuracy    <       0.00000001 Ry

     iteration #  9     ecut=    40.00 Ry     beta=0.70
     Davidson diagonalization with overlap
     ethr =  1.37E-10,  avg # of iterations =  1.7

     total cpu time spent up to now is      106.6 secs

     total energy              =     -95.10541629 Ry
     Harris-Foulkes estimate   =     -95.10541629 Ry
     estimated scf accuracy    <          5.2E-09 Ry

     iteration # 10     ecut=    40.00 Ry     beta=0.70
     Davidson diagonalization with overlap
     ethr =  5.77E-11,  avg # of iterations =  1.0

     total cpu time spent up to now is      107.9 secs

     total energy              =     -95.10541629 Ry
     Harris-Foulkes estimate   =     -95.10541629 Ry
     estimated scf accuracy    <          1.4E-09 Ry

     iteration # 11     ecut=    40.00 Ry     beta=0.70
     Davidson diagonalization with overlap
     ethr =  1.50E-11,  avg # of iterations =  2.0

     total cpu time spent up to now is      109.4 secs

     End of self-consistent calculation

     Number of k-points >= 100: set verbosity='high' to print the bands.

     the Fermi energy is     2.1943 ev

!    total energy              =     -95.10541629 Ry
     Harris-Foulkes estimate   =     -95.10541629 Ry
     estimated scf accuracy    <          7.1E-11 Ry

     The total energy is the sum of the following terms:

     one-electron contribution =     -85.21956410 Ry
     hartree contribution      =      43.19737646 Ry
     xc contribution           =     -14.28610150 Ry
     ewald contribution        =     -38.79702811 Ry
     smearing contrib. (-TS)   =      -0.00009905 Ry

     convergence has been achieved in  11 iterations

     Forces acting on atoms (cartesian axes, Ry/au):

     atom    1 type  1   force =     0.00000000    0.00000000    0.00000000

     Total force =     0.000000     Total SCF correction =     0.000000


     Computing stress (Cartesian axis) and pressure

          total   stress  (Ry/bohr**3)                   (kbar)     P=    9.87
   0.00006709  -0.00000000  -0.00000000          9.87     -0.00     -0.00
  -0.00000000   0.00006709   0.00000000         -0.00      9.87      0.00
  -0.00000000   0.00000000   0.00006709         -0.00      0.00      9.87


     bfgs converged in   7 scf cycles and   6 bfgs steps
     (criteria: energy <  1.0E-04 Ry, force <  1.0E-03Ry/Bohr, cell <  5.0E-01kbar)

     End of BFGS Geometry Optimization

     Final enthalpy =     -95.0905078625 Ry
Begin final coordinates
     new unit-cell volume =    219.31050 a.u.^3 (    32.49846 Ang^3 )
     density =      1.17470 g/cm^3

CELL_PARAMETERS (alat=  7.64057434)
   0.497210709   0.497210709   0.497210709
  -0.497210709   0.497210709   0.497210709
  -0.497210709  -0.497210709   0.497210709

ATOMIC_POSITIONS (crystal)
Na       0.000000000   0.000000000   0.000000000
End final coordinates



     A final scf calculation at the relaxed structure.
     The G-vectors are recalculated for the final unit cell
     Results may differ from those at the preceding step.

     Parallelization info
     --------------------
     sticks:   dense  smooth     PW     G-vecs:    dense   smooth      PW
     Min         258     130     42                 5274     1854     352
     Max         260     131     43                 5275     1855     353
     Sum        1035     523    169                21097     7419    1409



     bravais-lattice index     =            3
     lattice parameter (alat)  =       7.6406  a.u.
     unit-cell volume          =     219.3105 (a.u.)^3
     number of atoms/cell      =            1
     number of atomic types    =            1
     number of electrons       =         9.00
     number of Kohn-Sham states=            9
     kinetic-energy cutoff     =      40.0000  Ry
     charge density cutoff     =     320.0000  Ry
     convergence threshold     =      1.0E-10
     mixing beta               =       0.7000
     number of iterations used =            8  plain     mixing
     Exchange-correlation      = SLA  PW   PBE  PBE ( 1  4  3  4 0 0)

     celldm(1)=   7.640574  celldm(2)=   0.000000  celldm(3)=   0.000000
     celldm(4)=   0.000000  celldm(5)=   0.000000  celldm(6)=   0.000000

     crystal axes: (cart. coord. in units of alat)
               a(1) = (   0.497211   0.497211   0.497211 )  
               a(2) = (  -0.497211   0.497211   0.497211 )  
               a(3) = (  -0.497211  -0.497211   0.497211 )  

     reciprocal axes: (cart. coord. in units 2 pi/alat)
               b(1) = (  1.005610  0.000000  1.005610 )  
               b(2) = ( -1.005610  1.005610 -0.000000 )  
               b(3) = ( -0.000000 -1.005610  1.005610 )  


     PseudoPot. # 1 for Na read from file:
     /home/s1333534/quantum_espresso/qe-6.1/pseudo/Na_pbe_v1.uspp.F.UPF
     MD5 check sum: 76a99c7e9422403d3e93cbc85ab7bccb
     Pseudo is Ultrasoft, Zval =  9.0
     Generated by new atomic code, or converted to UPF format
     Using radial grid of  819 points,  5 beta functions with: 
                l(1) =   0
                l(2) =   0
                l(3) =   1
                l(4) =   1
                l(5) =   2
     Q(r) pseudized with  8 coefficients,  rinner =    1.250   1.250   1.250
                                                       1.250   1.250

     atomic species   valence    mass     pseudopotential
        Na             9.00    22.99000     Na( 1.00)

     48 Sym. Ops., with inversion, found



   Cartesian axes

     site n.     atom                  positions (alat units)
         1           Na  tau(   1) = (   0.0000000   0.0000000   0.0000000  )

     number of k points=   250  Marzari-Vanderbilt smearing, width (Ry)=  0.0200

     Number of k-points >= 100: set verbosity='high' to print them.

     Dense  grid:    21097 G-vectors     FFT dimensions: (  40,  40,  40)

     Smooth grid:     7419 G-vectors     FFT dimensions: (  27,  27,  27)

     Estimated max dynamical RAM per process >      11.60MB

     Estimated total allocated dynamical RAM >      46.38MB

     Initial potential from superposition of free atoms

     starting charge    8.99371, renormalised to    9.00000
     Starting wfc are    5 randomized atomic wfcs +    4 random wfc

     Writing output data file na.bcc.save

     total cpu time spent up to now is      111.2 secs

     per-process dynamical memory:    23.2 Mb

     Self-consistent Calculation

     iteration #  1     ecut=    40.00 Ry     beta=0.70
     Davidson diagonalization with overlap
     c_bands:  1 eigenvalues not converged
     ethr =  1.00E-06,  avg # of iterations = 11.7

     total cpu time spent up to now is      115.6 secs

     total energy              =     -95.10520974 Ry
     Harris-Foulkes estimate   =     -95.10550221 Ry
     estimated scf accuracy    <       0.00095148 Ry

     iteration #  2     ecut=    40.00 Ry     beta=0.70
     Davidson diagonalization with overlap
     ethr =  1.06E-05,  avg # of iterations =  2.0

     total cpu time spent up to now is      117.1 secs

     total energy              =     -95.10532706 Ry
     Harris-Foulkes estimate   =     -95.10535449 Ry
     estimated scf accuracy    <       0.00010859 Ry

     iteration #  3     ecut=    40.00 Ry     beta=0.70
     Davidson diagonalization with overlap
     ethr =  1.21E-06,  avg # of iterations =  2.0

     total cpu time spent up to now is      118.6 secs

     total energy              =     -95.10533897 Ry
     Harris-Foulkes estimate   =     -95.10534034 Ry
     estimated scf accuracy    <       0.00000680 Ry

     iteration #  4     ecut=    40.00 Ry     beta=0.70
     Davidson diagonalization with overlap
     ethr =  7.55E-08,  avg # of iterations =  1.0

     total cpu time spent up to now is      119.9 secs

     total energy              =     -95.10533957 Ry
     Harris-Foulkes estimate   =     -95.10533953 Ry
     estimated scf accuracy    <          8.8E-09 Ry

     iteration #  5     ecut=    40.00 Ry     beta=0.70
     Davidson diagonalization with overlap
     ethr =  9.83E-11,  avg # of iterations =  3.0

     total cpu time spent up to now is      121.7 secs

     total energy              =     -95.10533960 Ry
     Harris-Foulkes estimate   =     -95.10533960 Ry
     estimated scf accuracy    <          1.3E-09 Ry

     iteration #  6     ecut=    40.00 Ry     beta=0.70
     Davidson diagonalization with overlap
     ethr =  1.49E-11,  avg # of iterations =  1.6

     total cpu time spent up to now is      123.1 secs

     End of self-consistent calculation

     Number of k-points >= 100: set verbosity='high' to print the bands.

     the Fermi energy is     2.1942 ev

!    total energy              =     -95.10533960 Ry
     Harris-Foulkes estimate   =     -95.10533960 Ry
     estimated scf accuracy    <          9.5E-11 Ry

     The total energy is the sum of the following terms:

     one-electron contribution =     -85.21949679 Ry
     hartree contribution      =      43.19736793 Ry
     xc contribution           =     -14.28608359 Ry
     ewald contribution        =     -38.79702811 Ry
     smearing contrib. (-TS)   =      -0.00009905 Ry

     convergence has been achieved in   6 iterations

     Forces acting on atoms (cartesian axes, Ry/au):

     atom    1 type  1   force =     0.00000000    0.00000000    0.00000000

     Total force =     0.000000     Total SCF correction =     0.000000


     Computing stress (Cartesian axis) and pressure

          total   stress  (Ry/bohr**3)                   (kbar)     P=    9.64
   0.00006556  -0.00000000  -0.00000000          9.64     -0.00     -0.00
  -0.00000000   0.00006556   0.00000000         -0.00      9.64      0.00
  -0.00000000   0.00000000   0.00006556         -0.00      0.00      9.64


     Writing output data file na.bcc.save

     init_run     :      1.63s CPU      1.69s WALL (       2 calls)
     electrons    :    106.99s CPU    112.68s WALL (       8 calls)
     update_pot   :      1.22s CPU      1.23s WALL (       6 calls)
     forces       :      1.07s CPU      1.08s WALL (       8 calls)
     stress       :      5.11s CPU      5.13s WALL (       8 calls)

     Called by init_run:
     wfcinit      :      0.98s CPU      1.03s WALL (       2 calls)
     potinit      :      0.09s CPU      0.09s WALL (       2 calls)

     Called by electrons:
     c_bands      :     86.25s CPU     91.03s WALL (      73 calls)
     sum_band     :     18.82s CPU     19.67s WALL (      73 calls)
     v_of_rho     :      0.93s CPU      0.95s WALL (      80 calls)
     newd         :      1.02s CPU      1.06s WALL (      80 calls)
     mix_rho      :      0.07s CPU      0.07s WALL (      73 calls)

     Called by c_bands:
     init_us_2    :      4.35s CPU      4.28s WALL (   41000 calls)
     cegterg      :     82.02s CPU     86.77s WALL (   18250 calls)

     Called by sum_band:
     sum_band:bec :      0.05s CPU      0.06s WALL (   18250 calls)
     addusdens    :      1.22s CPU      1.23s WALL (      73 calls)

     Called by *egterg:
     h_psi        :     69.80s CPU     73.87s WALL (   52606 calls)
     s_psi        :      0.97s CPU      0.74s WALL (   52606 calls)
     g_psi        :      0.48s CPU      0.44s WALL (   33856 calls)
     cdiaghg      :      6.47s CPU      6.74s WALL (   50356 calls)

     Called by h_psi:
     h_psi:pot    :     69.60s CPU     73.56s WALL (   52606 calls)
     h_psi:calbec :      1.66s CPU      1.29s WALL (   52606 calls)
     vloc_psi     :     67.41s CPU     71.34s WALL (   52606 calls)
     add_vuspsi   :      0.46s CPU      0.80s WALL (   52606 calls)

     General routines
     calbec       :      2.31s CPU      2.04s WALL (   80856 calls)
     fft          :      0.49s CPU      0.51s WALL (    1322 calls)
     ffts         :      0.02s CPU      0.02s WALL (     153 calls)
     fftw         :     76.35s CPU     76.93s WALL (  950700 calls)
     interpolate  :      0.08s CPU      0.08s WALL (     153 calls)
     davcio       :      0.00s CPU      0.01s WALL (     500 calls)

     Parallel routines
     fft_scatter  :     12.42s CPU     15.25s WALL (  952175 calls)

     PWSCF        :  1m58.05s CPU     2m 3.93s WALL


   This run was terminated on:  16:55:37  20Dec2017            

=------------------------------------------------------------------------------=
   JOB DONE.
=------------------------------------------------------------------------------=
