
     Program PWSCF v.6.1 (svn rev. 13369) starts on 20Dec2017 at 17: 3: 5 

     This program is part of the open-source Quantum ESPRESSO suite
     for quantum simulation of materials; please cite
         "P. Giannozzi et al., J. Phys.:Condens. Matter 21 395502 (2009);
          URL http://www.quantum-espresso.org", 
     in publications or presentations arising from this work. More details at
     http://www.quantum-espresso.org/quote

     Parallel version (MPI), running on     4 processors
     R & G space division:  proc/nbgrp/npool/nimage =       4
     Waiting for input...
     Reading input from standard input

     Current dimensions of program PWSCF are:
     Max number of different atomic species (ntypx) = 10
     Max number of k-points (npk) =  40000
     Max angular momentum in pseudopotentials (lmaxx) =  3

     Subspace diagonalization in iterative solution of the eigenvalue problem:
     a serial algorithm will be used


     Parallelization info
     --------------------
     sticks:   dense  smooth     PW     G-vecs:    dense   smooth      PW
     Min         204     102     32                 3692     1319     239
     Max         205     103     33                 3694     1321     242
     Sum         817     411    129                14771     5281     959



     bravais-lattice index     =            3
     lattice parameter (alat)  =       6.7473  a.u.
     unit-cell volume          =     153.5883 (a.u.)^3
     number of atoms/cell      =            1
     number of atomic types    =            1
     number of electrons       =         9.00
     number of Kohn-Sham states=            9
     kinetic-energy cutoff     =      40.0000  Ry
     charge density cutoff     =     320.0000  Ry
     convergence threshold     =      1.0E-08
     mixing beta               =       0.7000
     number of iterations used =            8  plain     mixing
     Exchange-correlation      = SLA  PW   PBE  PBE ( 1  4  3  4 0 0)
     nstep                     =           50


     celldm(1)=   6.747290  celldm(2)=   0.000000  celldm(3)=   0.000000
     celldm(4)=   0.000000  celldm(5)=   0.000000  celldm(6)=   0.000000

     crystal axes: (cart. coord. in units of alat)
               a(1) = (   0.500000   0.500000   0.500000 )  
               a(2) = (  -0.500000   0.500000   0.500000 )  
               a(3) = (  -0.500000  -0.500000   0.500000 )  

     reciprocal axes: (cart. coord. in units 2 pi/alat)
               b(1) = (  1.000000  0.000000  1.000000 )  
               b(2) = ( -1.000000  1.000000  0.000000 )  
               b(3) = (  0.000000 -1.000000  1.000000 )  


     PseudoPot. # 1 for Na read from file:
     /home/s1333534/quantum_espresso/qe-6.1/pseudo/Na_pbe_v1.uspp.F.UPF
     MD5 check sum: 76a99c7e9422403d3e93cbc85ab7bccb
     Pseudo is Ultrasoft, Zval =  9.0
     Generated by new atomic code, or converted to UPF format
     Using radial grid of  819 points,  5 beta functions with: 
                l(1) =   0
                l(2) =   0
                l(3) =   1
                l(4) =   1
                l(5) =   2
     Q(r) pseudized with  8 coefficients,  rinner =    1.250   1.250   1.250
                                                       1.250   1.250

     atomic species   valence    mass     pseudopotential
        Na             9.00    22.99000     Na( 1.00)

     48 Sym. Ops., with inversion, found



   Cartesian axes

     site n.     atom                  positions (alat units)
         1           Na  tau(   1) = (   0.0000000   0.0000000   0.0000000  )

     number of k points=   250  Marzari-Vanderbilt smearing, width (Ry)=  0.0200

     Number of k-points >= 100: set verbosity='high' to print them.

     Dense  grid:    14771 G-vectors     FFT dimensions: (  36,  36,  36)

     Smooth grid:     5281 G-vectors     FFT dimensions: (  24,  24,  24)

     Estimated max dynamical RAM per process >       8.17MB

     Estimated total allocated dynamical RAM >      32.68MB

     Initial potential from superposition of free atoms

     starting charge    8.99371, renormalised to    9.00000
     Starting wfc are    5 randomized atomic wfcs +    4 random wfc

     total cpu time spent up to now is        0.7 secs

     per-process dynamical memory:    14.5 Mb

     Self-consistent Calculation

     iteration #  1     ecut=    40.00 Ry     beta=0.70
     Davidson diagonalization with overlap
     ethr =  1.00E-02,  avg # of iterations =  5.6

     Threshold (ethr) on eigenvalues was too large:
     Diagonalizing with lowered threshold

     Davidson diagonalization with overlap
     ethr =  1.70E-05,  avg # of iterations =  3.2

     total cpu time spent up to now is        3.2 secs

     total energy              =     -95.08574161 Ry
     Harris-Foulkes estimate   =     -95.08631060 Ry
     estimated scf accuracy    <       0.00152841 Ry

     iteration #  2     ecut=    40.00 Ry     beta=0.70
     Davidson diagonalization with overlap
     ethr =  1.70E-05,  avg # of iterations =  2.0

     total cpu time spent up to now is        4.1 secs

     total energy              =     -95.08594932 Ry
     Harris-Foulkes estimate   =     -95.08599495 Ry
     estimated scf accuracy    <       0.00017519 Ry

     iteration #  3     ecut=    40.00 Ry     beta=0.70
     Davidson diagonalization with overlap
     ethr =  1.95E-06,  avg # of iterations =  2.1

     total cpu time spent up to now is        5.0 secs

     total energy              =     -95.08597118 Ry
     Harris-Foulkes estimate   =     -95.08597234 Ry
     estimated scf accuracy    <       0.00001029 Ry

     iteration #  4     ecut=    40.00 Ry     beta=0.70
     Davidson diagonalization with overlap
     ethr =  1.14E-07,  avg # of iterations =  1.0

     total cpu time spent up to now is        5.8 secs

     total energy              =     -95.08597207 Ry
     Harris-Foulkes estimate   =     -95.08597201 Ry
     estimated scf accuracy    <       0.00000001 Ry

     iteration #  5     ecut=    40.00 Ry     beta=0.70
     Davidson diagonalization with overlap
     ethr =  1.57E-10,  avg # of iterations =  3.0

     total cpu time spent up to now is        6.9 secs

     End of self-consistent calculation

     Number of k-points >= 100: set verbosity='high' to print the bands.

     the Fermi energy is     4.2804 ev

!    total energy              =     -95.08597210 Ry
     Harris-Foulkes estimate   =     -95.08597210 Ry
     estimated scf accuracy    <          1.9E-09 Ry

     The total energy is the sum of the following terms:

     one-electron contribution =     -76.72057124 Ry
     hartree contribution      =      39.66545378 Ry
     xc contribution           =     -14.34240523 Ry
     ewald contribution        =     -43.68834446 Ry
     smearing contrib. (-TS)   =      -0.00010495 Ry

     convergence has been achieved in   5 iterations

     Forces acting on atoms (cartesian axes, Ry/au):

     atom    1 type  1   force =     0.00000000    0.00000000    0.00000000

     Total force =     0.000000     Total SCF correction =     0.000000


     Computing stress (Cartesian axis) and pressure

          total   stress  (Ry/bohr**3)                   (kbar)     P=   88.58
   0.00060213  -0.00000000   0.00000000         88.58     -0.00      0.00
  -0.00000000   0.00060213  -0.00000000         -0.00     88.58     -0.00
   0.00000000  -0.00000000   0.00060213          0.00     -0.00     88.58


     BFGS Geometry Optimization

     number of scf cycles    =   1
     number of bfgs steps    =   0

     enthalpy new            =     -94.9920056212 Ry

     new trust radius        =       0.0005994960 bohr
     new conv_thr            =       0.0000000100 Ry

     new unit-cell volume =    153.47685 a.u.^3 (    22.74292 Ang^3 )
     density =      1.67858 g/cm^3

CELL_PARAMETERS (alat=  6.74728954)
   0.499879066   0.499879066   0.499879066
  -0.499879066   0.499879066   0.499879066
  -0.499879066  -0.499879066   0.499879066

ATOMIC_POSITIONS (crystal)
Na       0.000000000   0.000000000   0.000000000



     Writing output data file na.bcc.save
     NEW-OLD atomic charge density approx. for the potential
     extrapolated charge    8.99347, renormalised to    9.00000

     total cpu time spent up to now is        7.8 secs

     per-process dynamical memory:    21.5 Mb

     Self-consistent Calculation

     iteration #  1     ecut=    40.00 Ry     beta=0.70
     Davidson diagonalization with overlap
     ethr =  1.00E-06,  avg # of iterations =  2.1

     total cpu time spent up to now is        8.9 secs

     total energy              =     -95.08587808 Ry
     Harris-Foulkes estimate   =     -95.12992160 Ry
     estimated scf accuracy    <       0.00001510 Ry

     iteration #  2     ecut=    40.00 Ry     beta=0.70
     Davidson diagonalization with overlap
     ethr =  1.68E-07,  avg # of iterations =  2.9

     total cpu time spent up to now is       10.0 secs

     total energy              =     -95.08590532 Ry
     Harris-Foulkes estimate   =     -95.08591638 Ry
     estimated scf accuracy    <       0.00002518 Ry

     iteration #  3     ecut=    40.00 Ry     beta=0.70
     Davidson diagonalization with overlap
     ethr =  1.68E-07,  avg # of iterations =  1.4

     total cpu time spent up to now is       10.8 secs

     total energy              =     -95.08590580 Ry
     Harris-Foulkes estimate   =     -95.08590697 Ry
     estimated scf accuracy    <       0.00000488 Ry

     iteration #  4     ecut=    40.00 Ry     beta=0.70
     Davidson diagonalization with overlap
     ethr =  5.42E-08,  avg # of iterations =  1.0

     total cpu time spent up to now is       11.5 secs

     total energy              =     -95.08590536 Ry
     Harris-Foulkes estimate   =     -95.08590595 Ry
     estimated scf accuracy    <       0.00000236 Ry

     iteration #  5     ecut=    40.00 Ry     beta=0.70
     Davidson diagonalization with overlap
     ethr =  2.63E-08,  avg # of iterations =  1.0

     total cpu time spent up to now is       12.3 secs

     total energy              =     -95.08590492 Ry
     Harris-Foulkes estimate   =     -95.08590540 Ry
     estimated scf accuracy    <       0.00000120 Ry

     iteration #  6     ecut=    40.00 Ry     beta=0.70
     Davidson diagonalization with overlap
     ethr =  1.34E-08,  avg # of iterations =  1.0

     total cpu time spent up to now is       13.1 secs

     total energy              =     -95.08590483 Ry
     Harris-Foulkes estimate   =     -95.08590498 Ry
     estimated scf accuracy    <       0.00000031 Ry

     iteration #  7     ecut=    40.00 Ry     beta=0.70
     Davidson diagonalization with overlap
     ethr =  3.40E-09,  avg # of iterations =  1.2

     total cpu time spent up to now is       13.8 secs

     total energy              =     -95.08590483 Ry
     Harris-Foulkes estimate   =     -95.08590486 Ry
     estimated scf accuracy    <       0.00000004 Ry

     iteration #  8     ecut=    40.00 Ry     beta=0.70
     Davidson diagonalization with overlap
     ethr =  4.25E-10,  avg # of iterations =  2.0

     total cpu time spent up to now is       14.8 secs

     End of self-consistent calculation

     Number of k-points >= 100: set verbosity='high' to print the bands.

     the Fermi energy is     4.2855 ev

!    total energy              =     -95.08590484 Ry
     Harris-Foulkes estimate   =     -95.08590484 Ry
     estimated scf accuracy    <          6.3E-11 Ry

     The total energy is the sum of the following terms:

     one-electron contribution =     -76.70235621 Ry
     hartree contribution      =      39.65801370 Ry
     xc contribution           =     -14.34254361 Ry
     ewald contribution        =     -43.69891380 Ry
     smearing contrib. (-TS)   =      -0.00010494 Ry

     convergence has been achieved in   8 iterations

     Forces acting on atoms (cartesian axes, Ry/au):

     atom    1 type  1   force =     0.00000000    0.00000000    0.00000000

     Total force =     0.000000     Total SCF correction =     0.000000


     Computing stress (Cartesian axis) and pressure

          total   stress  (Ry/bohr**3)                   (kbar)     P=   88.86
   0.00060406  -0.00000000   0.00000000         88.86     -0.00      0.00
  -0.00000000   0.00060406  -0.00000000         -0.00     88.86     -0.00
   0.00000000  -0.00000000   0.00060406          0.00     -0.00     88.86


     number of scf cycles    =   2
     number of bfgs steps    =   1

     enthalpy old            =     -94.9920056212 Ry
     enthalpy new            =     -94.9920065283 Ry

     CASE: enthalpy_new < enthalpy_old


     WARNING: bfgs curvature condition failed, Theta= 0.999
     new trust radius        =       0.0008991352 bohr
     new conv_thr            =            1.0E-10 Ry

     new unit-cell volume =    153.30983 a.u.^3 (    22.71817 Ang^3 )
     density =      1.68041 g/cm^3

CELL_PARAMETERS (alat=  6.74728954)
   0.499697666   0.499697666   0.499697666
  -0.499697666   0.499697666   0.499697666
  -0.499697666  -0.499697666   0.499697666

ATOMIC_POSITIONS (crystal)
Na       0.000000000   0.000000000   0.000000000



     Writing output data file na.bcc.save
     NEW-OLD atomic charge density approx. for the potential
     extrapolated charge    8.99020, renormalised to    9.00000

     total cpu time spent up to now is       15.7 secs

     per-process dynamical memory:    21.5 Mb

     Self-consistent Calculation

     iteration #  1     ecut=    40.00 Ry     beta=0.70
     Davidson diagonalization with overlap
     ethr =  1.00E-06,  avg # of iterations =  2.0

     total cpu time spent up to now is       16.8 secs

     total energy              =     -95.08574354 Ry
     Harris-Foulkes estimate   =     -95.15183273 Ry
     estimated scf accuracy    <       0.00003380 Ry

     iteration #  2     ecut=    40.00 Ry     beta=0.70
     Davidson diagonalization with overlap
     ethr =  3.76E-07,  avg # of iterations =  2.9

     total cpu time spent up to now is       17.8 secs

     total energy              =     -95.08580469 Ry
     Harris-Foulkes estimate   =     -95.08582953 Ry
     estimated scf accuracy    <       0.00005658 Ry

     iteration #  3     ecut=    40.00 Ry     beta=0.70
     Davidson diagonalization with overlap
     ethr =  3.76E-07,  avg # of iterations =  1.4

     total cpu time spent up to now is       18.7 secs

     total energy              =     -95.08580573 Ry
     Harris-Foulkes estimate   =     -95.08580841 Ry
     estimated scf accuracy    <       0.00001099 Ry

     iteration #  4     ecut=    40.00 Ry     beta=0.70
     Davidson diagonalization with overlap
     ethr =  1.22E-07,  avg # of iterations =  1.0

     total cpu time spent up to now is       19.4 secs

     total energy              =     -95.08580467 Ry
     Harris-Foulkes estimate   =     -95.08580605 Ry
     estimated scf accuracy    <       0.00000523 Ry

     iteration #  5     ecut=    40.00 Ry     beta=0.70
     Davidson diagonalization with overlap
     ethr =  5.81E-08,  avg # of iterations =  1.0

     total cpu time spent up to now is       20.2 secs

     total energy              =     -95.08580374 Ry
     Harris-Foulkes estimate   =     -95.08580477 Ry
     estimated scf accuracy    <       0.00000252 Ry

     iteration #  6     ecut=    40.00 Ry     beta=0.70
     Davidson diagonalization with overlap
     ethr =  2.80E-08,  avg # of iterations =  1.0

     total cpu time spent up to now is       21.0 secs

     total energy              =     -95.08580358 Ry
     Harris-Foulkes estimate   =     -95.08580388 Ry
     estimated scf accuracy    <       0.00000059 Ry

     iteration #  7     ecut=    40.00 Ry     beta=0.70
     Davidson diagonalization with overlap
     ethr =  6.61E-09,  avg # of iterations =  1.4

     total cpu time spent up to now is       21.8 secs

     total energy              =     -95.08580360 Ry
     Harris-Foulkes estimate   =     -95.08580364 Ry
     estimated scf accuracy    <       0.00000006 Ry

     iteration #  8     ecut=    40.00 Ry     beta=0.70
     Davidson diagonalization with overlap
     ethr =  6.95E-10,  avg # of iterations =  2.0

     total cpu time spent up to now is       22.7 secs

     End of self-consistent calculation

     Number of k-points >= 100: set verbosity='high' to print the bands.

     the Fermi energy is     4.2933 ev

!    total energy              =     -95.08580361 Ry
     Harris-Foulkes estimate   =     -95.08580361 Ry
     estimated scf accuracy    <          3.5E-11 Ry

     The total energy is the sum of the following terms:

     one-electron contribution =     -76.67499335 Ry
     hartree contribution      =      39.64681546 Ry
     xc contribution           =     -14.34274341 Ry
     ewald contribution        =     -43.71477740 Ry
     smearing contrib. (-TS)   =      -0.00010492 Ry

     convergence has been achieved in   8 iterations

     Forces acting on atoms (cartesian axes, Ry/au):

     atom    1 type  1   force =     0.00000000    0.00000000    0.00000000

     Total force =     0.000000     Total SCF correction =     0.000000


     Computing stress (Cartesian axis) and pressure

          total   stress  (Ry/bohr**3)                   (kbar)     P=   89.33
   0.00060728   0.00000000  -0.00000000         89.33      0.00     -0.00
   0.00000000   0.00060728   0.00000000          0.00     89.33      0.00
  -0.00000000   0.00000000   0.00060728         -0.00      0.00     89.33


     number of scf cycles    =   3
     number of bfgs steps    =   2

     enthalpy old            =     -94.9920065283 Ry
     enthalpy new            =     -94.9920074859 Ry

     CASE: enthalpy_new < enthalpy_old

     new trust radius        =       0.0012613283 bohr
     new conv_thr            =            1.0E-10 Ry

     new unit-cell volume =    153.07568 a.u.^3 (    22.68348 Ang^3 )
     density =      1.68298 g/cm^3

CELL_PARAMETERS (alat=  6.74728954)
   0.499443147   0.499443147   0.499443147
  -0.499443147   0.499443147   0.499443147
  -0.499443147  -0.499443147   0.499443147

ATOMIC_POSITIONS (crystal)
Na       0.000000000   0.000000000   0.000000000



     Writing output data file na.bcc.save
     NEW-OLD atomic charge density approx. for the potential
     extrapolated charge    8.98624, renormalised to    9.00000

     total cpu time spent up to now is       23.7 secs

     per-process dynamical memory:    21.5 Mb

     Self-consistent Calculation

     iteration #  1     ecut=    40.00 Ry     beta=0.70
     Davidson diagonalization with overlap
     ethr =  1.00E-06,  avg # of iterations =  2.0

     total cpu time spent up to now is       24.7 secs

     total energy              =     -95.08554273 Ry
     Harris-Foulkes estimate   =     -95.17831142 Ry
     estimated scf accuracy    <       0.00006645 Ry

     iteration #  2     ecut=    40.00 Ry     beta=0.70
     Davidson diagonalization with overlap
     ethr =  7.38E-07,  avg # of iterations =  2.9

     total cpu time spent up to now is       25.8 secs

     total energy              =     -95.08566300 Ry
     Harris-Foulkes estimate   =     -95.08571186 Ry
     estimated scf accuracy    <       0.00011131 Ry

     iteration #  3     ecut=    40.00 Ry     beta=0.70
     Davidson diagonalization with overlap
     ethr =  7.38E-07,  avg # of iterations =  1.4

     total cpu time spent up to now is       26.6 secs

     total energy              =     -95.08566506 Ry
     Harris-Foulkes estimate   =     -95.08567033 Ry
     estimated scf accuracy    <       0.00002161 Ry

     iteration #  4     ecut=    40.00 Ry     beta=0.70
     Davidson diagonalization with overlap
     ethr =  2.40E-07,  avg # of iterations =  1.0

     total cpu time spent up to now is       27.3 secs

     total energy              =     -95.08566297 Ry
     Harris-Foulkes estimate   =     -95.08566569 Ry
     estimated scf accuracy    <       0.00001030 Ry

     iteration #  5     ecut=    40.00 Ry     beta=0.70
     Davidson diagonalization with overlap
     ethr =  1.14E-07,  avg # of iterations =  1.0

     total cpu time spent up to now is       28.1 secs

     total energy              =     -95.08566115 Ry
     Harris-Foulkes estimate   =     -95.08566317 Ry
     estimated scf accuracy    <       0.00000495 Ry

     iteration #  6     ecut=    40.00 Ry     beta=0.70
     Davidson diagonalization with overlap
     ethr =  5.50E-08,  avg # of iterations =  1.0

     total cpu time spent up to now is       28.8 secs

     total energy              =     -95.08566083 Ry
     Harris-Foulkes estimate   =     -95.08566142 Ry
     estimated scf accuracy    <       0.00000118 Ry

     iteration #  7     ecut=    40.00 Ry     beta=0.70
     Davidson diagonalization with overlap
     ethr =  1.31E-08,  avg # of iterations =  1.4

     total cpu time spent up to now is       29.6 secs

     total energy              =     -95.08566086 Ry
     Harris-Foulkes estimate   =     -95.08566094 Ry
     estimated scf accuracy    <       0.00000013 Ry

     iteration #  8     ecut=    40.00 Ry     beta=0.70
     Davidson diagonalization with overlap
     ethr =  1.41E-09,  avg # of iterations =  2.0

     total cpu time spent up to now is       30.6 secs

     total energy              =     -95.08566089 Ry
     Harris-Foulkes estimate   =     -95.08566089 Ry
     estimated scf accuracy    <          5.1E-10 Ry

     iteration #  9     ecut=    40.00 Ry     beta=0.70
     Davidson diagonalization with overlap
     ethr =  5.72E-12,  avg # of iterations =  1.7

     total cpu time spent up to now is       31.4 secs

     End of self-consistent calculation

     Number of k-points >= 100: set verbosity='high' to print the bands.

     the Fermi energy is     4.3041 ev

!    total energy              =     -95.08566089 Ry
     Harris-Foulkes estimate   =     -95.08566089 Ry
     estimated scf accuracy    <          8.8E-11 Ry

     The total energy is the sum of the following terms:

     one-electron contribution =     -76.63653112 Ry
     hartree contribution      =      39.63104509 Ry
     xc contribution           =     -14.34301526 Ry
     ewald contribution        =     -43.73705471 Ry
     smearing contrib. (-TS)   =      -0.00010489 Ry

     convergence has been achieved in   9 iterations

     Forces acting on atoms (cartesian axes, Ry/au):

     atom    1 type  1   force =     0.00000000    0.00000000    0.00000000

     Total force =     0.000000     Total SCF correction =     0.000000


     Computing stress (Cartesian axis) and pressure

          total   stress  (Ry/bohr**3)                   (kbar)     P=   89.88
   0.00061102   0.00000000  -0.00000000         89.88      0.00     -0.00
   0.00000000   0.00061102   0.00000000          0.00     89.88      0.00
  -0.00000000   0.00000000   0.00061102         -0.00      0.00     89.88


     bfgs converged in   4 scf cycles and   3 bfgs steps
     (criteria: energy <  1.0E-04 Ry, force <  1.0E-03Ry/Bohr, cell <  5.0E-01kbar)

     End of BFGS Geometry Optimization

     Final enthalpy =     -94.9920080133 Ry
Begin final coordinates
     new unit-cell volume =    153.07568 a.u.^3 (    22.68348 Ang^3 )
     density =      1.68298 g/cm^3

CELL_PARAMETERS (alat=  6.74728954)
   0.499443147   0.499443147   0.499443147
  -0.499443147   0.499443147   0.499443147
  -0.499443147  -0.499443147   0.499443147

ATOMIC_POSITIONS (crystal)
Na       0.000000000   0.000000000   0.000000000
End final coordinates



     A final scf calculation at the relaxed structure.
     The G-vectors are recalculated for the final unit cell
     Results may differ from those at the preceding step.

     Parallelization info
     --------------------
     sticks:   dense  smooth     PW     G-vecs:    dense   smooth      PW
     Min         204     102     32                 3692     1319     239
     Max         205     103     33                 3694     1321     242
     Sum         817     411    129                14771     5281     959



     bravais-lattice index     =            3
     lattice parameter (alat)  =       6.7473  a.u.
     unit-cell volume          =     153.0757 (a.u.)^3
     number of atoms/cell      =            1
     number of atomic types    =            1
     number of electrons       =         9.00
     number of Kohn-Sham states=            9
     kinetic-energy cutoff     =      40.0000  Ry
     charge density cutoff     =     320.0000  Ry
     convergence threshold     =      1.0E-10
     mixing beta               =       0.7000
     number of iterations used =            8  plain     mixing
     Exchange-correlation      = SLA  PW   PBE  PBE ( 1  4  3  4 0 0)

     celldm(1)=   6.747290  celldm(2)=   0.000000  celldm(3)=   0.000000
     celldm(4)=   0.000000  celldm(5)=   0.000000  celldm(6)=   0.000000

     crystal axes: (cart. coord. in units of alat)
               a(1) = (   0.499443   0.499443   0.499443 )  
               a(2) = (  -0.499443   0.499443   0.499443 )  
               a(3) = (  -0.499443  -0.499443   0.499443 )  

     reciprocal axes: (cart. coord. in units 2 pi/alat)
               b(1) = (  1.001115 -0.000000  1.001115 )  
               b(2) = ( -1.001115  1.001115 -0.000000 )  
               b(3) = (  0.000000 -1.001115  1.001115 )  


     PseudoPot. # 1 for Na read from file:
     /home/s1333534/quantum_espresso/qe-6.1/pseudo/Na_pbe_v1.uspp.F.UPF
     MD5 check sum: 76a99c7e9422403d3e93cbc85ab7bccb
     Pseudo is Ultrasoft, Zval =  9.0
     Generated by new atomic code, or converted to UPF format
     Using radial grid of  819 points,  5 beta functions with: 
                l(1) =   0
                l(2) =   0
                l(3) =   1
                l(4) =   1
                l(5) =   2
     Q(r) pseudized with  8 coefficients,  rinner =    1.250   1.250   1.250
                                                       1.250   1.250

     atomic species   valence    mass     pseudopotential
        Na             9.00    22.99000     Na( 1.00)

     48 Sym. Ops., with inversion, found



   Cartesian axes

     site n.     atom                  positions (alat units)
         1           Na  tau(   1) = (   0.0000000   0.0000000   0.0000000  )

     number of k points=   250  Marzari-Vanderbilt smearing, width (Ry)=  0.0200

     Number of k-points >= 100: set verbosity='high' to print them.

     Dense  grid:    14771 G-vectors     FFT dimensions: (  36,  36,  36)

     Smooth grid:     5281 G-vectors     FFT dimensions: (  24,  24,  24)

     Estimated max dynamical RAM per process >       8.13MB

     Estimated total allocated dynamical RAM >      32.53MB

     Initial potential from superposition of free atoms

     starting charge    8.99371, renormalised to    9.00000
     Starting wfc are    5 randomized atomic wfcs +    4 random wfc

     Writing output data file na.bcc.save

     total cpu time spent up to now is       32.7 secs

     per-process dynamical memory:    19.5 Mb

     Self-consistent Calculation

     iteration #  1     ecut=    40.00 Ry     beta=0.70
     Davidson diagonalization with overlap
     ethr =  1.00E-06,  avg # of iterations = 10.7

     total cpu time spent up to now is       35.3 secs

     total energy              =     -95.08540864 Ry
     Harris-Foulkes estimate   =     -95.08598556 Ry
     estimated scf accuracy    <       0.00154329 Ry

     iteration #  2     ecut=    40.00 Ry     beta=0.70
     Davidson diagonalization with overlap
     ethr =  1.71E-05,  avg # of iterations =  2.0

     total cpu time spent up to now is       36.2 secs

     total energy              =     -95.08562369 Ry
     Harris-Foulkes estimate   =     -95.08567183 Ry
     estimated scf accuracy    <       0.00018061 Ry

     iteration #  3     ecut=    40.00 Ry     beta=0.70
     Davidson diagonalization with overlap
     ethr =  2.01E-06,  avg # of iterations =  2.0

     total cpu time spent up to now is       37.1 secs

     total energy              =     -95.08564557 Ry
     Harris-Foulkes estimate   =     -95.08564684 Ry
     estimated scf accuracy    <       0.00001070 Ry

     iteration #  4     ecut=    40.00 Ry     beta=0.70
     Davidson diagonalization with overlap
     ethr =  1.19E-07,  avg # of iterations =  1.0

     total cpu time spent up to now is       37.9 secs

     total energy              =     -95.08564647 Ry
     Harris-Foulkes estimate   =     -95.08564641 Ry
     estimated scf accuracy    <       0.00000001 Ry

     iteration #  5     ecut=    40.00 Ry     beta=0.70
     Davidson diagonalization with overlap
     ethr =  1.52E-10,  avg # of iterations =  3.0

     total cpu time spent up to now is       38.9 secs

     total energy              =     -95.08564650 Ry
     Harris-Foulkes estimate   =     -95.08564650 Ry
     estimated scf accuracy    <          1.3E-09 Ry

     iteration #  6     ecut=    40.00 Ry     beta=0.70
     Davidson diagonalization with overlap
     ethr =  1.48E-11,  avg # of iterations =  1.5

     total cpu time spent up to now is       39.7 secs

     total energy              =     -95.08564650 Ry
     Harris-Foulkes estimate   =     -95.08564650 Ry
     estimated scf accuracy    <          1.5E-10 Ry

     iteration #  7     ecut=    40.00 Ry     beta=0.70
     Davidson diagonalization with overlap
     ethr =  1.68E-12,  avg # of iterations =  2.0

     total cpu time spent up to now is       40.7 secs

     End of self-consistent calculation

     Number of k-points >= 100: set verbosity='high' to print the bands.

     the Fermi energy is     4.3041 ev

!    total energy              =     -95.08564650 Ry
     Harris-Foulkes estimate   =     -95.08564650 Ry
     estimated scf accuracy    <          2.9E-12 Ry

     The total energy is the sum of the following terms:

     one-electron contribution =     -76.63653497 Ry
     hartree contribution      =      39.63106511 Ry
     xc contribution           =     -14.34301705 Ry
     ewald contribution        =     -43.73705471 Ry
     smearing contrib. (-TS)   =      -0.00010489 Ry

     convergence has been achieved in   7 iterations

     Forces acting on atoms (cartesian axes, Ry/au):

     atom    1 type  1   force =     0.00000000    0.00000000    0.00000000

     Total force =     0.000000     Total SCF correction =     0.000000


     Computing stress (Cartesian axis) and pressure

          total   stress  (Ry/bohr**3)                   (kbar)     P=   89.87
   0.00061092  -0.00000000   0.00000000         89.87     -0.00      0.00
  -0.00000000   0.00061092  -0.00000000         -0.00     89.87     -0.00
   0.00000000  -0.00000000   0.00061092          0.00     -0.00     89.87


     Writing output data file na.bcc.save

     init_run     :      1.13s CPU      1.16s WALL (       2 calls)
     electrons    :     34.66s CPU     35.83s WALL (       5 calls)
     update_pot   :      0.43s CPU      0.43s WALL (       3 calls)
     forces       :      0.45s CPU      0.46s WALL (       5 calls)
     stress       :      2.15s CPU      2.16s WALL (       5 calls)

     Called by init_run:
     wfcinit      :      0.58s CPU      0.60s WALL (       2 calls)
     potinit      :      0.06s CPU      0.07s WALL (       2 calls)

     Called by electrons:
     c_bands      :     28.19s CPU     29.17s WALL (      38 calls)
     sum_band     :      5.83s CPU      6.00s WALL (      38 calls)
     v_of_rho     :      0.33s CPU      0.33s WALL (      42 calls)
     newd         :      0.35s CPU      0.36s WALL (      42 calls)
     mix_rho      :      0.02s CPU      0.02s WALL (      38 calls)

     Called by c_bands:
     init_us_2    :      1.75s CPU      1.69s WALL (   22000 calls)
     cegterg      :     26.61s CPU     27.60s WALL (    9500 calls)

     Called by sum_band:
     sum_band:bec :      0.03s CPU      0.03s WALL (    9500 calls)
     addusdens    :      0.43s CPU      0.43s WALL (      38 calls)

     Called by *egterg:
     h_psi        :     20.72s CPU     21.48s WALL (   29697 calls)
     s_psi        :      0.40s CPU      0.31s WALL (   29697 calls)
     g_psi        :      0.20s CPU      0.17s WALL (   19697 calls)
     cdiaghg      :      3.72s CPU      3.80s WALL (   28197 calls)

     Called by h_psi:
     h_psi:pot    :     20.63s CPU     21.36s WALL (   29697 calls)
     h_psi:calbec :      0.62s CPU      0.51s WALL (   29697 calls)
     vloc_psi     :     19.74s CPU     20.44s WALL (   29697 calls)
     add_vuspsi   :      0.23s CPU      0.34s WALL (   29697 calls)

     General routines
     calbec       :      0.86s CPU      0.78s WALL (   45447 calls)
     fft          :      0.16s CPU      0.16s WALL (     699 calls)
     ffts         :      0.01s CPU      0.01s WALL (      80 calls)
     fftw         :     22.04s CPU     21.20s WALL (  510444 calls)
     interpolate  :      0.03s CPU      0.03s WALL (      80 calls)
     davcio       :      0.00s CPU      0.00s WALL (     500 calls)

     Parallel routines
     fft_scatter  :      3.54s CPU      4.06s WALL (  511223 calls)

     PWSCF        :    40.08s CPU        41.34s WALL


   This run was terminated on:  17: 3:46  20Dec2017            

=------------------------------------------------------------------------------=
   JOB DONE.
=------------------------------------------------------------------------------=
