
     Program PWSCF v.6.1 (svn rev. 13369) starts on 20Dec2017 at 17: 0:30 

     This program is part of the open-source Quantum ESPRESSO suite
     for quantum simulation of materials; please cite
         "P. Giannozzi et al., J. Phys.:Condens. Matter 21 395502 (2009);
          URL http://www.quantum-espresso.org", 
     in publications or presentations arising from this work. More details at
     http://www.quantum-espresso.org/quote

     Parallel version (MPI), running on     4 processors
     R & G space division:  proc/nbgrp/npool/nimage =       4
     Waiting for input...
     Reading input from standard input

     Current dimensions of program PWSCF are:
     Max number of different atomic species (ntypx) = 10
     Max number of k-points (npk) =  40000
     Max angular momentum in pseudopotentials (lmaxx) =  3

     Subspace diagonalization in iterative solution of the eigenvalue problem:
     a serial algorithm will be used


     Parallelization info
     --------------------
     sticks:   dense  smooth     PW     G-vecs:    dense   smooth      PW
     Min         218     109     34                 4103     1443     265
     Max         219     110     35                 4104     1444     266
     Sum         875     437    139                16415     5775    1061



     bravais-lattice index     =            3
     lattice parameter (alat)  =       6.9741  a.u.
     unit-cell volume          =     169.6029 (a.u.)^3
     number of atoms/cell      =            1
     number of atomic types    =            1
     number of electrons       =         9.00
     number of Kohn-Sham states=            9
     kinetic-energy cutoff     =      40.0000  Ry
     charge density cutoff     =     320.0000  Ry
     convergence threshold     =      1.0E-08
     mixing beta               =       0.7000
     number of iterations used =            8  plain     mixing
     Exchange-correlation      = SLA  PW   PBE  PBE ( 1  4  3  4 0 0)
     nstep                     =           50


     celldm(1)=   6.974093  celldm(2)=   0.000000  celldm(3)=   0.000000
     celldm(4)=   0.000000  celldm(5)=   0.000000  celldm(6)=   0.000000

     crystal axes: (cart. coord. in units of alat)
               a(1) = (   0.500000   0.500000   0.500000 )  
               a(2) = (  -0.500000   0.500000   0.500000 )  
               a(3) = (  -0.500000  -0.500000   0.500000 )  

     reciprocal axes: (cart. coord. in units 2 pi/alat)
               b(1) = (  1.000000  0.000000  1.000000 )  
               b(2) = ( -1.000000  1.000000  0.000000 )  
               b(3) = (  0.000000 -1.000000  1.000000 )  


     PseudoPot. # 1 for Na read from file:
     /home/s1333534/quantum_espresso/qe-6.1/pseudo/Na_pbe_v1.uspp.F.UPF
     MD5 check sum: 76a99c7e9422403d3e93cbc85ab7bccb
     Pseudo is Ultrasoft, Zval =  9.0
     Generated by new atomic code, or converted to UPF format
     Using radial grid of  819 points,  5 beta functions with: 
                l(1) =   0
                l(2) =   0
                l(3) =   1
                l(4) =   1
                l(5) =   2
     Q(r) pseudized with  8 coefficients,  rinner =    1.250   1.250   1.250
                                                       1.250   1.250

     atomic species   valence    mass     pseudopotential
        Na             9.00    22.99000     Na( 1.00)

     48 Sym. Ops., with inversion, found



   Cartesian axes

     site n.     atom                  positions (alat units)
         1           Na  tau(   1) = (   0.0000000   0.0000000   0.0000000  )

     number of k points=   250  Marzari-Vanderbilt smearing, width (Ry)=  0.0200

     Number of k-points >= 100: set verbosity='high' to print them.

     Dense  grid:    16415 G-vectors     FFT dimensions: (  36,  36,  36)

     Smooth grid:     5775 G-vectors     FFT dimensions: (  25,  25,  25)

     Estimated max dynamical RAM per process >       8.94MB

     Estimated total allocated dynamical RAM >      35.76MB

     Initial potential from superposition of free atoms

     starting charge    8.99371, renormalised to    9.00000
     Starting wfc are    5 randomized atomic wfcs +    4 random wfc

     total cpu time spent up to now is        0.7 secs

     per-process dynamical memory:    15.2 Mb

     Self-consistent Calculation

     iteration #  1     ecut=    40.00 Ry     beta=0.70
     Davidson diagonalization with overlap
     ethr =  1.00E-02,  avg # of iterations =  5.5

     Threshold (ethr) on eigenvalues was too large:
     Diagonalizing with lowered threshold

     Davidson diagonalization with overlap
     ethr =  1.44E-05,  avg # of iterations =  3.5

     total cpu time spent up to now is        3.4 secs

     total energy              =     -95.09406658 Ry
     Harris-Foulkes estimate   =     -95.09451560 Ry
     estimated scf accuracy    <       0.00129326 Ry

     iteration #  2     ecut=    40.00 Ry     beta=0.70
     Davidson diagonalization with overlap
     ethr =  1.44E-05,  avg # of iterations =  2.0

     total cpu time spent up to now is        4.4 secs

     total energy              =     -95.09423904 Ry
     Harris-Foulkes estimate   =     -95.09427614 Ry
     estimated scf accuracy    <       0.00014716 Ry

     iteration #  3     ecut=    40.00 Ry     beta=0.70
     Davidson diagonalization with overlap
     ethr =  1.64E-06,  avg # of iterations =  2.1

     total cpu time spent up to now is        5.4 secs

     total energy              =     -95.09425688 Ry
     Harris-Foulkes estimate   =     -95.09425799 Ry
     estimated scf accuracy    <       0.00000871 Ry

     iteration #  4     ecut=    40.00 Ry     beta=0.70
     Davidson diagonalization with overlap
     ethr =  9.68E-08,  avg # of iterations =  1.0

     total cpu time spent up to now is        6.2 secs

     total energy              =     -95.09425764 Ry
     Harris-Foulkes estimate   =     -95.09425758 Ry
     estimated scf accuracy    <       0.00000001 Ry

     iteration #  5     ecut=    40.00 Ry     beta=0.70
     Davidson diagonalization with overlap
     ethr =  1.29E-10,  avg # of iterations =  3.0

     total cpu time spent up to now is        7.3 secs

     End of self-consistent calculation

     Number of k-points >= 100: set verbosity='high' to print the bands.

     the Fermi energy is     3.6153 ev

!    total energy              =     -95.09425767 Ry
     Harris-Foulkes estimate   =     -95.09425767 Ry
     estimated scf accuracy    <          1.6E-09 Ry

     The total energy is the sum of the following terms:

     one-electron contribution =     -79.17807358 Ry
     hartree contribution      =      40.67677838 Ry
     xc contribution           =     -14.32529632 Ry
     ewald contribution        =     -42.26756056 Ry
     smearing contrib. (-TS)   =      -0.00010559 Ry

     convergence has been achieved in   5 iterations

     Forces acting on atoms (cartesian axes, Ry/au):

     atom    1 type  1   force =     0.00000000    0.00000000    0.00000000

     Total force =     0.000000     Total SCF correction =     0.000000


     Computing stress (Cartesian axis) and pressure

          total   stress  (Ry/bohr**3)                   (kbar)     P=   57.44
   0.00039044  -0.00000000   0.00000000         57.44     -0.00      0.00
  -0.00000000   0.00039044   0.00000000         -0.00     57.44      0.00
   0.00000000  -0.00000000   0.00039044          0.00     -0.00     57.44


     BFGS Geometry Optimization

     number of scf cycles    =   1
     number of bfgs steps    =   0

     enthalpy new            =     -95.0250814406 Ry

     new trust radius        =       0.0011350575 bohr
     new conv_thr            =       0.0000000100 Ry

     new unit-cell volume =    169.38126 a.u.^3 (    25.09971 Ang^3 )
     density =      1.52097 g/cm^3

CELL_PARAMETERS (alat=  6.97409326)
   0.499782108   0.499782108   0.499782108
  -0.499782108   0.499782108   0.499782108
  -0.499782108  -0.499782108   0.499782108

ATOMIC_POSITIONS (crystal)
Na       0.000000000   0.000000000   0.000000000



     Writing output data file na.bcc.save
     NEW-OLD atomic charge density approx. for the potential
     extrapolated charge    8.98823, renormalised to    9.00000

     total cpu time spent up to now is        8.3 secs

     per-process dynamical memory:    23.0 Mb

     Self-consistent Calculation

     iteration #  1     ecut=    40.00 Ry     beta=0.70
     Davidson diagonalization with overlap
     ethr =  1.00E-06,  avg # of iterations =  2.0

     total cpu time spent up to now is        9.5 secs

     total energy              =     -95.09408314 Ry
     Harris-Foulkes estimate   =     -95.17616061 Ry
     estimated scf accuracy    <       0.00004928 Ry

     iteration #  2     ecut=    40.00 Ry     beta=0.70
     Davidson diagonalization with overlap
     ethr =  5.48E-07,  avg # of iterations =  2.9

     total cpu time spent up to now is       10.6 secs

     total energy              =     -95.09417237 Ry
     Harris-Foulkes estimate   =     -95.09420857 Ry
     estimated scf accuracy    <       0.00008245 Ry

     iteration #  3     ecut=    40.00 Ry     beta=0.70
     Davidson diagonalization with overlap
     ethr =  5.48E-07,  avg # of iterations =  1.4

     total cpu time spent up to now is       11.4 secs

     total energy              =     -95.09417383 Ry
     Harris-Foulkes estimate   =     -95.09417779 Ry
     estimated scf accuracy    <       0.00001603 Ry

     iteration #  4     ecut=    40.00 Ry     beta=0.70
     Davidson diagonalization with overlap
     ethr =  1.78E-07,  avg # of iterations =  1.0

     total cpu time spent up to now is       12.3 secs

     total energy              =     -95.09417223 Ry
     Harris-Foulkes estimate   =     -95.09417432 Ry
     estimated scf accuracy    <       0.00000754 Ry

     iteration #  5     ecut=    40.00 Ry     beta=0.70
     Davidson diagonalization with overlap
     ethr =  8.38E-08,  avg # of iterations =  1.0

     total cpu time spent up to now is       13.1 secs

     total energy              =     -95.09417103 Ry
     Harris-Foulkes estimate   =     -95.09417239 Ry
     estimated scf accuracy    <       0.00000347 Ry

     iteration #  6     ecut=    40.00 Ry     beta=0.70
     Davidson diagonalization with overlap
     ethr =  3.85E-08,  avg # of iterations =  1.0

     total cpu time spent up to now is       13.9 secs

     total energy              =     -95.09417076 Ry
     Harris-Foulkes estimate   =     -95.09417120 Ry
     estimated scf accuracy    <       0.00000089 Ry

     iteration #  7     ecut=    40.00 Ry     beta=0.70
     Davidson diagonalization with overlap
     ethr =  9.91E-09,  avg # of iterations =  1.3

     total cpu time spent up to now is       14.7 secs

     total energy              =     -95.09417078 Ry
     Harris-Foulkes estimate   =     -95.09417084 Ry
     estimated scf accuracy    <       0.00000010 Ry

     iteration #  8     ecut=    40.00 Ry     beta=0.70
     Davidson diagonalization with overlap
     ethr =  1.13E-09,  avg # of iterations =  2.0

     total cpu time spent up to now is       15.7 secs

     End of self-consistent calculation

     Number of k-points >= 100: set verbosity='high' to print the bands.

     the Fermi energy is     3.6236 ev

!    total energy              =     -95.09417080 Ry
     Harris-Foulkes estimate   =     -95.09417080 Ry
     estimated scf accuracy    <          5.1E-11 Ry

     The total energy is the sum of the following terms:

     one-electron contribution =     -79.14617315 Ry
     hartree contribution      =      40.66361877 Ry
     xc contribution           =     -14.32552271 Ry
     ewald contribution        =     -42.28598812 Ry
     smearing contrib. (-TS)   =      -0.00010560 Ry

     convergence has been achieved in   8 iterations

     Forces acting on atoms (cartesian axes, Ry/au):

     atom    1 type  1   force =     0.00000000    0.00000000    0.00000000

     Total force =     0.000000     Total SCF correction =     0.000000


     Computing stress (Cartesian axis) and pressure

          total   stress  (Ry/bohr**3)                   (kbar)     P=   57.82
   0.00039305   0.00000000  -0.00000000         57.82      0.00     -0.00
   0.00000000   0.00039305   0.00000000          0.00     57.82      0.00
  -0.00000000   0.00000000   0.00039305         -0.00      0.00     57.82


     number of scf cycles    =   2
     number of bfgs steps    =   1

     enthalpy old            =     -95.0250814406 Ry
     enthalpy new            =     -95.0250849662 Ry

     CASE: enthalpy_new < enthalpy_old


     WARNING: bfgs curvature condition failed, Theta= 0.942
     new trust radius        =       0.0017022152 bohr
     new conv_thr            =            1.0E-10 Ry

     new unit-cell volume =    169.04917 a.u.^3 (    25.05050 Ang^3 )
     density =      1.52395 g/cm^3

CELL_PARAMETERS (alat=  6.97409326)
   0.499455270   0.499455270   0.499455270
  -0.499455270   0.499455270   0.499455270
  -0.499455270  -0.499455270   0.499455270

ATOMIC_POSITIONS (crystal)
Na       0.000000000   0.000000000   0.000000000



     Writing output data file na.bcc.save
     NEW-OLD atomic charge density approx. for the potential
     extrapolated charge    8.98233, renormalised to    9.00000

     total cpu time spent up to now is       16.8 secs

     per-process dynamical memory:    23.0 Mb

     Self-consistent Calculation

     iteration #  1     ecut=    40.00 Ry     beta=0.70
     Davidson diagonalization with overlap
     ethr =  1.00E-06,  avg # of iterations =  2.0

     total cpu time spent up to now is       17.9 secs

     total energy              =     -95.09384260 Ry
     Harris-Foulkes estimate   =     -95.21704144 Ry
     estimated scf accuracy    <       0.00011061 Ry

     iteration #  2     ecut=    40.00 Ry     beta=0.70
     Davidson diagonalization with overlap
     ethr =  1.23E-06,  avg # of iterations =  2.9

     total cpu time spent up to now is       19.1 secs

     total energy              =     -95.09404305 Ry
     Harris-Foulkes estimate   =     -95.09412440 Ry
     estimated scf accuracy    <       0.00018533 Ry

     iteration #  3     ecut=    40.00 Ry     beta=0.70
     Davidson diagonalization with overlap
     ethr =  1.23E-06,  avg # of iterations =  1.4

     total cpu time spent up to now is       19.9 secs

     total energy              =     -95.09404594 Ry
     Harris-Foulkes estimate   =     -95.09405527 Ry
     estimated scf accuracy    <       0.00003593 Ry

     iteration #  4     ecut=    40.00 Ry     beta=0.70
     Davidson diagonalization with overlap
     ethr =  3.99E-07,  avg # of iterations =  1.0

     total cpu time spent up to now is       20.7 secs

     total energy              =     -95.09404249 Ry
     Harris-Foulkes estimate   =     -95.09404707 Ry
     estimated scf accuracy    <       0.00001618 Ry

     iteration #  5     ecut=    40.00 Ry     beta=0.70
     Davidson diagonalization with overlap
     ethr =  1.80E-07,  avg # of iterations =  1.0

     total cpu time spent up to now is       21.6 secs

     total energy              =     -95.09404003 Ry
     Harris-Foulkes estimate   =     -95.09404287 Ry
     estimated scf accuracy    <       0.00000722 Ry

     iteration #  6     ecut=    40.00 Ry     beta=0.70
     Davidson diagonalization with overlap
     ethr =  8.03E-08,  avg # of iterations =  1.0

     total cpu time spent up to now is       22.4 secs

     total energy              =     -95.09403943 Ry
     Harris-Foulkes estimate   =     -95.09404039 Ry
     estimated scf accuracy    <       0.00000189 Ry

     iteration #  7     ecut=    40.00 Ry     beta=0.70
     Davidson diagonalization with overlap
     ethr =  2.10E-08,  avg # of iterations =  1.4

     total cpu time spent up to now is       23.2 secs

     total energy              =     -95.09403950 Ry
     Harris-Foulkes estimate   =     -95.09403962 Ry
     estimated scf accuracy    <       0.00000020 Ry

     iteration #  8     ecut=    40.00 Ry     beta=0.70
     Davidson diagonalization with overlap
     ethr =  2.17E-09,  avg # of iterations =  2.0

     total cpu time spent up to now is       24.2 secs

     total energy              =     -95.09403954 Ry
     Harris-Foulkes estimate   =     -95.09403954 Ry
     estimated scf accuracy    <          2.5E-10 Ry

     iteration #  9     ecut=    40.00 Ry     beta=0.70
     Davidson diagonalization with overlap
     ethr =  2.73E-12,  avg # of iterations =  2.0

     total cpu time spent up to now is       25.2 secs

     total energy              =     -95.09403954 Ry
     Harris-Foulkes estimate   =     -95.09403954 Ry
     estimated scf accuracy    <          5.0E-10 Ry

     iteration # 10     ecut=    40.00 Ry     beta=0.70
     Davidson diagonalization with overlap
     ethr =  2.73E-12,  avg # of iterations =  1.0

     total cpu time spent up to now is       26.0 secs

     total energy              =     -95.09403954 Ry
     Harris-Foulkes estimate   =     -95.09403954 Ry
     estimated scf accuracy    <          3.0E-10 Ry

     iteration # 11     ecut=    40.00 Ry     beta=0.70
     Davidson diagonalization with overlap
     ethr =  2.73E-12,  avg # of iterations =  2.0

     total cpu time spent up to now is       27.0 secs

     End of self-consistent calculation

     Number of k-points >= 100: set verbosity='high' to print the bands.

     the Fermi energy is     3.6361 ev

!    total energy              =     -95.09403954 Ry
     Harris-Foulkes estimate   =     -95.09403954 Ry
     estimated scf accuracy    <          6.3E-11 Ry

     The total energy is the sum of the following terms:

     one-electron contribution =     -79.09826226 Ry
     hartree contribution      =      40.64384587 Ry
     xc contribution           =     -14.32585794 Ry
     ewald contribution        =     -42.31365960 Ry
     smearing contrib. (-TS)   =      -0.00010560 Ry

     convergence has been achieved in  11 iterations

     Forces acting on atoms (cartesian axes, Ry/au):

     atom    1 type  1   force =     0.00000000    0.00000000    0.00000000

     Total force =     0.000000     Total SCF correction =     0.000000


     Computing stress (Cartesian axis) and pressure

          total   stress  (Ry/bohr**3)                   (kbar)     P=   58.47
   0.00039746   0.00000000  -0.00000000         58.47      0.00     -0.00
   0.00000000   0.00039746   0.00000000          0.00     58.47      0.00
  -0.00000000   0.00000000   0.00039746         -0.00      0.00     58.47


     number of scf cycles    =   3
     number of bfgs steps    =   2

     enthalpy old            =     -95.0250849662 Ry
     enthalpy new            =     -95.0250891569 Ry

     CASE: enthalpy_new < enthalpy_old

     new trust radius        =       0.0025524878 bohr
     new conv_thr            =            1.0E-10 Ry

     new unit-cell volume =    168.55185 a.u.^3 (    24.97681 Ang^3 )
     density =      1.52845 g/cm^3

CELL_PARAMETERS (alat=  6.97409326)
   0.498965013   0.498965013   0.498965013
  -0.498965013   0.498965013   0.498965013
  -0.498965013  -0.498965013   0.498965013

ATOMIC_POSITIONS (crystal)
Na       0.000000000   0.000000000   0.000000000



     Writing output data file na.bcc.save
     NEW-OLD atomic charge density approx. for the potential
     extrapolated charge    8.97346, renormalised to    9.00000

     total cpu time spent up to now is       28.0 secs

     per-process dynamical memory:    23.0 Mb

     Self-consistent Calculation

     iteration #  1     ecut=    40.00 Ry     beta=0.70
     Davidson diagonalization with overlap
     ethr =  1.00E-06,  avg # of iterations =  2.0

     total cpu time spent up to now is       29.2 secs

     total energy              =     -95.09339798 Ry
     Harris-Foulkes estimate   =     -95.27838166 Ry
     estimated scf accuracy    <       0.00024849 Ry

     iteration #  2     ecut=    40.00 Ry     beta=0.70
     Davidson diagonalization with overlap
     ethr =  2.76E-06,  avg # of iterations =  2.9

     total cpu time spent up to now is       30.4 secs

     total energy              =     -95.09384827 Ry
     Harris-Foulkes estimate   =     -95.09403109 Ry
     estimated scf accuracy    <       0.00041654 Ry

     iteration #  3     ecut=    40.00 Ry     beta=0.70
     Davidson diagonalization with overlap
     ethr =  2.76E-06,  avg # of iterations =  1.4

     total cpu time spent up to now is       31.3 secs

     total energy              =     -95.09385355 Ry
     Harris-Foulkes estimate   =     -95.09387590 Ry
     estimated scf accuracy    <       0.00008027 Ry

     iteration #  4     ecut=    40.00 Ry     beta=0.70
     Davidson diagonalization with overlap
     ethr =  8.92E-07,  avg # of iterations =  1.0

     total cpu time spent up to now is       32.1 secs

     total energy              =     -95.09384659 Ry
     Harris-Foulkes estimate   =     -95.09385618 Ry
     estimated scf accuracy    <       0.00003387 Ry

     iteration #  5     ecut=    40.00 Ry     beta=0.70
     Davidson diagonalization with overlap
     ethr =  3.76E-07,  avg # of iterations =  1.0

     total cpu time spent up to now is       33.0 secs

     total energy              =     -95.09384218 Ry
     Harris-Foulkes estimate   =     -95.09384743 Ry
     estimated scf accuracy    <       0.00001495 Ry

     iteration #  6     ecut=    40.00 Ry     beta=0.70
     Davidson diagonalization with overlap
     ethr =  1.66E-07,  avg # of iterations =  1.0

     total cpu time spent up to now is       33.8 secs

     total energy              =     -95.09384035 Ry
     Harris-Foulkes estimate   =     -95.09384275 Ry
     estimated scf accuracy    <       0.00000492 Ry

     iteration #  7     ecut=    40.00 Ry     beta=0.70
     Davidson diagonalization with overlap
     ethr =  5.47E-08,  avg # of iterations =  1.0

     total cpu time spent up to now is       34.6 secs

     total energy              =     -95.09384038 Ry
     Harris-Foulkes estimate   =     -95.09384078 Ry
     estimated scf accuracy    <       0.00000064 Ry

     iteration #  8     ecut=    40.00 Ry     beta=0.70
     Davidson diagonalization with overlap
     ethr =  7.08E-09,  avg # of iterations =  2.0

     total cpu time spent up to now is       35.6 secs

     total energy              =     -95.09384051 Ry
     Harris-Foulkes estimate   =     -95.09384051 Ry
     estimated scf accuracy    <          5.7E-09 Ry

     iteration #  9     ecut=    40.00 Ry     beta=0.70
     Davidson diagonalization with overlap
     ethr =  6.30E-11,  avg # of iterations =  1.6

     total cpu time spent up to now is       36.4 secs

     total energy              =     -95.09384051 Ry
     Harris-Foulkes estimate   =     -95.09384051 Ry
     estimated scf accuracy    <          4.4E-09 Ry

     iteration # 10     ecut=    40.00 Ry     beta=0.70
     Davidson diagonalization with overlap
     ethr =  4.92E-11,  avg # of iterations =  1.0

     total cpu time spent up to now is       37.2 secs

     total energy              =     -95.09384051 Ry
     Harris-Foulkes estimate   =     -95.09384051 Ry
     estimated scf accuracy    <          3.9E-09 Ry

     iteration # 11     ecut=    40.00 Ry     beta=0.70
     Davidson diagonalization with overlap
     ethr =  4.32E-11,  avg # of iterations =  2.0

     total cpu time spent up to now is       38.2 secs

     End of self-consistent calculation

     Number of k-points >= 100: set verbosity='high' to print the bands.

     the Fermi energy is     3.6549 ev

!    total energy              =     -95.09384051 Ry
     Harris-Foulkes estimate   =     -95.09384051 Ry
     estimated scf accuracy    <          2.3E-11 Ry

     The total energy is the sum of the following terms:

     one-electron contribution =     -79.02625056 Ry
     hartree contribution      =      40.61410505 Ry
     xc contribution           =     -14.32635460 Ry
     ewald contribution        =     -42.35523479 Ry
     smearing contrib. (-TS)   =      -0.00010561 Ry

     convergence has been achieved in  11 iterations

     Forces acting on atoms (cartesian axes, Ry/au):

     atom    1 type  1   force =     0.00000000    0.00000000    0.00000000

     Total force =     0.000000     Total SCF correction =     0.000000


     Computing stress (Cartesian axis) and pressure

          total   stress  (Ry/bohr**3)                   (kbar)     P=   59.34
   0.00040342  -0.00000000   0.00000000         59.34     -0.00      0.00
  -0.00000000   0.00040342  -0.00000000         -0.00     59.34     -0.00
   0.00000000  -0.00000000   0.00040342          0.00     -0.00     59.34


     number of scf cycles    =   4
     number of bfgs steps    =   3

     enthalpy old            =     -95.0250891569 Ry
     enthalpy new            =     -95.0250929636 Ry

     CASE: enthalpy_new < enthalpy_old

     new trust radius        =       0.0019013719 bohr
     new conv_thr            =            1.0E-10 Ry

     new unit-cell volume =    168.18185 a.u.^3 (    24.92198 Ang^3 )
     density =      1.53181 g/cm^3

CELL_PARAMETERS (alat=  6.97409326)
   0.498599637   0.498599637   0.498599637
  -0.498599637   0.498599637   0.498599637
  -0.498599637  -0.498599637   0.498599637

ATOMIC_POSITIONS (crystal)
Na       0.000000000   0.000000000   0.000000000



     Writing output data file na.bcc.save
     NEW-OLD atomic charge density approx. for the potential
     extrapolated charge    8.98021, renormalised to    9.00000

     total cpu time spent up to now is       39.3 secs

     per-process dynamical memory:    23.0 Mb

     Self-consistent Calculation

     iteration #  1     ecut=    40.00 Ry     beta=0.70
     Davidson diagonalization with overlap
     ethr =  1.00E-06,  avg # of iterations =  2.0

     total cpu time spent up to now is       40.4 secs

     total energy              =     -95.09344391 Ry
     Harris-Foulkes estimate   =     -95.23120721 Ry
     estimated scf accuracy    <       0.00013843 Ry

     iteration #  2     ecut=    40.00 Ry     beta=0.70
     Davidson diagonalization with overlap
     ethr =  1.54E-06,  avg # of iterations =  2.9

     total cpu time spent up to now is       41.6 secs

     total energy              =     -95.09369487 Ry
     Harris-Foulkes estimate   =     -95.09379673 Ry
     estimated scf accuracy    <       0.00023209 Ry

     iteration #  3     ecut=    40.00 Ry     beta=0.70
     Davidson diagonalization with overlap
     ethr =  1.54E-06,  avg # of iterations =  1.4

     total cpu time spent up to now is       42.5 secs

     total energy              =     -95.09369790 Ry
     Harris-Foulkes estimate   =     -95.09371023 Ry
     estimated scf accuracy    <       0.00004484 Ry

     iteration #  4     ecut=    40.00 Ry     beta=0.70
     Davidson diagonalization with overlap
     ethr =  4.98E-07,  avg # of iterations =  1.0

     total cpu time spent up to now is       43.3 secs

     total energy              =     -95.09369397 Ry
     Harris-Foulkes estimate   =     -95.09369936 Ry
     estimated scf accuracy    <       0.00001915 Ry

     iteration #  5     ecut=    40.00 Ry     beta=0.70
     Davidson diagonalization with overlap
     ethr =  2.13E-07,  avg # of iterations =  1.0

     total cpu time spent up to now is       44.1 secs

     total energy              =     -95.09369130 Ry
     Harris-Foulkes estimate   =     -95.09369443 Ry
     estimated scf accuracy    <       0.00000853 Ry

     iteration #  6     ecut=    40.00 Ry     beta=0.70
     Davidson diagonalization with overlap
     ethr =  9.47E-08,  avg # of iterations =  1.0

     total cpu time spent up to now is       45.0 secs

     total energy              =     -95.09369042 Ry
     Harris-Foulkes estimate   =     -95.09369166 Ry
     estimated scf accuracy    <       0.00000259 Ry

     iteration #  7     ecut=    40.00 Ry     beta=0.70
     Davidson diagonalization with overlap
     ethr =  2.88E-08,  avg # of iterations =  1.0

     total cpu time spent up to now is       45.8 secs

     total energy              =     -95.09369041 Ry
     Harris-Foulkes estimate   =     -95.09369064 Ry
     estimated scf accuracy    <       0.00000035 Ry

     iteration #  8     ecut=    40.00 Ry     beta=0.70
     Davidson diagonalization with overlap
     ethr =  3.94E-09,  avg # of iterations =  2.0

     total cpu time spent up to now is       46.7 secs

     total energy              =     -95.09369049 Ry
     Harris-Foulkes estimate   =     -95.09369049 Ry
     estimated scf accuracy    <          2.2E-09 Ry

     iteration #  9     ecut=    40.00 Ry     beta=0.70
     Davidson diagonalization with overlap
     ethr =  2.48E-11,  avg # of iterations =  1.6

     total cpu time spent up to now is       47.6 secs

     total energy              =     -95.09369049 Ry
     Harris-Foulkes estimate   =     -95.09369049 Ry
     estimated scf accuracy    <          2.8E-09 Ry

     iteration # 10     ecut=    40.00 Ry     beta=0.70
     Davidson diagonalization with overlap
     ethr =  2.48E-11,  avg # of iterations =  1.0

     total cpu time spent up to now is       48.4 secs

     total energy              =     -95.09369048 Ry
     Harris-Foulkes estimate   =     -95.09369049 Ry
     estimated scf accuracy    <          2.4E-09 Ry

     iteration # 11     ecut=    40.00 Ry     beta=0.70
     Davidson diagonalization with overlap
     ethr =  2.48E-11,  avg # of iterations =  2.0

     total cpu time spent up to now is       49.4 secs

     total energy              =     -95.09369049 Ry
     Harris-Foulkes estimate   =     -95.09369049 Ry
     estimated scf accuracy    <          1.5E-10 Ry

     iteration # 12     ecut=    40.00 Ry     beta=0.70
     Davidson diagonalization with overlap
     ethr =  1.72E-12,  avg # of iterations =  1.5

     total cpu time spent up to now is       50.3 secs

     End of self-consistent calculation

     Number of k-points >= 100: set verbosity='high' to print the bands.

     the Fermi energy is     3.6690 ev

!    total energy              =     -95.09369049 Ry
     Harris-Foulkes estimate   =     -95.09369049 Ry
     estimated scf accuracy    <          1.9E-11 Ry

     The total energy is the sum of the following terms:

     one-electron contribution =     -78.97247532 Ry
     hartree contribution      =      40.59188469 Ry
     xc contribution           =     -14.32672132 Ry
     ewald contribution        =     -42.38627292 Ry
     smearing contrib. (-TS)   =      -0.00010561 Ry

     convergence has been achieved in  12 iterations

     Forces acting on atoms (cartesian axes, Ry/au):

     atom    1 type  1   force =     0.00000000    0.00000000    0.00000000

     Total force =     0.000000     Total SCF correction =     0.000000


     Computing stress (Cartesian axis) and pressure

          total   stress  (Ry/bohr**3)                   (kbar)     P=   59.94
   0.00040750  -0.00000000   0.00000000         59.94     -0.00      0.00
  -0.00000000   0.00040750  -0.00000000         -0.00     59.94     -0.00
   0.00000000  -0.00000000   0.00040750          0.00     -0.00     59.94


     bfgs converged in   5 scf cycles and   4 bfgs steps
     (criteria: energy <  1.0E-04 Ry, force <  1.0E-03Ry/Bohr, cell <  5.0E-01kbar)

     End of BFGS Geometry Optimization

     Final enthalpy =     -95.0250938562 Ry
Begin final coordinates
     new unit-cell volume =    168.18185 a.u.^3 (    24.92198 Ang^3 )
     density =      1.53181 g/cm^3

CELL_PARAMETERS (alat=  6.97409326)
   0.498599637   0.498599637   0.498599637
  -0.498599637   0.498599637   0.498599637
  -0.498599637  -0.498599637   0.498599637

ATOMIC_POSITIONS (crystal)
Na       0.000000000   0.000000000   0.000000000
End final coordinates



     A final scf calculation at the relaxed structure.
     The G-vectors are recalculated for the final unit cell
     Results may differ from those at the preceding step.

     Parallelization info
     --------------------
     sticks:   dense  smooth     PW     G-vecs:    dense   smooth      PW
     Min         217     109     34                 4073     1443     263
     Max         218     110     35                 4074     1444     265
     Sum         871     437    137                16295     5775    1055



     bravais-lattice index     =            3
     lattice parameter (alat)  =       6.9741  a.u.
     unit-cell volume          =     168.1818 (a.u.)^3
     number of atoms/cell      =            1
     number of atomic types    =            1
     number of electrons       =         9.00
     number of Kohn-Sham states=            9
     kinetic-energy cutoff     =      40.0000  Ry
     charge density cutoff     =     320.0000  Ry
     convergence threshold     =      1.0E-10
     mixing beta               =       0.7000
     number of iterations used =            8  plain     mixing
     Exchange-correlation      = SLA  PW   PBE  PBE ( 1  4  3  4 0 0)

     celldm(1)=   6.974093  celldm(2)=   0.000000  celldm(3)=   0.000000
     celldm(4)=   0.000000  celldm(5)=   0.000000  celldm(6)=   0.000000

     crystal axes: (cart. coord. in units of alat)
               a(1) = (   0.498600   0.498600   0.498600 )  
               a(2) = (  -0.498600   0.498600   0.498600 )  
               a(3) = (  -0.498600  -0.498600   0.498600 )  

     reciprocal axes: (cart. coord. in units 2 pi/alat)
               b(1) = (  1.002809  0.000000  1.002809 )  
               b(2) = ( -1.002809  1.002809  0.000000 )  
               b(3) = (  0.000000 -1.002809  1.002809 )  


     PseudoPot. # 1 for Na read from file:
     /home/s1333534/quantum_espresso/qe-6.1/pseudo/Na_pbe_v1.uspp.F.UPF
     MD5 check sum: 76a99c7e9422403d3e93cbc85ab7bccb
     Pseudo is Ultrasoft, Zval =  9.0
     Generated by new atomic code, or converted to UPF format
     Using radial grid of  819 points,  5 beta functions with: 
                l(1) =   0
                l(2) =   0
                l(3) =   1
                l(4) =   1
                l(5) =   2
     Q(r) pseudized with  8 coefficients,  rinner =    1.250   1.250   1.250
                                                       1.250   1.250

     atomic species   valence    mass     pseudopotential
        Na             9.00    22.99000     Na( 1.00)

     48 Sym. Ops., with inversion, found



   Cartesian axes

     site n.     atom                  positions (alat units)
         1           Na  tau(   1) = (   0.0000000   0.0000000   0.0000000  )

     number of k points=   250  Marzari-Vanderbilt smearing, width (Ry)=  0.0200

     Number of k-points >= 100: set verbosity='high' to print them.

     Dense  grid:    16295 G-vectors     FFT dimensions: (  36,  36,  36)

     Smooth grid:     5775 G-vectors     FFT dimensions: (  25,  25,  25)

     Estimated max dynamical RAM per process >       8.86MB

     Estimated total allocated dynamical RAM >      35.42MB

     Initial potential from superposition of free atoms

     starting charge    8.99371, renormalised to    9.00000
     Starting wfc are    5 randomized atomic wfcs +    4 random wfc

     Writing output data file na.bcc.save

     total cpu time spent up to now is       51.7 secs

     per-process dynamical memory:    20.3 Mb

     Self-consistent Calculation

     iteration #  1     ecut=    40.00 Ry     beta=0.70
     Davidson diagonalization with overlap
     ethr =  1.00E-06,  avg # of iterations = 10.9

     total cpu time spent up to now is       54.5 secs

     total energy              =     -95.09345423 Ry
     Harris-Foulkes estimate   =     -95.09391313 Ry
     estimated scf accuracy    <       0.00131623 Ry

     iteration #  2     ecut=    40.00 Ry     beta=0.70
     Davidson diagonalization with overlap
     ethr =  1.46E-05,  avg # of iterations =  2.0

     total cpu time spent up to now is       55.5 secs

     total energy              =     -95.09363524 Ry
     Harris-Foulkes estimate   =     -95.09367501 Ry
     estimated scf accuracy    <       0.00015342 Ry

     iteration #  3     ecut=    40.00 Ry     beta=0.70
     Davidson diagonalization with overlap
     ethr =  1.70E-06,  avg # of iterations =  2.0

     total cpu time spent up to now is       56.4 secs

     total energy              =     -95.09365330 Ry
     Harris-Foulkes estimate   =     -95.09365453 Ry
     estimated scf accuracy    <       0.00000919 Ry

     iteration #  4     ecut=    40.00 Ry     beta=0.70
     Davidson diagonalization with overlap
     ethr =  1.02E-07,  avg # of iterations =  1.0

     total cpu time spent up to now is       57.2 secs

     total energy              =     -95.09365409 Ry
     Harris-Foulkes estimate   =     -95.09365403 Ry
     estimated scf accuracy    <       0.00000001 Ry

     iteration #  5     ecut=    40.00 Ry     beta=0.70
     Davidson diagonalization with overlap
     ethr =  1.28E-10,  avg # of iterations =  3.0

     total cpu time spent up to now is       58.3 secs

     total energy              =     -95.09365412 Ry
     Harris-Foulkes estimate   =     -95.09365411 Ry
     estimated scf accuracy    <          1.1E-09 Ry

     iteration #  6     ecut=    40.00 Ry     beta=0.70
     Davidson diagonalization with overlap
     ethr =  1.21E-11,  avg # of iterations =  1.5

     total cpu time spent up to now is       59.2 secs

     End of self-consistent calculation

     Number of k-points >= 100: set verbosity='high' to print the bands.

     the Fermi energy is     3.6689 ev

!    total energy              =     -95.09365412 Ry
     Harris-Foulkes estimate   =     -95.09365412 Ry
     estimated scf accuracy    <          6.2E-11 Ry

     The total energy is the sum of the following terms:

     one-electron contribution =     -78.97245477 Ry
     hartree contribution      =      40.59189744 Ry
     xc contribution           =     -14.32671825 Ry
     ewald contribution        =     -42.38627292 Ry
     smearing contrib. (-TS)   =      -0.00010562 Ry

     convergence has been achieved in   6 iterations

     Forces acting on atoms (cartesian axes, Ry/au):

     atom    1 type  1   force =     0.00000000    0.00000000    0.00000000

     Total force =     0.000000     Total SCF correction =     0.000000


     Computing stress (Cartesian axis) and pressure

          total   stress  (Ry/bohr**3)                   (kbar)     P=   59.84
   0.00040676  -0.00000000   0.00000000         59.84     -0.00      0.00
  -0.00000000   0.00040676  -0.00000000         -0.00     59.84     -0.00
   0.00000000  -0.00000000   0.00040676          0.00     -0.00     59.84


     Writing output data file na.bcc.save

     init_run     :      1.19s CPU      1.22s WALL (       2 calls)
     electrons    :     50.91s CPU     53.00s WALL (       6 calls)
     update_pot   :      0.61s CPU      0.62s WALL (       4 calls)
     forces       :      0.61s CPU      0.63s WALL (       6 calls)
     stress       :      2.87s CPU      2.89s WALL (       6 calls)

     Called by init_run:
     wfcinit      :      0.62s CPU      0.64s WALL (       2 calls)
     potinit      :      0.07s CPU      0.07s WALL (       2 calls)

     Called by electrons:
     c_bands      :     40.99s CPU     42.69s WALL (      54 calls)
     sum_band     :      8.93s CPU      9.28s WALL (      54 calls)
     v_of_rho     :      0.46s CPU      0.48s WALL (      59 calls)
     newd         :      0.56s CPU      0.57s WALL (      59 calls)
     mix_rho      :      0.03s CPU      0.04s WALL (      54 calls)

     Called by c_bands:
     init_us_2    :      2.50s CPU      2.45s WALL (   30500 calls)
     cegterg      :     38.56s CPU     40.26s WALL (   13500 calls)

     Called by sum_band:
     sum_band:bec :      0.04s CPU      0.04s WALL (   13500 calls)
     addusdens    :      0.66s CPU      0.67s WALL (      54 calls)

     Called by *egterg:
     h_psi        :     30.36s CPU     31.71s WALL (   39903 calls)
     s_psi        :      0.58s CPU      0.45s WALL (   39903 calls)
     g_psi        :      0.28s CPU      0.26s WALL (   25903 calls)
     cdiaghg      :      4.81s CPU      4.95s WALL (   38153 calls)

     Called by h_psi:
     h_psi:pot    :     30.22s CPU     31.52s WALL (   39903 calls)
     h_psi:calbec :      0.93s CPU      0.71s WALL (   39903 calls)
     vloc_psi     :     28.93s CPU     30.22s WALL (   39903 calls)
     add_vuspsi   :      0.31s CPU      0.49s WALL (   39903 calls)

     General routines
     calbec       :      1.40s CPU      1.22s WALL (   60903 calls)
     fft          :      0.20s CPU      0.22s WALL (     976 calls)
     ffts         :      0.01s CPU      0.01s WALL (     113 calls)
     fftw         :     31.77s CPU     31.40s WALL (  711312 calls)
     interpolate  :      0.04s CPU      0.04s WALL (     113 calls)
     davcio       :      0.00s CPU      0.00s WALL (     500 calls)

     Parallel routines
     fft_scatter  :      5.78s CPU      6.84s WALL (  712401 calls)

     PWSCF        :    57.69s CPU        59.92s WALL


   This run was terminated on:  17: 1:30  20Dec2017            

=------------------------------------------------------------------------------=
   JOB DONE.
=------------------------------------------------------------------------------=
