
     Program PWSCF v.6.1 (svn rev. 13369) starts on 20Dec2017 at 16:48: 5 

     This program is part of the open-source Quantum ESPRESSO suite
     for quantum simulation of materials; please cite
         "P. Giannozzi et al., J. Phys.:Condens. Matter 21 395502 (2009);
          URL http://www.quantum-espresso.org", 
     in publications or presentations arising from this work. More details at
     http://www.quantum-espresso.org/quote

     Parallel version (MPI), running on     4 processors
     R & G space division:  proc/nbgrp/npool/nimage =       4
     Waiting for input...
     Reading input from standard input

     Current dimensions of program PWSCF are:
     Max number of different atomic species (ntypx) = 10
     Max number of k-points (npk) =  40000
     Max angular momentum in pseudopotentials (lmaxx) =  3

     Subspace diagonalization in iterative solution of the eigenvalue problem:
     a serial algorithm will be used


     Parallelization info
     --------------------
     sticks:   dense  smooth     PW     G-vecs:    dense   smooth      PW
     Min         302     151     45                 6628     2350     400
     Max         303     152     46                 6629     2352     401
     Sum        1211     607    181                26515     9405    1601



     bravais-lattice index     =            3
     lattice parameter (alat)  =       8.1815  a.u.
     unit-cell volume          =     273.8238 (a.u.)^3
     number of atoms/cell      =            1
     number of atomic types    =            1
     number of electrons       =         9.00
     number of Kohn-Sham states=            9
     kinetic-energy cutoff     =      40.0000  Ry
     charge density cutoff     =     320.0000  Ry
     convergence threshold     =      1.0E-08
     mixing beta               =       0.7000
     number of iterations used =            8  plain     mixing
     Exchange-correlation      = SLA  PW   PBE  PBE ( 1  4  3  4 0 0)
     nstep                     =           50


     celldm(1)=   8.181515  celldm(2)=   0.000000  celldm(3)=   0.000000
     celldm(4)=   0.000000  celldm(5)=   0.000000  celldm(6)=   0.000000

     crystal axes: (cart. coord. in units of alat)
               a(1) = (   0.500000   0.500000   0.500000 )  
               a(2) = (  -0.500000   0.500000   0.500000 )  
               a(3) = (  -0.500000  -0.500000   0.500000 )  

     reciprocal axes: (cart. coord. in units 2 pi/alat)
               b(1) = (  1.000000  0.000000  1.000000 )  
               b(2) = ( -1.000000  1.000000  0.000000 )  
               b(3) = (  0.000000 -1.000000  1.000000 )  


     PseudoPot. # 1 for Na read from file:
     /home/s1333534/quantum_espresso/qe-6.1/pseudo/Na_pbe_v1.uspp.F.UPF
     MD5 check sum: 76a99c7e9422403d3e93cbc85ab7bccb
     Pseudo is Ultrasoft, Zval =  9.0
     Generated by new atomic code, or converted to UPF format
     Using radial grid of  819 points,  5 beta functions with: 
                l(1) =   0
                l(2) =   0
                l(3) =   1
                l(4) =   1
                l(5) =   2
     Q(r) pseudized with  8 coefficients,  rinner =    1.250   1.250   1.250
                                                       1.250   1.250

     atomic species   valence    mass     pseudopotential
        Na             9.00    22.99000     Na( 1.00)

     48 Sym. Ops., with inversion, found



   Cartesian axes

     site n.     atom                  positions (alat units)
         1           Na  tau(   1) = (   0.0000000   0.0000000   0.0000000  )

     number of k points=   250  Marzari-Vanderbilt smearing, width (Ry)=  0.0200

     Number of k-points >= 100: set verbosity='high' to print them.

     Dense  grid:    26515 G-vectors     FFT dimensions: (  45,  45,  45)

     Smooth grid:     9405 G-vectors     FFT dimensions: (  30,  30,  30)

     Estimated max dynamical RAM per process >      14.78MB

     Estimated total allocated dynamical RAM >      59.10MB

     Initial potential from superposition of free atoms

     starting charge    8.99371, renormalised to    9.00000
     Starting wfc are    5 randomized atomic wfcs +    4 random wfc

     total cpu time spent up to now is        1.1 secs

     per-process dynamical memory:    20.6 Mb

     Self-consistent Calculation

     iteration #  1     ecut=    40.00 Ry     beta=0.70
     Davidson diagonalization with overlap
     ethr =  1.00E-02,  avg # of iterations =  5.9

     Threshold (ethr) on eigenvalues was too large:
     Diagonalizing with lowered threshold

     Davidson diagonalization with overlap
     ethr =  9.81E-06,  avg # of iterations =  4.9

     total cpu time spent up to now is        6.9 secs

     total energy              =     -95.10588971 Ry
     Harris-Foulkes estimate   =     -95.10604769 Ry
     estimated scf accuracy    <       0.00088236 Ry

     iteration #  2     ecut=    40.00 Ry     beta=0.70
     Davidson diagonalization with overlap
     ethr =  9.80E-06,  avg # of iterations =  1.9

     total cpu time spent up to now is        8.7 secs

     total energy              =     -95.10598343 Ry
     Harris-Foulkes estimate   =     -95.10600140 Ry
     estimated scf accuracy    <       0.00009625 Ry

     iteration #  3     ecut=    40.00 Ry     beta=0.70
     Davidson diagonalization with overlap
     ethr =  1.07E-06,  avg # of iterations =  2.1

     total cpu time spent up to now is       10.7 secs

     total energy              =     -95.10599571 Ry
     Harris-Foulkes estimate   =     -95.10599646 Ry
     estimated scf accuracy    <       0.00000580 Ry

     iteration #  4     ecut=    40.00 Ry     beta=0.70
     Davidson diagonalization with overlap
     ethr =  6.44E-08,  avg # of iterations =  1.0

     total cpu time spent up to now is       12.3 secs

     total energy              =     -95.10599628 Ry
     Harris-Foulkes estimate   =     -95.10599623 Ry
     estimated scf accuracy    <       0.00000002 Ry

     iteration #  5     ecut=    40.00 Ry     beta=0.70
     Davidson diagonalization with overlap
     ethr =  1.98E-10,  avg # of iterations =  3.0

     total cpu time spent up to now is       14.7 secs

     End of self-consistent calculation

     Number of k-points >= 100: set verbosity='high' to print the bands.

     the Fermi energy is     1.2487 ev

!    total energy              =     -95.10599631 Ry
     Harris-Foulkes estimate   =     -95.10599630 Ry
     estimated scf accuracy    <          1.6E-09 Ry

     The total energy is the sum of the following terms:

     one-electron contribution =     -90.07604153 Ry
     hartree contribution      =      45.25706544 Ry
     xc contribution           =     -14.25718773 Ry
     ewald contribution        =     -36.02974439 Ry
     smearing contrib. (-TS)   =      -0.00008810 Ry

     convergence has been achieved in   5 iterations

     Forces acting on atoms (cartesian axes, Ry/au):

     atom    1 type  1   force =     0.00000000    0.00000000    0.00000000

     Total force =     0.000000     Total SCF correction =     0.000000


     Computing stress (Cartesian axis) and pressure

          total   stress  (Ry/bohr**3)                   (kbar)     P=   -8.42
  -0.00005726  -0.00000000   0.00000000         -8.42     -0.00      0.00
  -0.00000000  -0.00005726   0.00000000         -0.00     -8.42      0.00
   0.00000000   0.00000000  -0.00005726          0.00      0.00     -8.42


     BFGS Geometry Optimization

     number of scf cycles    =   1
     number of bfgs steps    =   0

     enthalpy new            =     -95.1246104774 Ry

     new trust radius        =       0.0008866233 bohr
     new conv_thr            =       0.0000000100 Ry

     new unit-cell volume =    274.04398 a.u.^3 (    40.60913 Ang^3 )
     density =      0.94008 g/cm^3

CELL_PARAMETERS (alat=  8.18151542)
   0.500133950   0.500133950   0.500133950
  -0.500133950   0.500133950   0.500133950
  -0.500133950  -0.500133950   0.500133950

ATOMIC_POSITIONS (crystal)
Na       0.000000000   0.000000000   0.000000000



     Writing output data file na.bcc.save
     NEW-OLD atomic charge density approx. for the potential
     extrapolated charge    9.00722, renormalised to    9.00000

     total cpu time spent up to now is       16.2 secs

     per-process dynamical memory:    33.0 Mb

     Self-consistent Calculation

     iteration #  1     ecut=    40.00 Ry     beta=0.70
     Davidson diagonalization with overlap
     ethr =  1.00E-06,  avg # of iterations =  2.0

     total cpu time spent up to now is       18.4 secs

     total energy              =     -95.10594839 Ry
     Harris-Foulkes estimate   =     -95.04817504 Ry
     estimated scf accuracy    <       0.00001959 Ry

     iteration #  2     ecut=    40.00 Ry     beta=0.70
     Davidson diagonalization with overlap
     ethr =  2.18E-07,  avg # of iterations =  3.0

     total cpu time spent up to now is       20.6 secs

     total energy              =     -95.10598403 Ry
     Harris-Foulkes estimate   =     -95.10599837 Ry
     estimated scf accuracy    <       0.00003262 Ry

     iteration #  3     ecut=    40.00 Ry     beta=0.70
     Davidson diagonalization with overlap
     ethr =  2.18E-07,  avg # of iterations =  1.8

     total cpu time spent up to now is       22.4 secs

     total energy              =     -95.10598417 Ry
     Harris-Foulkes estimate   =     -95.10598616 Ry
     estimated scf accuracy    <       0.00000637 Ry

     iteration #  4     ecut=    40.00 Ry     beta=0.70
     Davidson diagonalization with overlap
     ethr =  7.08E-08,  avg # of iterations =  1.0

     total cpu time spent up to now is       24.1 secs

     total energy              =     -95.10598363 Ry
     Harris-Foulkes estimate   =     -95.10598445 Ry
     estimated scf accuracy    <       0.00000230 Ry

     iteration #  5     ecut=    40.00 Ry     beta=0.70
     Davidson diagonalization with overlap
     ethr =  2.55E-08,  avg # of iterations =  1.0

     total cpu time spent up to now is       25.8 secs

     total energy              =     -95.10598346 Ry
     Harris-Foulkes estimate   =     -95.10598372 Ry
     estimated scf accuracy    <       0.00000073 Ry

     iteration #  6     ecut=    40.00 Ry     beta=0.70
     Davidson diagonalization with overlap
     ethr =  8.16E-09,  avg # of iterations =  1.0

     total cpu time spent up to now is       27.5 secs

     total energy              =     -95.10598336 Ry
     Harris-Foulkes estimate   =     -95.10598349 Ry
     estimated scf accuracy    <       0.00000023 Ry

     iteration #  7     ecut=    40.00 Ry     beta=0.70
     Davidson diagonalization with overlap
     ethr =  2.60E-09,  avg # of iterations =  2.0

     total cpu time spent up to now is       29.4 secs

     End of self-consistent calculation

     Number of k-points >= 100: set verbosity='high' to print the bands.

     the Fermi energy is     1.2456 ev

!    total energy              =     -95.10598338 Ry
     Harris-Foulkes estimate   =     -95.10598339 Ry
     estimated scf accuracy    <          9.6E-09 Ry

     The total energy is the sum of the following terms:

     one-electron contribution =     -90.09338059 Ry
     hartree contribution      =      45.26474777 Ry
     xc contribution           =     -14.25716792 Ry
     ewald contribution        =     -36.02009458 Ry
     smearing contrib. (-TS)   =      -0.00008806 Ry

     convergence has been achieved in   7 iterations

     Forces acting on atoms (cartesian axes, Ry/au):

     atom    1 type  1   force =     0.00000000    0.00000000    0.00000000

     Total force =     0.000000     Total SCF correction =     0.000000


     Computing stress (Cartesian axis) and pressure

          total   stress  (Ry/bohr**3)                   (kbar)     P=   -7.95
  -0.00005407   0.00000000   0.00000000         -7.95      0.00      0.00
   0.00000000  -0.00005407   0.00000000          0.00     -7.95      0.00
   0.00000000   0.00000000  -0.00005407          0.00      0.00     -7.95


     number of scf cycles    =   2
     number of bfgs steps    =   1

     enthalpy old            =     -95.1246104774 Ry
     enthalpy new            =     -95.1246125153 Ry

     CASE: enthalpy_new < enthalpy_old


     WARNING: bfgs curvature condition failed, Theta= 0.616
     uphill step: resetting bfgs history

     new trust radius        =       0.0009754163 bohr
     new conv_thr            =            1.0E-10 Ry

     new unit-cell volume =    274.28626 a.u.^3 (    40.64503 Ang^3 )
     density =      0.93925 g/cm^3

CELL_PARAMETERS (alat=  8.18151542)
   0.500281296   0.500281296   0.500281296
  -0.500281296   0.500281296   0.500281296
  -0.500281296  -0.500281296   0.500281296

ATOMIC_POSITIONS (crystal)
Na       0.000000000   0.000000000   0.000000000



     Writing output data file na.bcc.save
     NEW-OLD atomic charge density approx. for the potential
     extrapolated charge    9.00794, renormalised to    9.00000

     total cpu time spent up to now is       30.9 secs

     per-process dynamical memory:    33.0 Mb

     Self-consistent Calculation

     iteration #  1     ecut=    40.00 Ry     beta=0.70
     Davidson diagonalization with overlap
     ethr =  1.00E-06,  avg # of iterations =  2.0

     total cpu time spent up to now is       33.1 secs

     total energy              =     -95.10592622 Ry
     Harris-Foulkes estimate   =     -95.04238526 Ry
     estimated scf accuracy    <       0.00002437 Ry

     iteration #  2     ecut=    40.00 Ry     beta=0.70
     Davidson diagonalization with overlap
     ethr =  2.71E-07,  avg # of iterations =  3.0

     total cpu time spent up to now is       35.3 secs

     total energy              =     -95.10596977 Ry
     Harris-Foulkes estimate   =     -95.10598732 Ry
     estimated scf accuracy    <       0.00003973 Ry

     iteration #  3     ecut=    40.00 Ry     beta=0.70
     Davidson diagonalization with overlap
     ethr =  2.71E-07,  avg # of iterations =  1.7

     total cpu time spent up to now is       37.1 secs

     total energy              =     -95.10597008 Ry
     Harris-Foulkes estimate   =     -95.10597239 Ry
     estimated scf accuracy    <       0.00000766 Ry

     iteration #  4     ecut=    40.00 Ry     beta=0.70
     Davidson diagonalization with overlap
     ethr =  8.51E-08,  avg # of iterations =  1.0

     total cpu time spent up to now is       38.8 secs

     total energy              =     -95.10596941 Ry
     Harris-Foulkes estimate   =     -95.10597041 Ry
     estimated scf accuracy    <       0.00000289 Ry

     iteration #  5     ecut=    40.00 Ry     beta=0.70
     Davidson diagonalization with overlap
     ethr =  3.21E-08,  avg # of iterations =  1.0

     total cpu time spent up to now is       40.5 secs

     total energy              =     -95.10596916 Ry
     Harris-Foulkes estimate   =     -95.10596952 Ry
     estimated scf accuracy    <       0.00000098 Ry

     iteration #  6     ecut=    40.00 Ry     beta=0.70
     Davidson diagonalization with overlap
     ethr =  1.09E-08,  avg # of iterations =  1.0

     total cpu time spent up to now is       42.2 secs

     total energy              =     -95.10596904 Ry
     Harris-Foulkes estimate   =     -95.10596920 Ry
     estimated scf accuracy    <       0.00000029 Ry

     iteration #  7     ecut=    40.00 Ry     beta=0.70
     Davidson diagonalization with overlap
     ethr =  3.26E-09,  avg # of iterations =  2.0

     total cpu time spent up to now is       44.1 secs

     total energy              =     -95.10596907 Ry
     Harris-Foulkes estimate   =     -95.10596908 Ry
     estimated scf accuracy    <       0.00000001 Ry

     iteration #  8     ecut=    40.00 Ry     beta=0.70
     Davidson diagonalization with overlap
     ethr =  1.49E-10,  avg # of iterations =  2.0

     total cpu time spent up to now is       46.1 secs

     End of self-consistent calculation

     Number of k-points >= 100: set verbosity='high' to print the bands.

     the Fermi energy is     1.2423 ev

!    total energy              =     -95.10596907 Ry
     Harris-Foulkes estimate   =     -95.10596907 Ry
     estimated scf accuracy    <          4.8E-11 Ry

     The total energy is the sum of the following terms:

     one-electron contribution =     -90.11165950 Ry
     hartree contribution      =      45.27223331 Ry
     xc contribution           =     -14.25696909 Ry
     ewald contribution        =     -36.00948577 Ry
     smearing contrib. (-TS)   =      -0.00008802 Ry

     convergence has been achieved in   8 iterations

     Forces acting on atoms (cartesian axes, Ry/au):

     atom    1 type  1   force =     0.00000000    0.00000000    0.00000000

     Total force =     0.000000     Total SCF correction =     0.000000


     Computing stress (Cartesian axis) and pressure

          total   stress  (Ry/bohr**3)                   (kbar)     P=   -8.67
  -0.00005897  -0.00000000   0.00000000         -8.67     -0.00      0.00
  -0.00000000  -0.00005897  -0.00000000         -0.00     -8.67     -0.00
   0.00000000  -0.00000000  -0.00005897          0.00     -0.00     -8.67


     number of scf cycles    =   3
     number of bfgs steps    =   2

     enthalpy old            =     -95.1246125153 Ry
     enthalpy new            =     -95.1246146730 Ry

     CASE: enthalpy_new < enthalpy_old

     new trust radius        =       0.0014633400 bohr
     new conv_thr            =            1.0E-10 Ry

     new unit-cell volume =    274.64995 a.u.^3 (    40.69892 Ang^3 )
     density =      0.93800 g/cm^3

CELL_PARAMETERS (alat=  8.18151542)
   0.500502313   0.500502313   0.500502313
  -0.500502313   0.500502313   0.500502313
  -0.500502313  -0.500502313   0.500502313

ATOMIC_POSITIONS (crystal)
Na       0.000000000   0.000000000   0.000000000



     Writing output data file na.bcc.save
     NEW-OLD atomic charge density approx. for the potential
     extrapolated charge    9.01191, renormalised to    9.00000

     total cpu time spent up to now is       47.6 secs

     per-process dynamical memory:    33.0 Mb

     Self-consistent Calculation

     iteration #  1     ecut=    40.00 Ry     beta=0.70
     Davidson diagonalization with overlap
     ethr =  1.00E-06,  avg # of iterations =  2.0

     total cpu time spent up to now is       49.9 secs

     total energy              =     -95.10585228 Ry
     Harris-Foulkes estimate   =     -95.01058891 Ry
     estimated scf accuracy    <       0.00005309 Ry

     iteration #  2     ecut=    40.00 Ry     beta=0.70
     Davidson diagonalization with overlap
     ethr =  5.90E-07,  avg # of iterations =  3.0

     total cpu time spent up to now is       52.1 secs

     total energy              =     -95.10594920 Ry
     Harris-Foulkes estimate   =     -95.10598819 Ry
     estimated scf accuracy    <       0.00008876 Ry

     iteration #  3     ecut=    40.00 Ry     beta=0.70
     Davidson diagonalization with overlap
     ethr =  5.90E-07,  avg # of iterations =  1.8

     total cpu time spent up to now is       53.9 secs

     total energy              =     -95.10594951 Ry
     Harris-Foulkes estimate   =     -95.10595499 Ry
     estimated scf accuracy    <       0.00001738 Ry

     iteration #  4     ecut=    40.00 Ry     beta=0.70
     Davidson diagonalization with overlap
     ethr =  1.93E-07,  avg # of iterations =  1.0

     total cpu time spent up to now is       55.6 secs

     total energy              =     -95.10594806 Ry
     Harris-Foulkes estimate   =     -95.10595028 Ry
     estimated scf accuracy    <       0.00000625 Ry

     iteration #  5     ecut=    40.00 Ry     beta=0.70
     Davidson diagonalization with overlap
     ethr =  6.94E-08,  avg # of iterations =  1.0

     total cpu time spent up to now is       57.3 secs

     total energy              =     -95.10594761 Ry
     Harris-Foulkes estimate   =     -95.10594832 Ry
     estimated scf accuracy    <       0.00000202 Ry

     iteration #  6     ecut=    40.00 Ry     beta=0.70
     Davidson diagonalization with overlap
     ethr =  2.25E-08,  avg # of iterations =  1.0

     total cpu time spent up to now is       59.0 secs

     total energy              =     -95.10594734 Ry
     Harris-Foulkes estimate   =     -95.10594770 Ry
     estimated scf accuracy    <       0.00000065 Ry

     iteration #  7     ecut=    40.00 Ry     beta=0.70
     Davidson diagonalization with overlap
     ethr =  7.24E-09,  avg # of iterations =  1.8

     total cpu time spent up to now is       60.8 secs

     total energy              =     -95.10594738 Ry
     Harris-Foulkes estimate   =     -95.10594742 Ry
     estimated scf accuracy    <       0.00000005 Ry

     iteration #  8     ecut=    40.00 Ry     beta=0.70
     Davidson diagonalization with overlap
     ethr =  5.53E-10,  avg # of iterations =  2.0

     total cpu time spent up to now is       62.8 secs

     total energy              =     -95.10594740 Ry
     Harris-Foulkes estimate   =     -95.10594740 Ry
     estimated scf accuracy    <          1.3E-09 Ry

     iteration #  9     ecut=    40.00 Ry     beta=0.70
     Davidson diagonalization with overlap
     ethr =  1.46E-11,  avg # of iterations =  1.3

     total cpu time spent up to now is       64.5 secs

     total energy              =     -95.10594740 Ry
     Harris-Foulkes estimate   =     -95.10594740 Ry
     estimated scf accuracy    <          9.4E-10 Ry

     iteration # 10     ecut=    40.00 Ry     beta=0.70
     Davidson diagonalization with overlap
     ethr =  1.05E-11,  avg # of iterations =  1.0

     total cpu time spent up to now is       66.2 secs

     total energy              =     -95.10594740 Ry
     Harris-Foulkes estimate   =     -95.10594740 Ry
     estimated scf accuracy    <          5.1E-10 Ry

     iteration # 11     ecut=    40.00 Ry     beta=0.70
     Davidson diagonalization with overlap
     ethr =  5.68E-12,  avg # of iterations =  2.0

     total cpu time spent up to now is       68.2 secs

     End of self-consistent calculation

     Number of k-points >= 100: set verbosity='high' to print the bands.

     the Fermi energy is     1.2373 ev

!    total energy              =     -95.10594740 Ry
     Harris-Foulkes estimate   =     -95.10594740 Ry
     estimated scf accuracy    <          1.7E-11 Ry

     The total energy is the sum of the following terms:

     one-electron contribution =     -90.13963907 Ry
     hartree contribution      =      45.28416546 Ry
     xc contribution           =     -14.25680157 Ry
     ewald contribution        =     -35.99358426 Ry
     smearing contrib. (-TS)   =      -0.00008796 Ry

     convergence has been achieved in  11 iterations

     Forces acting on atoms (cartesian axes, Ry/au):

     atom    1 type  1   force =     0.00000000    0.00000000    0.00000000

     Total force =     0.000000     Total SCF correction =     0.000000


     Computing stress (Cartesian axis) and pressure

          total   stress  (Ry/bohr**3)                   (kbar)     P=   -8.80
  -0.00005983   0.00000000  -0.00000000         -8.80      0.00     -0.00
   0.00000000  -0.00005983   0.00000000          0.00     -8.80      0.00
  -0.00000000   0.00000000  -0.00005983         -0.00      0.00     -8.80


     number of scf cycles    =   4
     number of bfgs steps    =   3

     enthalpy old            =     -95.1246146730 Ry
     enthalpy new            =     -95.1246177240 Ry

     CASE: enthalpy_new < enthalpy_old


     WARNING: bfgs curvature condition failed, Theta= 0.906
     new trust radius        =       0.0021954948 bohr
     new conv_thr            =            1.0E-10 Ry

     new unit-cell volume =    275.19608 a.u.^3 (    40.77985 Ang^3 )
     density =      0.93614 g/cm^3

CELL_PARAMETERS (alat=  8.18151542)
   0.500833840   0.500833840   0.500833840
  -0.500833840   0.500833840   0.500833840
  -0.500833840  -0.500833840   0.500833840

ATOMIC_POSITIONS (crystal)
Na       0.000000000   0.000000000   0.000000000



     Writing output data file na.bcc.save
     NEW-OLD atomic charge density approx. for the potential
     extrapolated charge    9.01785, renormalised to    9.00000

     total cpu time spent up to now is       69.7 secs

     per-process dynamical memory:    33.0 Mb

     Self-consistent Calculation

     iteration #  1     ecut=    40.00 Ry     beta=0.70
     Davidson diagonalization with overlap
     ethr =  1.00E-06,  avg # of iterations =  2.0

     total cpu time spent up to now is       72.0 secs

     total energy              =     -95.10570039 Ry
     Harris-Foulkes estimate   =     -94.96291555 Ry
     estimated scf accuracy    <       0.00011938 Ry

     iteration #  2     ecut=    40.00 Ry     beta=0.70
     Davidson diagonalization with overlap
     ethr =  1.33E-06,  avg # of iterations =  3.0

     total cpu time spent up to now is       74.4 secs

     total energy              =     -95.10591857 Ry
     Harris-Foulkes estimate   =     -95.10600631 Ry
     estimated scf accuracy    <       0.00019980 Ry

     iteration #  3     ecut=    40.00 Ry     beta=0.70
     Davidson diagonalization with overlap
     ethr =  1.33E-06,  avg # of iterations =  1.9

     total cpu time spent up to now is       76.2 secs

     total energy              =     -95.10591838 Ry
     Harris-Foulkes estimate   =     -95.10593167 Ry
     estimated scf accuracy    <       0.00003893 Ry

     iteration #  4     ecut=    40.00 Ry     beta=0.70
     Davidson diagonalization with overlap
     ethr =  4.33E-07,  avg # of iterations =  1.0

     total cpu time spent up to now is       77.9 secs

     total energy              =     -95.10591526 Ry
     Harris-Foulkes estimate   =     -95.10592019 Ry
     estimated scf accuracy    <       0.00001260 Ry

     iteration #  5     ecut=    40.00 Ry     beta=0.70
     Davidson diagonalization with overlap
     ethr =  1.40E-07,  avg # of iterations =  1.0

     total cpu time spent up to now is       79.6 secs

     total energy              =     -95.10591499 Ry
     Harris-Foulkes estimate   =     -95.10591594 Ry
     estimated scf accuracy    <       0.00000329 Ry

     iteration #  6     ecut=    40.00 Ry     beta=0.70
     Davidson diagonalization with overlap
     ethr =  3.65E-08,  avg # of iterations =  1.0

     total cpu time spent up to now is       81.3 secs

     total energy              =     -95.10591505 Ry
     Harris-Foulkes estimate   =     -95.10591510 Ry
     estimated scf accuracy    <       0.00000140 Ry

     iteration #  7     ecut=    40.00 Ry     beta=0.70
     Davidson diagonalization with overlap
     ethr =  1.55E-08,  avg # of iterations =  1.0

     total cpu time spent up to now is       83.0 secs

     total energy              =     -95.10591409 Ry
     Harris-Foulkes estimate   =     -95.10591506 Ry
     estimated scf accuracy    <       0.00000136 Ry

     iteration #  8     ecut=    40.00 Ry     beta=0.70
     Davidson diagonalization with overlap
     ethr =  1.51E-08,  avg # of iterations =  2.0

     total cpu time spent up to now is       85.0 secs

     total energy              =     -95.10591444 Ry
     Harris-Foulkes estimate   =     -95.10591447 Ry
     estimated scf accuracy    <       0.00000005 Ry

     iteration #  9     ecut=    40.00 Ry     beta=0.70
     Davidson diagonalization with overlap
     ethr =  5.77E-10,  avg # of iterations =  2.0

     total cpu time spent up to now is       86.9 secs

     total energy              =     -95.10591445 Ry
     Harris-Foulkes estimate   =     -95.10591445 Ry
     estimated scf accuracy    <          3.4E-09 Ry

     iteration # 10     ecut=    40.00 Ry     beta=0.70
     Davidson diagonalization with overlap
     ethr =  3.77E-11,  avg # of iterations =  2.0

     total cpu time spent up to now is       88.9 secs

     total energy              =     -95.10591445 Ry
     Harris-Foulkes estimate   =     -95.10591445 Ry
     estimated scf accuracy    <          2.0E-09 Ry

     iteration # 11     ecut=    40.00 Ry     beta=0.70
     Davidson diagonalization with overlap
     ethr =  2.17E-11,  avg # of iterations =  1.0

     total cpu time spent up to now is       90.6 secs

     total energy              =     -95.10591444 Ry
     Harris-Foulkes estimate   =     -95.10591445 Ry
     estimated scf accuracy    <          4.6E-09 Ry

     iteration # 12     ecut=    40.00 Ry     beta=0.70
     Davidson diagonalization with overlap
     ethr =  2.17E-11,  avg # of iterations =  2.0

     total cpu time spent up to now is       92.6 secs

     total energy              =     -95.10591445 Ry
     Harris-Foulkes estimate   =     -95.10591445 Ry
     estimated scf accuracy    <          8.8E-10 Ry

     iteration # 13     ecut=    40.00 Ry     beta=0.70
     Davidson diagonalization with overlap
     ethr =  9.73E-12,  avg # of iterations =  1.4

     total cpu time spent up to now is       94.3 secs

     End of self-consistent calculation

     Number of k-points >= 100: set verbosity='high' to print the bands.

     the Fermi energy is     1.2298 ev

!    total energy              =     -95.10591445 Ry
     Harris-Foulkes estimate   =     -95.10591445 Ry
     estimated scf accuracy    <          5.1E-11 Ry

     The total energy is the sum of the following terms:

     one-electron contribution =     -90.18155745 Ry
     hartree contribution      =      45.30203783 Ry
     xc contribution           =     -14.25654864 Ry
     ewald contribution        =     -35.96975831 Ry
     smearing contrib. (-TS)   =      -0.00008786 Ry

     convergence has been achieved in  13 iterations

     Forces acting on atoms (cartesian axes, Ry/au):

     atom    1 type  1   force =     0.00000000    0.00000000    0.00000000

     Total force =     0.000000     Total SCF correction =     0.000000


     Computing stress (Cartesian axis) and pressure

          total   stress  (Ry/bohr**3)                   (kbar)     P=   -8.98
  -0.00006108  -0.00000000   0.00000000         -8.98     -0.00      0.00
  -0.00000000  -0.00006108  -0.00000000         -0.00     -8.98     -0.00
   0.00000000  -0.00000000  -0.00006108          0.00     -0.00     -8.98


     number of scf cycles    =   5
     number of bfgs steps    =   4

     enthalpy old            =     -95.1246177240 Ry
     enthalpy new            =     -95.1246218977 Ry

     CASE: enthalpy_new < enthalpy_old

     new trust radius        =       0.0032943327 bohr
     new conv_thr            =            1.0E-10 Ry

     new unit-cell volume =    276.01664 a.u.^3 (    40.90145 Ang^3 )
     density =      0.93336 g/cm^3

CELL_PARAMETERS (alat=  8.18151542)
   0.501331131   0.501331131   0.501331131
  -0.501331131   0.501331131   0.501331131
  -0.501331131  -0.501331131   0.501331131

ATOMIC_POSITIONS (crystal)
Na       0.000000000   0.000000000   0.000000000



     Writing output data file na.bcc.save
     NEW-OLD atomic charge density approx. for the potential
     extrapolated charge    9.02674, renormalised to    9.00000

     total cpu time spent up to now is       95.8 secs

     per-process dynamical memory:    33.0 Mb

     Self-consistent Calculation

     iteration #  1     ecut=    40.00 Ry     beta=0.70
     Davidson diagonalization with overlap
     ethr =  1.00E-06,  avg # of iterations =  2.0

     total cpu time spent up to now is       98.1 secs

     total energy              =     -95.10538209 Ry
     Harris-Foulkes estimate   =     -94.89145338 Ry
     estimated scf accuracy    <       0.00026857 Ry

     iteration #  2     ecut=    40.00 Ry     beta=0.70
     Davidson diagonalization with overlap
     ethr =  2.98E-06,  avg # of iterations =  3.0

     total cpu time spent up to now is      100.7 secs

     total energy              =     -95.10587351 Ry
     Harris-Foulkes estimate   =     -95.10607104 Ry
     estimated scf accuracy    <       0.00044988 Ry

     iteration #  3     ecut=    40.00 Ry     beta=0.70
     Davidson diagonalization with overlap
     ethr =  2.98E-06,  avg # of iterations =  1.9

     total cpu time spent up to now is      102.5 secs

     total energy              =     -95.10587145 Ry
     Harris-Foulkes estimate   =     -95.10590312 Ry
     estimated scf accuracy    <       0.00008734 Ry

     iteration #  4     ecut=    40.00 Ry     beta=0.70
     Davidson diagonalization with overlap
     ethr =  9.70E-07,  avg # of iterations =  1.0

     total cpu time spent up to now is      104.2 secs

     total energy              =     -95.10586361 Ry
     Harris-Foulkes estimate   =     -95.10587571 Ry
     estimated scf accuracy    <       0.00002593 Ry

     iteration #  5     ecut=    40.00 Ry     beta=0.70
     Davidson diagonalization with overlap
     ethr =  2.88E-07,  avg # of iterations =  1.3

     total cpu time spent up to now is      105.9 secs

     total energy              =     -95.10586525 Ry
     Harris-Foulkes estimate   =     -95.10586579 Ry
     estimated scf accuracy    <       0.00000399 Ry

     iteration #  6     ecut=    40.00 Ry     beta=0.70
     Davidson diagonalization with overlap
     ethr =  4.43E-08,  avg # of iterations =  1.0

     total cpu time spent up to now is      107.6 secs

     total energy              =     -95.10586497 Ry
     Harris-Foulkes estimate   =     -95.10586536 Ry
     estimated scf accuracy    <       0.00000308 Ry

     iteration #  7     ecut=    40.00 Ry     beta=0.70
     Davidson diagonalization with overlap
     ethr =  3.42E-08,  avg # of iterations =  1.0

     total cpu time spent up to now is      109.3 secs

     total energy              =     -95.10586587 Ry
     Harris-Foulkes estimate   =     -95.10586500 Ry
     estimated scf accuracy    <       0.00000215 Ry

     iteration #  8     ecut=    40.00 Ry     beta=0.70
     Davidson diagonalization with overlap
     ethr =  2.39E-08,  avg # of iterations =  1.0

     total cpu time spent up to now is      111.0 secs

     total energy              =     -95.10586302 Ry
     Harris-Foulkes estimate   =     -95.10586594 Ry
     estimated scf accuracy    <       0.00000422 Ry

     iteration #  9     ecut=    40.00 Ry     beta=0.70
     Davidson diagonalization with overlap
     ethr =  2.39E-08,  avg # of iterations =  2.0

     total cpu time spent up to now is      113.0 secs

     total energy              =     -95.10586404 Ry
     Harris-Foulkes estimate   =     -95.10586404 Ry
     estimated scf accuracy    <       0.00000005 Ry

     iteration # 10     ecut=    40.00 Ry     beta=0.70
     Davidson diagonalization with overlap
     ethr =  5.38E-10,  avg # of iterations =  1.0

     total cpu time spent up to now is      114.7 secs

     total energy              =     -95.10586405 Ry
     Harris-Foulkes estimate   =     -95.10586404 Ry
     estimated scf accuracy    <       0.00000004 Ry

     iteration # 11     ecut=    40.00 Ry     beta=0.70
     Davidson diagonalization with overlap
     ethr =  3.96E-10,  avg # of iterations =  1.0

     total cpu time spent up to now is      116.4 secs

     total energy              =     -95.10586403 Ry
     Harris-Foulkes estimate   =     -95.10586405 Ry
     estimated scf accuracy    <       0.00000006 Ry

     iteration # 12     ecut=    40.00 Ry     beta=0.70
     Davidson diagonalization with overlap
     ethr =  3.96E-10,  avg # of iterations =  1.0

     total cpu time spent up to now is      118.1 secs

     total energy              =     -95.10586402 Ry
     Harris-Foulkes estimate   =     -95.10586403 Ry
     estimated scf accuracy    <       0.00000003 Ry

     iteration # 13     ecut=    40.00 Ry     beta=0.70
     Davidson diagonalization with overlap
     ethr =  3.12E-10,  avg # of iterations =  2.0

     total cpu time spent up to now is      120.1 secs

     total energy              =     -95.10586402 Ry
     Harris-Foulkes estimate   =     -95.10586402 Ry
     estimated scf accuracy    <          2.1E-10 Ry

     iteration # 14     ecut=    40.00 Ry     beta=0.70
     Davidson diagonalization with overlap
     ethr =  2.38E-12,  avg # of iterations =  2.0

     total cpu time spent up to now is      122.0 secs

     total energy              =     -95.10586402 Ry
     Harris-Foulkes estimate   =     -95.10586402 Ry
     estimated scf accuracy    <          1.1E-10 Ry

     iteration # 15     ecut=    40.00 Ry     beta=0.70
     Davidson diagonalization with overlap
     ethr =  1.17E-12,  avg # of iterations =  1.0

     total cpu time spent up to now is      123.7 secs

     total energy              =     -95.10586402 Ry
     Harris-Foulkes estimate   =     -95.10586402 Ry
     estimated scf accuracy    <          1.3E-10 Ry

     iteration # 16     ecut=    40.00 Ry     beta=0.70
     Davidson diagonalization with overlap
     ethr =  1.17E-12,  avg # of iterations =  1.0

     total cpu time spent up to now is      125.4 secs

     End of self-consistent calculation

     Number of k-points >= 100: set verbosity='high' to print the bands.

     the Fermi energy is     1.2187 ev

!    total energy              =     -95.10586402 Ry
     Harris-Foulkes estimate   =     -95.10586402 Ry
     estimated scf accuracy    <          6.3E-11 Ry

     The total energy is the sum of the following terms:

     one-electron contribution =     -90.24444136 Ry
     hartree contribution      =      45.32893733 Ry
     xc contribution           =     -14.25619379 Ry
     ewald contribution        =     -35.93407848 Ry
     smearing contrib. (-TS)   =      -0.00008772 Ry

     convergence has been achieved in  16 iterations

     Forces acting on atoms (cartesian axes, Ry/au):

     atom    1 type  1   force =     0.00000000    0.00000000    0.00000000

     Total force =     0.000000     Total SCF correction =     0.000000


     Computing stress (Cartesian axis) and pressure

          total   stress  (Ry/bohr**3)                   (kbar)     P=   -9.10
  -0.00006187   0.00000000  -0.00000000         -9.10      0.00     -0.00
   0.00000000  -0.00006187   0.00000000          0.00     -9.10      0.00
  -0.00000000   0.00000000  -0.00006187         -0.00      0.00     -9.10


     number of scf cycles    =   6
     number of bfgs steps    =   5

     enthalpy old            =     -95.1246218977 Ry
     enthalpy new            =     -95.1246272574 Ry

     CASE: enthalpy_new < enthalpy_old

     new trust radius        =       0.0049439517 bohr
     new conv_thr            =            1.0E-10 Ry

     new unit-cell volume =    277.25054 a.u.^3 (    41.08429 Ang^3 )
     density =      0.92921 g/cm^3

CELL_PARAMETERS (alat=  8.18151542)
   0.502077066   0.502077066   0.502077066
  -0.502077066   0.502077066   0.502077066
  -0.502077066  -0.502077066   0.502077066

ATOMIC_POSITIONS (crystal)
Na       0.000000000   0.000000000   0.000000000



     Writing output data file na.bcc.save
     NEW-OLD atomic charge density approx. for the potential
     extrapolated charge    9.04003, renormalised to    9.00000

     total cpu time spent up to now is      126.9 secs

     per-process dynamical memory:    33.0 Mb

     Self-consistent Calculation

     iteration #  1     ecut=    40.00 Ry     beta=0.70
     Davidson diagonalization with overlap
     ethr =  1.00E-06,  avg # of iterations =  2.3

     total cpu time spent up to now is      129.3 secs

     total energy              =     -95.10469960 Ry
     Harris-Foulkes estimate   =     -94.78436853 Ry
     estimated scf accuracy    <       0.00060566 Ry

     iteration #  2     ecut=    40.00 Ry     beta=0.70
     Davidson diagonalization with overlap
     ethr =  6.73E-06,  avg # of iterations =  3.0

     total cpu time spent up to now is      131.8 secs

     total energy              =     -95.10580802 Ry
     Harris-Foulkes estimate   =     -95.10625328 Ry
     estimated scf accuracy    <       0.00101394 Ry

     iteration #  3     ecut=    40.00 Ry     beta=0.70
     Davidson diagonalization with overlap
     ethr =  6.73E-06,  avg # of iterations =  1.9

     total cpu time spent up to now is      133.7 secs

     total energy              =     -95.10580345 Ry
     Harris-Foulkes estimate   =     -95.10587454 Ry
     estimated scf accuracy    <       0.00019749 Ry

     iteration #  4     ecut=    40.00 Ry     beta=0.70
     Davidson diagonalization with overlap
     ethr =  2.19E-06,  avg # of iterations =  1.0

     total cpu time spent up to now is      135.3 secs

     total energy              =     -95.10578583 Ry
     Harris-Foulkes estimate   =     -95.10581298 Ry
     estimated scf accuracy    <       0.00005937 Ry

     iteration #  5     ecut=    40.00 Ry     beta=0.70
     Davidson diagonalization with overlap
     ethr =  6.60E-07,  avg # of iterations =  1.1

     total cpu time spent up to now is      137.1 secs

     total energy              =     -95.10578880 Ry
     Harris-Foulkes estimate   =     -95.10579055 Ry
     estimated scf accuracy    <       0.00000985 Ry

     iteration #  6     ecut=    40.00 Ry     beta=0.70
     Davidson diagonalization with overlap
     ethr =  1.09E-07,  avg # of iterations =  1.0

     total cpu time spent up to now is      138.7 secs

     total energy              =     -95.10578833 Ry
     Harris-Foulkes estimate   =     -95.10578910 Ry
     estimated scf accuracy    <       0.00000664 Ry

     iteration #  7     ecut=    40.00 Ry     beta=0.70
     Davidson diagonalization with overlap
     ethr =  7.38E-08,  avg # of iterations =  1.0

     total cpu time spent up to now is      140.4 secs

     total energy              =     -95.10579003 Ry
     Harris-Foulkes estimate   =     -95.10578838 Ry
     estimated scf accuracy    <       0.00000485 Ry

     iteration #  8     ecut=    40.00 Ry     beta=0.70
     Davidson diagonalization with overlap
     ethr =  5.38E-08,  avg # of iterations =  1.0

     total cpu time spent up to now is      142.1 secs

     total energy              =     -95.10578414 Ry
     Harris-Foulkes estimate   =     -95.10579014 Ry
     estimated scf accuracy    <       0.00000868 Ry

     iteration #  9     ecut=    40.00 Ry     beta=0.70
     Davidson diagonalization with overlap
     ethr =  5.38E-08,  avg # of iterations =  2.0

     total cpu time spent up to now is      144.1 secs

     total energy              =     -95.10578620 Ry
     Harris-Foulkes estimate   =     -95.10578620 Ry
     estimated scf accuracy    <       0.00000007 Ry

     iteration # 10     ecut=    40.00 Ry     beta=0.70
     Davidson diagonalization with overlap
     ethr =  7.81E-10,  avg # of iterations =  1.0

     total cpu time spent up to now is      145.8 secs

     total energy              =     -95.10578622 Ry
     Harris-Foulkes estimate   =     -95.10578620 Ry
     estimated scf accuracy    <       0.00000006 Ry

     iteration # 11     ecut=    40.00 Ry     beta=0.70
     Davidson diagonalization with overlap
     ethr =  7.15E-10,  avg # of iterations =  1.0

     total cpu time spent up to now is      147.5 secs

     total energy              =     -95.10578618 Ry
     Harris-Foulkes estimate   =     -95.10578622 Ry
     estimated scf accuracy    <       0.00000010 Ry

     iteration # 12     ecut=    40.00 Ry     beta=0.70
     Davidson diagonalization with overlap
     ethr =  7.15E-10,  avg # of iterations =  1.0

     total cpu time spent up to now is      149.2 secs

     total energy              =     -95.10578617 Ry
     Harris-Foulkes estimate   =     -95.10578619 Ry
     estimated scf accuracy    <       0.00000003 Ry

     iteration # 13     ecut=    40.00 Ry     beta=0.70
     Davidson diagonalization with overlap
     ethr =  2.80E-10,  avg # of iterations =  2.0

     total cpu time spent up to now is      151.2 secs

     total energy              =     -95.10578618 Ry
     Harris-Foulkes estimate   =     -95.10578618 Ry
     estimated scf accuracy    <          1.1E-09 Ry

     iteration # 14     ecut=    40.00 Ry     beta=0.70
     Davidson diagonalization with overlap
     ethr =  1.25E-11,  avg # of iterations =  2.0

     total cpu time spent up to now is      153.2 secs

     End of self-consistent calculation

     Number of k-points >= 100: set verbosity='high' to print the bands.

     the Fermi energy is     1.2020 ev

!    total energy              =     -95.10578618 Ry
     Harris-Foulkes estimate   =     -95.10578618 Ry
     estimated scf accuracy    <          5.0E-11 Ry

     The total energy is the sum of the following terms:

     one-electron contribution =     -90.33847923 Ry
     hartree contribution      =      45.36912073 Ry
     xc contribution           =     -14.25564890 Ry
     ewald contribution        =     -35.88069125 Ry
     smearing contrib. (-TS)   =      -0.00008752 Ry

     convergence has been achieved in  14 iterations

     Forces acting on atoms (cartesian axes, Ry/au):

     atom    1 type  1   force =     0.00000000    0.00000000    0.00000000

     Total force =     0.000000     Total SCF correction =     0.000000


     Computing stress (Cartesian axis) and pressure

          total   stress  (Ry/bohr**3)                   (kbar)     P=   -9.39
  -0.00006383   0.00000000  -0.00000000         -9.39      0.00     -0.00
   0.00000000  -0.00006383   0.00000000          0.00     -9.39      0.00
  -0.00000000   0.00000000  -0.00006383         -0.00      0.00     -9.39


     number of scf cycles    =   7
     number of bfgs steps    =   6

     enthalpy old            =     -95.1246272574 Ry
     enthalpy new            =     -95.1246332912 Ry

     CASE: enthalpy_new < enthalpy_old

     new trust radius        =       0.0074214426 bohr
     new conv_thr            =            1.0E-10 Ry

     new unit-cell volume =    279.10828 a.u.^3 (    41.35958 Ang^3 )
     density =      0.92302 g/cm^3

CELL_PARAMETERS (alat=  8.18151542)
   0.503195969   0.503195969   0.503195969
  -0.503195969   0.503195969   0.503195969
  -0.503195969  -0.503195969   0.503195969

ATOMIC_POSITIONS (crystal)
Na       0.000000000   0.000000000   0.000000000



     Writing output data file na.bcc.save
     NEW-OLD atomic charge density approx. for the potential
     extrapolated charge    9.05986, renormalised to    9.00000

     total cpu time spent up to now is      154.7 secs

     per-process dynamical memory:    33.0 Mb

     Self-consistent Calculation

     iteration #  1     ecut=    40.00 Ry     beta=0.70
     Davidson diagonalization with overlap
     ethr =  1.00E-06,  avg # of iterations =  3.0

     total cpu time spent up to now is      157.2 secs

     total energy              =     -95.10321353 Ry
     Harris-Foulkes estimate   =     -94.62398777 Ry
     estimated scf accuracy    <       0.00136558 Ry

     iteration #  2     ecut=    40.00 Ry     beta=0.70
     Davidson diagonalization with overlap
     ethr =  1.52E-05,  avg # of iterations =  3.0

     total cpu time spent up to now is      159.8 secs

     total energy              =     -95.10571558 Ry
     Harris-Foulkes estimate   =     -95.10671963 Ry
     estimated scf accuracy    <       0.00228656 Ry

     iteration #  3     ecut=    40.00 Ry     beta=0.70
     Davidson diagonalization with overlap
     ethr =  1.52E-05,  avg # of iterations =  1.9

     total cpu time spent up to now is      161.6 secs

     total energy              =     -95.10570452 Ry
     Harris-Foulkes estimate   =     -95.10586484 Ry
     estimated scf accuracy    <       0.00044767 Ry

     iteration #  4     ecut=    40.00 Ry     beta=0.70
     Davidson diagonalization with overlap
     ethr =  4.97E-06,  avg # of iterations =  1.0

     total cpu time spent up to now is      163.3 secs

     total energy              =     -95.10566473 Ry
     Harris-Foulkes estimate   =     -95.10572595 Ry
     estimated scf accuracy    <       0.00013585 Ry

     iteration #  5     ecut=    40.00 Ry     beta=0.70
     Davidson diagonalization with overlap
     ethr =  1.51E-06,  avg # of iterations =  1.1

     total cpu time spent up to now is      165.0 secs

     total energy              =     -95.10567027 Ry
     Harris-Foulkes estimate   =     -95.10567510 Ry
     estimated scf accuracy    <       0.00002383 Ry

     iteration #  6     ecut=    40.00 Ry     beta=0.70
     Davidson diagonalization with overlap
     ethr =  2.65E-07,  avg # of iterations =  1.0

     total cpu time spent up to now is      166.7 secs

     total energy              =     -95.10566979 Ry
     Harris-Foulkes estimate   =     -95.10567103 Ry
     estimated scf accuracy    <       0.00001471 Ry

     iteration #  7     ecut=    40.00 Ry     beta=0.70
     Davidson diagonalization with overlap
     ethr =  1.63E-07,  avg # of iterations =  1.0

     total cpu time spent up to now is      168.4 secs

     total energy              =     -95.10566575 Ry
     Harris-Foulkes estimate   =     -95.10566986 Ry
     estimated scf accuracy    <       0.00001178 Ry

     iteration #  8     ecut=    40.00 Ry     beta=0.70
     Davidson diagonalization with overlap
     ethr =  1.31E-07,  avg # of iterations =  1.0

     total cpu time spent up to now is      170.1 secs

     total energy              =     -95.10566351 Ry
     Harris-Foulkes estimate   =     -95.10566621 Ry
     estimated scf accuracy    <       0.00000382 Ry

     iteration #  9     ecut=    40.00 Ry     beta=0.70
     Davidson diagonalization with overlap
     ethr =  4.24E-08,  avg # of iterations =  2.0

     total cpu time spent up to now is      172.1 secs

     total energy              =     -95.10566452 Ry
     Harris-Foulkes estimate   =     -95.10566452 Ry
     estimated scf accuracy    <       0.00000005 Ry

     iteration # 10     ecut=    40.00 Ry     beta=0.70
     Davidson diagonalization with overlap
     ethr =  6.01E-10,  avg # of iterations =  1.0

     total cpu time spent up to now is      173.8 secs

     total energy              =     -95.10566455 Ry
     Harris-Foulkes estimate   =     -95.10566452 Ry
     estimated scf accuracy    <       0.00000005 Ry

     iteration # 11     ecut=    40.00 Ry     beta=0.70
     Davidson diagonalization with overlap
     ethr =  5.67E-10,  avg # of iterations =  2.0

     total cpu time spent up to now is      175.6 secs

     total energy              =     -95.10566454 Ry
     Harris-Foulkes estimate   =     -95.10566456 Ry
     estimated scf accuracy    <       0.00000015 Ry

     iteration # 12     ecut=    40.00 Ry     beta=0.70
     Davidson diagonalization with overlap
     ethr =  5.67E-10,  avg # of iterations =  1.0

     total cpu time spent up to now is      177.3 secs

     total energy              =     -95.10566449 Ry
     Harris-Foulkes estimate   =     -95.10566454 Ry
     estimated scf accuracy    <       0.00000010 Ry

     iteration # 13     ecut=    40.00 Ry     beta=0.70
     Davidson diagonalization with overlap
     ethr =  5.67E-10,  avg # of iterations =  2.0

     total cpu time spent up to now is      179.3 secs

     total energy              =     -95.10566450 Ry
     Harris-Foulkes estimate   =     -95.10566450 Ry
     estimated scf accuracy    <          6.9E-10 Ry

     iteration # 14     ecut=    40.00 Ry     beta=0.70
     Davidson diagonalization with overlap
     ethr =  7.65E-12,  avg # of iterations =  2.0

     total cpu time spent up to now is      181.3 secs

     total energy              =     -95.10566450 Ry
     Harris-Foulkes estimate   =     -95.10566450 Ry
     estimated scf accuracy    <          1.2E-09 Ry

     iteration # 15     ecut=    40.00 Ry     beta=0.70
     Davidson diagonalization with overlap
     ethr =  7.65E-12,  avg # of iterations =  2.0

     total cpu time spent up to now is      183.4 secs

     total energy              =     -95.10566449 Ry
     Harris-Foulkes estimate   =     -95.10566450 Ry
     estimated scf accuracy    <          8.9E-10 Ry

     iteration # 16     ecut=    40.00 Ry     beta=0.70
     Davidson diagonalization with overlap
     ethr =  7.65E-12,  avg # of iterations =  3.0

     total cpu time spent up to now is      185.8 secs

     total energy              =     -95.10566450 Ry
     Harris-Foulkes estimate   =     -95.10566450 Ry
     estimated scf accuracy    <       0.00000006 Ry

     iteration # 17     ecut=    40.00 Ry     beta=0.70
     Davidson diagonalization with overlap
     ethr =  7.65E-12,  avg # of iterations =  3.0

     total cpu time spent up to now is      188.1 secs

     total energy              =     -95.10566450 Ry
     Harris-Foulkes estimate   =     -95.10566450 Ry
     estimated scf accuracy    <       0.00000002 Ry

     iteration # 18     ecut=    40.00 Ry     beta=0.70
     Davidson diagonalization with overlap
     ethr =  7.65E-12,  avg # of iterations =  3.0

     total cpu time spent up to now is      190.4 secs

     total energy              =     -95.10566450 Ry
     Harris-Foulkes estimate   =     -95.10566450 Ry
     estimated scf accuracy    <          1.6E-09 Ry

     iteration # 19     ecut=    40.00 Ry     beta=0.70
     Davidson diagonalization with overlap
     ethr =  7.65E-12,  avg # of iterations =  2.0

     total cpu time spent up to now is      192.5 secs

     End of self-consistent calculation

     Number of k-points >= 100: set verbosity='high' to print the bands.

     the Fermi energy is     1.1772 ev

!    total energy              =     -95.10566450 Ry
     Harris-Foulkes estimate   =     -95.10566450 Ry
     estimated scf accuracy    <          4.4E-12 Ry

     The total energy is the sum of the following terms:

     one-electron contribution =     -90.47902722 Ry
     hartree contribution      =      45.42919097 Ry
     xc contribution           =     -14.25483385 Ry
     ewald contribution        =     -35.80090718 Ry
     smearing contrib. (-TS)   =      -0.00008721 Ry

     convergence has been achieved in  19 iterations

     Forces acting on atoms (cartesian axes, Ry/au):

     atom    1 type  1   force =     0.00000000    0.00000000    0.00000000

     Total force =     0.000000     Total SCF correction =     0.000000


     Computing stress (Cartesian axis) and pressure

          total   stress  (Ry/bohr**3)                   (kbar)     P=   -9.83
  -0.00006681   0.00000000  -0.00000000         -9.83      0.00     -0.00
   0.00000000  -0.00006681   0.00000000          0.00     -9.83      0.00
  -0.00000000   0.00000000  -0.00006681         -0.00      0.00     -9.83


     bfgs converged in   8 scf cycles and   7 bfgs steps
     (criteria: energy <  1.0E-04 Ry, force <  1.0E-03Ry/Bohr, cell <  5.0E-01kbar)

     End of BFGS Geometry Optimization

     Final enthalpy =     -95.1246379000 Ry
Begin final coordinates
     new unit-cell volume =    279.10828 a.u.^3 (    41.35958 Ang^3 )
     density =      0.92302 g/cm^3

CELL_PARAMETERS (alat=  8.18151542)
   0.503195969   0.503195969   0.503195969
  -0.503195969   0.503195969   0.503195969
  -0.503195969  -0.503195969   0.503195969

ATOMIC_POSITIONS (crystal)
Na       0.000000000   0.000000000   0.000000000
End final coordinates



     A final scf calculation at the relaxed structure.
     The G-vectors are recalculated for the final unit cell
     Results may differ from those at the preceding step.

     Parallelization info
     --------------------
     sticks:   dense  smooth     PW     G-vecs:    dense   smooth      PW
     Min         305     154     45                 6736     2399     400
     Max         306     155     46                 6737     2400     401
     Sum        1223     619    181                26947     9597    1601



     bravais-lattice index     =            3
     lattice parameter (alat)  =       8.1815  a.u.
     unit-cell volume          =     279.1083 (a.u.)^3
     number of atoms/cell      =            1
     number of atomic types    =            1
     number of electrons       =         9.00
     number of Kohn-Sham states=            9
     kinetic-energy cutoff     =      40.0000  Ry
     charge density cutoff     =     320.0000  Ry
     convergence threshold     =      1.0E-10
     mixing beta               =       0.7000
     number of iterations used =            8  plain     mixing
     Exchange-correlation      = SLA  PW   PBE  PBE ( 1  4  3  4 0 0)

     celldm(1)=   8.181515  celldm(2)=   0.000000  celldm(3)=   0.000000
     celldm(4)=   0.000000  celldm(5)=   0.000000  celldm(6)=   0.000000

     crystal axes: (cart. coord. in units of alat)
               a(1) = (   0.503196   0.503196   0.503196 )  
               a(2) = (  -0.503196   0.503196   0.503196 )  
               a(3) = (  -0.503196  -0.503196   0.503196 )  

     reciprocal axes: (cart. coord. in units 2 pi/alat)
               b(1) = (  0.993649 -0.000000  0.993649 )  
               b(2) = ( -0.993649  0.993649 -0.000000 )  
               b(3) = (  0.000000 -0.993649  0.993649 )  


     PseudoPot. # 1 for Na read from file:
     /home/s1333534/quantum_espresso/qe-6.1/pseudo/Na_pbe_v1.uspp.F.UPF
     MD5 check sum: 76a99c7e9422403d3e93cbc85ab7bccb
     Pseudo is Ultrasoft, Zval =  9.0
     Generated by new atomic code, or converted to UPF format
     Using radial grid of  819 points,  5 beta functions with: 
                l(1) =   0
                l(2) =   0
                l(3) =   1
                l(4) =   1
                l(5) =   2
     Q(r) pseudized with  8 coefficients,  rinner =    1.250   1.250   1.250
                                                       1.250   1.250

     atomic species   valence    mass     pseudopotential
        Na             9.00    22.99000     Na( 1.00)

     48 Sym. Ops., with inversion, found



   Cartesian axes

     site n.     atom                  positions (alat units)
         1           Na  tau(   1) = (   0.0000000   0.0000000   0.0000000  )

     number of k points=   250  Marzari-Vanderbilt smearing, width (Ry)=  0.0200

     Number of k-points >= 100: set verbosity='high' to print them.

     Dense  grid:    26947 G-vectors     FFT dimensions: (  45,  45,  45)

     Smooth grid:     9597 G-vectors     FFT dimensions: (  30,  30,  30)

     Estimated max dynamical RAM per process >      15.03MB

     Estimated total allocated dynamical RAM >      60.13MB

     Initial potential from superposition of free atoms

     starting charge    8.99371, renormalised to    9.00000
     Starting wfc are    5 randomized atomic wfcs +    4 random wfc

     Writing output data file na.bcc.save

     total cpu time spent up to now is      194.7 secs

     per-process dynamical memory:    26.5 Mb

     Self-consistent Calculation

     iteration #  1     ecut=    40.00 Ry     beta=0.70
     Davidson diagonalization with overlap
     c_bands:  1 eigenvalues not converged
     c_bands:  1 eigenvalues not converged
     c_bands:  1 eigenvalues not converged
     c_bands:  1 eigenvalues not converged
     c_bands:  1 eigenvalues not converged
     c_bands:  1 eigenvalues not converged
     c_bands:  1 eigenvalues not converged
     ethr =  1.00E-06,  avg # of iterations = 12.6

     total cpu time spent up to now is      200.4 secs

     total energy              =     -95.10565269 Ry
     Harris-Foulkes estimate   =     -95.10580444 Ry
     estimated scf accuracy    <       0.00088751 Ry

     iteration #  2     ecut=    40.00 Ry     beta=0.70
     Davidson diagonalization with overlap
     ethr =  9.86E-06,  avg # of iterations =  2.0

     total cpu time spent up to now is      202.3 secs

     total energy              =     -95.10574856 Ry
     Harris-Foulkes estimate   =     -95.10576759 Ry
     estimated scf accuracy    <       0.00009862 Ry

     iteration #  3     ecut=    40.00 Ry     beta=0.70
     Davidson diagonalization with overlap
     ethr =  1.10E-06,  avg # of iterations =  2.0

     total cpu time spent up to now is      204.3 secs

     total energy              =     -95.10576047 Ry
     Harris-Foulkes estimate   =     -95.10576140 Ry
     estimated scf accuracy    <       0.00000616 Ry

     iteration #  4     ecut=    40.00 Ry     beta=0.70
     Davidson diagonalization with overlap
     ethr =  6.84E-08,  avg # of iterations =  1.0

     total cpu time spent up to now is      206.0 secs

     total energy              =     -95.10576105 Ry
     Harris-Foulkes estimate   =     -95.10576101 Ry
     estimated scf accuracy    <       0.00000002 Ry

     iteration #  5     ecut=    40.00 Ry     beta=0.70
     Davidson diagonalization with overlap
     ethr =  1.77E-10,  avg # of iterations =  3.0

     total cpu time spent up to now is      208.3 secs

     total energy              =     -95.10576109 Ry
     Harris-Foulkes estimate   =     -95.10576108 Ry
     estimated scf accuracy    <          1.9E-09 Ry

     iteration #  6     ecut=    40.00 Ry     beta=0.70
     Davidson diagonalization with overlap
     ethr =  2.13E-11,  avg # of iterations =  1.1

     total cpu time spent up to now is      210.0 secs

     total energy              =     -95.10576109 Ry
     Harris-Foulkes estimate   =     -95.10576109 Ry
     estimated scf accuracy    <          1.1E-10 Ry

     iteration #  7     ecut=    40.00 Ry     beta=0.70
     Davidson diagonalization with overlap
     ethr =  1.24E-12,  avg # of iterations =  2.0

     total cpu time spent up to now is      211.9 secs

     End of self-consistent calculation

     Number of k-points >= 100: set verbosity='high' to print the bands.

     the Fermi energy is     1.1773 ev

!    total energy              =     -95.10576109 Ry
     Harris-Foulkes estimate   =     -95.10576109 Ry
     estimated scf accuracy    <          1.4E-12 Ry

     The total energy is the sum of the following terms:

     one-electron contribution =     -90.47915694 Ry
     hartree contribution      =      45.42925784 Ry
     xc contribution           =     -14.25486760 Ry
     ewald contribution        =     -35.80090718 Ry
     smearing contrib. (-TS)   =      -0.00008721 Ry

     convergence has been achieved in   7 iterations

     Forces acting on atoms (cartesian axes, Ry/au):

     atom    1 type  1   force =     0.00000000    0.00000000    0.00000000

     Total force =     0.000000     Total SCF correction =     0.000000


     Computing stress (Cartesian axis) and pressure

          total   stress  (Ry/bohr**3)                   (kbar)     P=   -9.56
  -0.00006498   0.00000000  -0.00000000         -9.56      0.00     -0.00
   0.00000000  -0.00006498   0.00000000          0.00     -9.56      0.00
  -0.00000000   0.00000000  -0.00006498         -0.00      0.00     -9.56


     Writing output data file na.bcc.save

     init_run     :      2.00s CPU      2.07s WALL (       2 calls)
     electrons    :    189.24s CPU    197.97s WALL (       9 calls)
     update_pot   :      1.78s CPU      1.80s WALL (       7 calls)
     forces       :      1.48s CPU      1.50s WALL (       9 calls)
     stress       :      7.18s CPU      7.21s WALL (       9 calls)

     Called by init_run:
     wfcinit      :      1.24s CPU      1.31s WALL (       2 calls)
     potinit      :      0.12s CPU      0.12s WALL (       2 calls)

     Called by electrons:
     c_bands      :    150.66s CPU    157.97s WALL (     101 calls)
     sum_band     :     34.70s CPU     36.05s WALL (     101 calls)
     v_of_rho     :      2.00s CPU      2.03s WALL (     109 calls)
     newd         :      1.84s CPU      1.86s WALL (     109 calls)
     mix_rho      :      0.17s CPU      0.17s WALL (     101 calls)

     Called by c_bands:
     init_us_2    :      6.82s CPU      6.73s WALL (   55500 calls)
     cegterg      :    143.56s CPU    150.70s WALL (   25250 calls)

     Called by sum_band:
     sum_band:bec :      0.02s CPU      0.09s WALL (   25250 calls)
     addusdens    :      2.07s CPU      2.10s WALL (     101 calls)

     Called by *egterg:
     h_psi        :    123.73s CPU    130.19s WALL (   72677 calls)
     s_psi        :      1.38s CPU      1.24s WALL (   72677 calls)
     g_psi        :      0.54s CPU      0.73s WALL (   46927 calls)
     cdiaghg      :      8.97s CPU      9.32s WALL (   70177 calls)

     Called by h_psi:
     h_psi:pot    :    123.34s CPU    129.56s WALL (   72677 calls)
     h_psi:calbec :      2.65s CPU      2.14s WALL (   72677 calls)
     vloc_psi     :    119.79s CPU    125.93s WALL (   72677 calls)
     add_vuspsi   :      0.80s CPU      1.30s WALL (   72677 calls)

     General routines
     calbec       :      4.90s CPU      4.18s WALL (  109177 calls)
     fft          :      0.93s CPU      0.96s WALL (    1791 calls)
     ffts         :      0.03s CPU      0.04s WALL (     210 calls)
     fftw         :    129.21s CPU    133.60s WALL ( 1309254 calls)
     interpolate  :      0.18s CPU      0.19s WALL (     210 calls)
     davcio       :      0.01s CPU      0.01s WALL (     500 calls)

     Parallel routines
     fft_scatter  :     16.64s CPU     23.22s WALL ( 1311255 calls)

     PWSCF        :  3m23.97s CPU     3m32.96s WALL


   This run was terminated on:  16:51:38  20Dec2017            

=------------------------------------------------------------------------------=
   JOB DONE.
=------------------------------------------------------------------------------=
