
     Program PWSCF v.6.1 (svn rev. 13369) starts on 20Dec2017 at 16:51:39 

     This program is part of the open-source Quantum ESPRESSO suite
     for quantum simulation of materials; please cite
         "P. Giannozzi et al., J. Phys.:Condens. Matter 21 395502 (2009);
          URL http://www.quantum-espresso.org", 
     in publications or presentations arising from this work. More details at
     http://www.quantum-espresso.org/quote

     Parallel version (MPI), running on     4 processors
     R & G space division:  proc/nbgrp/npool/nimage =       4
     Waiting for input...
     Reading input from standard input

     Current dimensions of program PWSCF are:
     Max number of different atomic species (ntypx) = 10
     Max number of k-points (npk) =  40000
     Max angular momentum in pseudopotentials (lmaxx) =  3

     Subspace diagonalization in iterative solution of the eigenvalue problem:
     a serial algorithm will be used


     Parallelization info
     --------------------
     sticks:   dense  smooth     PW     G-vecs:    dense   smooth      PW
     Min         278     139     43                 5863     2097     369
     Max         279     140     44                 5866     2099     372
     Sum        1113     557    173                23455     8391    1481



     bravais-lattice index     =            3
     lattice parameter (alat)  =       7.8676  a.u.
     unit-cell volume          =     243.4985 (a.u.)^3
     number of atoms/cell      =            1
     number of atomic types    =            1
     number of electrons       =         9.00
     number of Kohn-Sham states=            9
     kinetic-energy cutoff     =      40.0000  Ry
     charge density cutoff     =     320.0000  Ry
     convergence threshold     =      1.0E-08
     mixing beta               =       0.7000
     number of iterations used =            8  plain     mixing
     Exchange-correlation      = SLA  PW   PBE  PBE ( 1  4  3  4 0 0)
     nstep                     =           50


     celldm(1)=   7.867596  celldm(2)=   0.000000  celldm(3)=   0.000000
     celldm(4)=   0.000000  celldm(5)=   0.000000  celldm(6)=   0.000000

     crystal axes: (cart. coord. in units of alat)
               a(1) = (   0.500000   0.500000   0.500000 )  
               a(2) = (  -0.500000   0.500000   0.500000 )  
               a(3) = (  -0.500000  -0.500000   0.500000 )  

     reciprocal axes: (cart. coord. in units 2 pi/alat)
               b(1) = (  1.000000  0.000000  1.000000 )  
               b(2) = ( -1.000000  1.000000  0.000000 )  
               b(3) = (  0.000000 -1.000000  1.000000 )  


     PseudoPot. # 1 for Na read from file:
     /home/s1333534/quantum_espresso/qe-6.1/pseudo/Na_pbe_v1.uspp.F.UPF
     MD5 check sum: 76a99c7e9422403d3e93cbc85ab7bccb
     Pseudo is Ultrasoft, Zval =  9.0
     Generated by new atomic code, or converted to UPF format
     Using radial grid of  819 points,  5 beta functions with: 
                l(1) =   0
                l(2) =   0
                l(3) =   1
                l(4) =   1
                l(5) =   2
     Q(r) pseudized with  8 coefficients,  rinner =    1.250   1.250   1.250
                                                       1.250   1.250

     atomic species   valence    mass     pseudopotential
        Na             9.00    22.99000     Na( 1.00)

     48 Sym. Ops., with inversion, found



   Cartesian axes

     site n.     atom                  positions (alat units)
         1           Na  tau(   1) = (   0.0000000   0.0000000   0.0000000  )

     number of k points=   250  Marzari-Vanderbilt smearing, width (Ry)=  0.0200

     Number of k-points >= 100: set verbosity='high' to print them.

     Dense  grid:    23455 G-vectors     FFT dimensions: (  40,  40,  40)

     Smooth grid:     8391 G-vectors     FFT dimensions: (  27,  27,  27)

     Estimated max dynamical RAM per process >      12.76MB

     Estimated total allocated dynamical RAM >      51.04MB

     Initial potential from superposition of free atoms

     starting charge    8.99371, renormalised to    9.00000
     Starting wfc are    5 randomized atomic wfcs +    4 random wfc

     total cpu time spent up to now is        1.0 secs

     per-process dynamical memory:    19.0 Mb

     Self-consistent Calculation

     iteration #  1     ecut=    40.00 Ry     beta=0.70
     Davidson diagonalization with overlap
     ethr =  1.00E-02,  avg # of iterations =  5.8

     Threshold (ethr) on eigenvalues was too large:
     Diagonalizing with lowered threshold

     Davidson diagonalization with overlap
     ethr =  9.95E-06,  avg # of iterations =  4.5

     total cpu time spent up to now is        5.4 secs

     total energy              =     -95.10637295 Ry
     Harris-Foulkes estimate   =     -95.10660430 Ry
     estimated scf accuracy    <       0.00089444 Ry

     iteration #  2     ecut=    40.00 Ry     beta=0.70
     Davidson diagonalization with overlap
     ethr =  9.94E-06,  avg # of iterations =  2.0

     total cpu time spent up to now is        6.9 secs

     total energy              =     -95.10647439 Ry
     Harris-Foulkes estimate   =     -95.10649702 Ry
     estimated scf accuracy    <       0.00009895 Ry

     iteration #  3     ecut=    40.00 Ry     beta=0.70
     Davidson diagonalization with overlap
     ethr =  1.10E-06,  avg # of iterations =  2.1

     total cpu time spent up to now is        8.5 secs

     total energy              =     -95.10648563 Ry
     Harris-Foulkes estimate   =     -95.10648681 Ry
     estimated scf accuracy    <       0.00000616 Ry

     iteration #  4     ecut=    40.00 Ry     beta=0.70
     Davidson diagonalization with overlap
     ethr =  6.84E-08,  avg # of iterations =  1.0

     total cpu time spent up to now is        9.8 secs

     total energy              =     -95.10648620 Ry
     Harris-Foulkes estimate   =     -95.10648616 Ry
     estimated scf accuracy    <       0.00000001 Ry

     iteration #  5     ecut=    40.00 Ry     beta=0.70
     Davidson diagonalization with overlap
     ethr =  1.19E-10,  avg # of iterations =  3.0

     total cpu time spent up to now is       11.7 secs

     End of self-consistent calculation

     Number of k-points >= 100: set verbosity='high' to print the bands.

     the Fermi energy is     1.7204 ev

!    total energy              =     -95.10648623 Ry
     Harris-Foulkes estimate   =     -95.10648623 Ry
     estimated scf accuracy    <          1.7E-09 Ry

     The total energy is the sum of the following terms:

     one-electron contribution =     -87.54868216 Ry
     hartree contribution      =      44.18158231 Ry
     xc contribution           =     -14.27195262 Ry
     ewald contribution        =     -37.46733979 Ry
     smearing contrib. (-TS)   =      -0.00009398 Ry

     convergence has been achieved in   5 iterations

     Forces acting on atoms (cartesian axes, Ry/au):

     atom    1 type  1   force =     0.00000000    0.00000000    0.00000000

     Total force =     0.000000     Total SCF correction =     0.000000


     Computing stress (Cartesian axis) and pressure

          total   stress  (Ry/bohr**3)                   (kbar)     P=   -0.67
  -0.00000456  -0.00000000   0.00000000         -0.67     -0.00      0.00
  -0.00000000  -0.00000456  -0.00000000         -0.00     -0.67     -0.00
   0.00000000  -0.00000000  -0.00000456          0.00     -0.00     -0.67


     BFGS Geometry Optimization

     number of scf cycles    =   1
     number of bfgs steps    =   0

     enthalpy new            =     -95.1064862312 Ry

     new trust radius        =       0.0003556266 bohr
     new conv_thr            =       0.0000000100 Ry

     new unit-cell volume =    243.41524 a.u.^3 (    36.07042 Ang^3 )
     density =      1.05837 g/cm^3

CELL_PARAMETERS (alat=  7.86759645)
   0.499943025   0.499943025   0.499943025
  -0.499943025   0.499943025   0.499943025
  -0.499943025  -0.499943025   0.499943025

ATOMIC_POSITIONS (crystal)
Na       0.000000000   0.000000000   0.000000000



     Writing output data file na.bcc.save
     NEW-OLD atomic charge density approx. for the potential
     extrapolated charge    8.99692, renormalised to    9.00000

     total cpu time spent up to now is       13.0 secs

     per-process dynamical memory:    30.0 Mb

     Self-consistent Calculation

     iteration #  1     ecut=    40.00 Ry     beta=0.70
     Davidson diagonalization with overlap
     ethr =  1.00E-06,  avg # of iterations =  2.0

     Threshold (ethr) on eigenvalues was too large:
     Diagonalizing with lowered threshold

     Davidson diagonalization with overlap
     ethr =  3.82E-08,  avg # of iterations =  1.0

     total cpu time spent up to now is       15.9 secs

     total energy              =     -95.10648051 Ry
     Harris-Foulkes estimate   =     -95.13034065 Ry
     estimated scf accuracy    <       0.00000344 Ry

     iteration #  2     ecut=    40.00 Ry     beta=0.70
     Davidson diagonalization with overlap
     ethr =  3.82E-08,  avg # of iterations =  3.0

     total cpu time spent up to now is       17.7 secs

     total energy              =     -95.10648683 Ry
     Harris-Foulkes estimate   =     -95.10648937 Ry
     estimated scf accuracy    <       0.00000581 Ry

     iteration #  3     ecut=    40.00 Ry     beta=0.70
     Davidson diagonalization with overlap
     ethr =  3.82E-08,  avg # of iterations =  1.8

     total cpu time spent up to now is       19.1 secs

     total energy              =     -95.10648687 Ry
     Harris-Foulkes estimate   =     -95.10648720 Ry
     estimated scf accuracy    <       0.00000114 Ry

     iteration #  4     ecut=    40.00 Ry     beta=0.70
     Davidson diagonalization with overlap
     ethr =  1.27E-08,  avg # of iterations =  1.0

     total cpu time spent up to now is       20.4 secs

     total energy              =     -95.10648677 Ry
     Harris-Foulkes estimate   =     -95.10648691 Ry
     estimated scf accuracy    <       0.00000045 Ry

     iteration #  5     ecut=    40.00 Ry     beta=0.70
     Davidson diagonalization with overlap
     ethr =  5.04E-09,  avg # of iterations =  1.0

     total cpu time spent up to now is       21.8 secs

     total energy              =     -95.10648672 Ry
     Harris-Foulkes estimate   =     -95.10648678 Ry
     estimated scf accuracy    <       0.00000017 Ry

     iteration #  6     ecut=    40.00 Ry     beta=0.70
     Davidson diagonalization with overlap
     ethr =  1.86E-09,  avg # of iterations =  1.0

     total cpu time spent up to now is       23.1 secs

     total energy              =     -95.10648670 Ry
     Harris-Foulkes estimate   =     -95.10648673 Ry
     estimated scf accuracy    <       0.00000005 Ry

     iteration #  7     ecut=    40.00 Ry     beta=0.70
     Davidson diagonalization with overlap
     ethr =  5.86E-10,  avg # of iterations =  1.5

     total cpu time spent up to now is       24.5 secs

     End of self-consistent calculation

     Number of k-points >= 100: set verbosity='high' to print the bands.

     the Fermi energy is     1.7219 ev

!    total energy              =     -95.10648670 Ry
     Harris-Foulkes estimate   =     -95.10648671 Ry
     estimated scf accuracy    <          4.7E-09 Ry

     The total energy is the sum of the following terms:

     one-electron contribution =     -87.54081808 Ry
     hartree contribution      =      44.17795037 Ry
     xc contribution           =     -14.27191530 Ry
     ewald contribution        =     -37.47160969 Ry
     smearing contrib. (-TS)   =      -0.00009399 Ry

     convergence has been achieved in   7 iterations

     Forces acting on atoms (cartesian axes, Ry/au):

     atom    1 type  1   force =     0.00000000    0.00000000    0.00000000

     Total force =     0.000000     Total SCF correction =     0.000000


     Computing stress (Cartesian axis) and pressure

          total   stress  (Ry/bohr**3)                   (kbar)     P=   -1.37
  -0.00000933  -0.00000000   0.00000000         -1.37     -0.00      0.00
  -0.00000000  -0.00000933  -0.00000000         -0.00     -1.37     -0.00
   0.00000000  -0.00000000  -0.00000933          0.00     -0.00     -1.37


     number of scf cycles    =   2
     number of bfgs steps    =   1

     enthalpy old            =     -95.1064862312 Ry
     enthalpy new            =     -95.1064867025 Ry

     CASE: enthalpy_new < enthalpy_old


     WARNING: bfgs curvature condition failed, Theta= 0.391
     new trust radius        =       0.0003370488 bohr
     new conv_thr            =            1.0E-10 Ry

     new unit-cell volume =    243.33637 a.u.^3 (    36.05873 Ang^3 )
     density =      1.05871 g/cm^3

CELL_PARAMETERS (alat=  7.86759645)
   0.499889023   0.499889023   0.499889023
  -0.499889023   0.499889023   0.499889023
  -0.499889023  -0.499889023   0.499889023

ATOMIC_POSITIONS (crystal)
Na       0.000000000   0.000000000   0.000000000



     Writing output data file na.bcc.save
     NEW-OLD atomic charge density approx. for the potential
     extrapolated charge    8.99708, renormalised to    9.00000

     total cpu time spent up to now is       25.8 secs

     per-process dynamical memory:    30.0 Mb

     Self-consistent Calculation

     iteration #  1     ecut=    40.00 Ry     beta=0.70
     Davidson diagonalization with overlap
     ethr =  1.00E-06,  avg # of iterations =  2.0

     Threshold (ethr) on eigenvalues was too large:
     Diagonalizing with lowered threshold

     Davidson diagonalization with overlap
     ethr =  3.71E-08,  avg # of iterations =  1.0

     total cpu time spent up to now is       28.7 secs

     total energy              =     -95.10648138 Ry
     Harris-Foulkes estimate   =     -95.12909665 Ry
     estimated scf accuracy    <       0.00000334 Ry

     iteration #  2     ecut=    40.00 Ry     beta=0.70
     Davidson diagonalization with overlap
     ethr =  3.71E-08,  avg # of iterations =  2.9

     total cpu time spent up to now is       30.5 secs

     total energy              =     -95.10648721 Ry
     Harris-Foulkes estimate   =     -95.10648957 Ry
     estimated scf accuracy    <       0.00000532 Ry

     iteration #  3     ecut=    40.00 Ry     beta=0.70
     Davidson diagonalization with overlap
     ethr =  3.71E-08,  avg # of iterations =  1.5

     total cpu time spent up to now is       31.9 secs

     total energy              =     -95.10648728 Ry
     Harris-Foulkes estimate   =     -95.10648757 Ry
     estimated scf accuracy    <       0.00000101 Ry

     iteration #  4     ecut=    40.00 Ry     beta=0.70
     Davidson diagonalization with overlap
     ethr =  1.12E-08,  avg # of iterations =  1.0

     total cpu time spent up to now is       33.2 secs

     total energy              =     -95.10648719 Ry
     Harris-Foulkes estimate   =     -95.10648732 Ry
     estimated scf accuracy    <       0.00000040 Ry

     iteration #  5     ecut=    40.00 Ry     beta=0.70
     Davidson diagonalization with overlap
     ethr =  4.47E-09,  avg # of iterations =  1.0

     total cpu time spent up to now is       34.5 secs

     total energy              =     -95.10648715 Ry
     Harris-Foulkes estimate   =     -95.10648720 Ry
     estimated scf accuracy    <       0.00000015 Ry

     iteration #  6     ecut=    40.00 Ry     beta=0.70
     Davidson diagonalization with overlap
     ethr =  1.68E-09,  avg # of iterations =  1.0

     total cpu time spent up to now is       35.9 secs

     total energy              =     -95.10648713 Ry
     Harris-Foulkes estimate   =     -95.10648716 Ry
     estimated scf accuracy    <       0.00000005 Ry

     iteration #  7     ecut=    40.00 Ry     beta=0.70
     Davidson diagonalization with overlap
     ethr =  5.16E-10,  avg # of iterations =  2.0

     total cpu time spent up to now is       37.3 secs

     total energy              =     -95.10648713 Ry
     Harris-Foulkes estimate   =     -95.10648714 Ry
     estimated scf accuracy    <          3.4E-09 Ry

     iteration #  8     ecut=    40.00 Ry     beta=0.70
     Davidson diagonalization with overlap
     ethr =  3.79E-11,  avg # of iterations =  2.0

     total cpu time spent up to now is       38.9 secs

     total energy              =     -95.10648714 Ry
     Harris-Foulkes estimate   =     -95.10648714 Ry
     estimated scf accuracy    <          1.3E-10 Ry

     iteration #  9     ecut=    40.00 Ry     beta=0.70
     Davidson diagonalization with overlap
     ethr =  1.47E-12,  avg # of iterations =  1.1

     total cpu time spent up to now is       40.3 secs

     End of self-consistent calculation

     Number of k-points >= 100: set verbosity='high' to print the bands.

     the Fermi energy is     1.7232 ev

!    total energy              =     -95.10648714 Ry
     Harris-Foulkes estimate   =     -95.10648714 Ry
     estimated scf accuracy    <          5.6E-11 Ry

     The total energy is the sum of the following terms:

     one-electron contribution =     -87.53405603 Ry
     hartree contribution      =      44.17535476 Ry
     xc contribution           =     -14.27203419 Ry
     ewald contribution        =     -37.47565767 Ry
     smearing contrib. (-TS)   =      -0.00009401 Ry

     convergence has been achieved in   9 iterations

     Forces acting on atoms (cartesian axes, Ry/au):

     atom    1 type  1   force =     0.00000000    0.00000000    0.00000000

     Total force =     0.000000     Total SCF correction =     0.000000


     Computing stress (Cartesian axis) and pressure

          total   stress  (Ry/bohr**3)                   (kbar)     P=   -0.73
  -0.00000494   0.00000000  -0.00000000         -0.73      0.00     -0.00
   0.00000000  -0.00000494   0.00000000          0.00     -0.73      0.00
  -0.00000000   0.00000000  -0.00000494         -0.00      0.00     -0.73


     number of scf cycles    =   3
     number of bfgs steps    =   2

     enthalpy old            =     -95.1064867025 Ry
     enthalpy new            =     -95.1064871353 Ry

     CASE: enthalpy_new < enthalpy_old

     new trust radius        =       0.0003784765 bohr
     new conv_thr            =            1.0E-10 Ry

     new unit-cell volume =    243.24782 a.u.^3 (    36.04561 Ang^3 )
     density =      1.05910 g/cm^3

CELL_PARAMETERS (alat=  7.86759645)
   0.499828380   0.499828380   0.499828380
  -0.499828380   0.499828380   0.499828380
  -0.499828380  -0.499828380   0.499828380

ATOMIC_POSITIONS (crystal)
Na       0.000000000   0.000000000   0.000000000



     Writing output data file na.bcc.save
     NEW-OLD atomic charge density approx. for the potential
     extrapolated charge    8.99673, renormalised to    9.00000

     total cpu time spent up to now is       41.6 secs

     per-process dynamical memory:    30.0 Mb

     Self-consistent Calculation

     iteration #  1     ecut=    40.00 Ry     beta=0.70
     Davidson diagonalization with overlap
     ethr =  1.00E-06,  avg # of iterations =  2.0

     Threshold (ethr) on eigenvalues was too large:
     Diagonalizing with lowered threshold

     Davidson diagonalization with overlap
     ethr =  4.35E-08,  avg # of iterations =  1.0

     total cpu time spent up to now is       44.5 secs

     total energy              =     -95.10648056 Ry
     Harris-Foulkes estimate   =     -95.13187826 Ry
     estimated scf accuracy    <       0.00000392 Ry

     iteration #  2     ecut=    40.00 Ry     beta=0.70
     Davidson diagonalization with overlap
     ethr =  4.36E-08,  avg # of iterations =  3.0

     total cpu time spent up to now is       46.3 secs

     total energy              =     -95.10648773 Ry
     Harris-Foulkes estimate   =     -95.10649062 Ry
     estimated scf accuracy    <       0.00000660 Ry

     iteration #  3     ecut=    40.00 Ry     beta=0.70
     Davidson diagonalization with overlap
     ethr =  4.36E-08,  avg # of iterations =  1.8

     total cpu time spent up to now is       47.7 secs

     total energy              =     -95.10648778 Ry
     Harris-Foulkes estimate   =     -95.10648816 Ry
     estimated scf accuracy    <       0.00000129 Ry

     iteration #  4     ecut=    40.00 Ry     beta=0.70
     Davidson diagonalization with overlap
     ethr =  1.44E-08,  avg # of iterations =  1.0

     total cpu time spent up to now is       49.0 secs

     total energy              =     -95.10648766 Ry
     Harris-Foulkes estimate   =     -95.10648783 Ry
     estimated scf accuracy    <       0.00000050 Ry

     iteration #  5     ecut=    40.00 Ry     beta=0.70
     Davidson diagonalization with overlap
     ethr =  5.52E-09,  avg # of iterations =  1.0

     total cpu time spent up to now is       50.4 secs

     total energy              =     -95.10648762 Ry
     Harris-Foulkes estimate   =     -95.10648768 Ry
     estimated scf accuracy    <       0.00000017 Ry

     iteration #  6     ecut=    40.00 Ry     beta=0.70
     Davidson diagonalization with overlap
     ethr =  1.91E-09,  avg # of iterations =  1.0

     total cpu time spent up to now is       51.7 secs

     total energy              =     -95.10648759 Ry
     Harris-Foulkes estimate   =     -95.10648762 Ry
     estimated scf accuracy    <       0.00000005 Ry

     iteration #  7     ecut=    40.00 Ry     beta=0.70
     Davidson diagonalization with overlap
     ethr =  5.91E-10,  avg # of iterations =  2.0

     total cpu time spent up to now is       53.2 secs

     total energy              =     -95.10648760 Ry
     Harris-Foulkes estimate   =     -95.10648760 Ry
     estimated scf accuracy    <          2.2E-09 Ry

     iteration #  8     ecut=    40.00 Ry     beta=0.70
     Davidson diagonalization with overlap
     ethr =  2.47E-11,  avg # of iterations =  2.0

     total cpu time spent up to now is       54.8 secs

     End of self-consistent calculation

     Number of k-points >= 100: set verbosity='high' to print the bands.

     the Fermi energy is     1.7248 ev

!    total energy              =     -95.10648760 Ry
     Harris-Foulkes estimate   =     -95.10648760 Ry
     estimated scf accuracy    <          2.6E-12 Ry

     The total energy is the sum of the following terms:

     one-electron contribution =     -87.52605337 Ry
     hartree contribution      =      44.17194064 Ry
     xc contribution           =     -14.27207635 Ry
     ewald contribution        =     -37.48020449 Ry
     smearing contrib. (-TS)   =      -0.00009403 Ry

     convergence has been achieved in   8 iterations

     Forces acting on atoms (cartesian axes, Ry/au):

     atom    1 type  1   force =     0.00000000    0.00000000    0.00000000

     Total force =     0.000000     Total SCF correction =     0.000000


     Computing stress (Cartesian axis) and pressure

          total   stress  (Ry/bohr**3)                   (kbar)     P=   -0.74
  -0.00000503   0.00000000  -0.00000000         -0.74      0.00     -0.00
   0.00000000  -0.00000503   0.00000000          0.00     -0.74      0.00
  -0.00000000   0.00000000  -0.00000503         -0.00      0.00     -0.74


     number of scf cycles    =   4
     number of bfgs steps    =   3

     enthalpy old            =     -95.1064871353 Ry
     enthalpy new            =     -95.1064875983 Ry

     CASE: enthalpy_new < enthalpy_old


     WARNING: bfgs curvature condition failed, Theta= 0.786
     new trust radius        =       0.0005676803 bohr
     new conv_thr            =            1.0E-10 Ry

     new unit-cell volume =    243.11504 a.u.^3 (    36.02593 Ang^3 )
     density =      1.05968 g/cm^3

CELL_PARAMETERS (alat=  7.86759645)
   0.499737416   0.499737416   0.499737416
  -0.499737416   0.499737416   0.499737416
  -0.499737416  -0.499737416   0.499737416

ATOMIC_POSITIONS (crystal)
Na       0.000000000   0.000000000   0.000000000



     Writing output data file na.bcc.save
     NEW-OLD atomic charge density approx. for the potential
     extrapolated charge    8.99509, renormalised to    9.00000

     total cpu time spent up to now is       56.2 secs

     per-process dynamical memory:    30.0 Mb

     Self-consistent Calculation

     iteration #  1     ecut=    40.00 Ry     beta=0.70
     Davidson diagonalization with overlap
     ethr =  1.00E-06,  avg # of iterations =  2.0

     Threshold (ethr) on eigenvalues was too large:
     Diagonalizing with lowered threshold

     Davidson diagonalization with overlap
     ethr =  9.85E-08,  avg # of iterations =  1.0

     total cpu time spent up to now is       59.1 secs

     total energy              =     -95.10647237 Ry
     Harris-Foulkes estimate   =     -95.14457678 Ry
     estimated scf accuracy    <       0.00000887 Ry

     iteration #  2     ecut=    40.00 Ry     beta=0.70
     Davidson diagonalization with overlap
     ethr =  9.85E-08,  avg # of iterations =  2.9

     total cpu time spent up to now is       60.9 secs

     total energy              =     -95.10648855 Ry
     Harris-Foulkes estimate   =     -95.10649507 Ry
     estimated scf accuracy    <       0.00001486 Ry

     iteration #  3     ecut=    40.00 Ry     beta=0.70
     Davidson diagonalization with overlap
     ethr =  9.85E-08,  avg # of iterations =  1.7

     total cpu time spent up to now is       62.3 secs

     total energy              =     -95.10648866 Ry
     Harris-Foulkes estimate   =     -95.10648952 Ry
     estimated scf accuracy    <       0.00000290 Ry

     iteration #  4     ecut=    40.00 Ry     beta=0.70
     Davidson diagonalization with overlap
     ethr =  3.23E-08,  avg # of iterations =  1.0

     total cpu time spent up to now is       63.6 secs

     total energy              =     -95.10648839 Ry
     Harris-Foulkes estimate   =     -95.10648877 Ry
     estimated scf accuracy    <       0.00000112 Ry

     iteration #  5     ecut=    40.00 Ry     beta=0.70
     Davidson diagonalization with overlap
     ethr =  1.25E-08,  avg # of iterations =  1.0

     total cpu time spent up to now is       65.0 secs

     total energy              =     -95.10648829 Ry
     Harris-Foulkes estimate   =     -95.10648843 Ry
     estimated scf accuracy    <       0.00000039 Ry

     iteration #  6     ecut=    40.00 Ry     beta=0.70
     Davidson diagonalization with overlap
     ethr =  4.36E-09,  avg # of iterations =  1.0

     total cpu time spent up to now is       66.3 secs

     total energy              =     -95.10648823 Ry
     Harris-Foulkes estimate   =     -95.10648831 Ry
     estimated scf accuracy    <       0.00000012 Ry

     iteration #  7     ecut=    40.00 Ry     beta=0.70
     Davidson diagonalization with overlap
     ethr =  1.34E-09,  avg # of iterations =  2.0

     total cpu time spent up to now is       67.9 secs

     total energy              =     -95.10648825 Ry
     Harris-Foulkes estimate   =     -95.10648825 Ry
     estimated scf accuracy    <          1.1E-09 Ry

     iteration #  8     ecut=    40.00 Ry     beta=0.70
     Davidson diagonalization with overlap
     ethr =  1.19E-11,  avg # of iterations =  2.0

     total cpu time spent up to now is       69.5 secs

     total energy              =     -95.10648825 Ry
     Harris-Foulkes estimate   =     -95.10648825 Ry
     estimated scf accuracy    <          2.3E-10 Ry

     iteration #  9     ecut=    40.00 Ry     beta=0.70
     Davidson diagonalization with overlap
     ethr =  2.52E-12,  avg # of iterations =  2.0

     total cpu time spent up to now is       71.1 secs

     End of self-consistent calculation

     Number of k-points >= 100: set verbosity='high' to print the bands.

     the Fermi energy is     1.7271 ev

!    total energy              =     -95.10648825 Ry
     Harris-Foulkes estimate   =     -95.10648825 Ry
     estimated scf accuracy    <          1.6E-11 Ry

     The total energy is the sum of the following terms:

     one-electron contribution =     -87.51406467 Ry
     hartree contribution      =      44.16684089 Ry
     xc contribution           =     -14.27214364 Ry
     ewald contribution        =     -37.48702678 Ry
     smearing contrib. (-TS)   =      -0.00009406 Ry

     convergence has been achieved in   9 iterations

     Forces acting on atoms (cartesian axes, Ry/au):

     atom    1 type  1   force =     0.00000000    0.00000000    0.00000000

     Total force =     0.000000     Total SCF correction =     0.000000


     Computing stress (Cartesian axis) and pressure

          total   stress  (Ry/bohr**3)                   (kbar)     P=   -0.73
  -0.00000494  -0.00000000   0.00000000         -0.73     -0.00      0.00
  -0.00000000  -0.00000494  -0.00000000         -0.00     -0.73     -0.00
   0.00000000  -0.00000000  -0.00000494          0.00     -0.00     -0.73


     number of scf cycles    =   5
     number of bfgs steps    =   4

     enthalpy old            =     -95.1064875983 Ry
     enthalpy new            =     -95.1064882514 Ry

     CASE: enthalpy_new < enthalpy_old

     new trust radius        =       0.0008514430 bohr
     new conv_thr            =            1.0E-10 Ry

     new unit-cell volume =    242.91595 a.u.^3 (    35.99643 Ang^3 )
     density =      1.06054 g/cm^3

CELL_PARAMETERS (alat=  7.86759645)
   0.499600970   0.499600970   0.499600970
  -0.499600970   0.499600970   0.499600970
  -0.499600970  -0.499600970   0.499600970

ATOMIC_POSITIONS (crystal)
Na       0.000000000   0.000000000   0.000000000



     Writing output data file na.bcc.save
     NEW-OLD atomic charge density approx. for the potential
     extrapolated charge    8.99263, renormalised to    9.00000

     total cpu time spent up to now is       72.4 secs

     per-process dynamical memory:    30.0 Mb

     Self-consistent Calculation

     iteration #  1     ecut=    40.00 Ry     beta=0.70
     Davidson diagonalization with overlap
     ethr =  1.00E-06,  avg # of iterations =  2.0

     total cpu time spent up to now is       74.2 secs

     total energy              =     -95.10645339 Ry
     Harris-Foulkes estimate   =     -95.16362761 Ry
     estimated scf accuracy    <       0.00001999 Ry

     iteration #  2     ecut=    40.00 Ry     beta=0.70
     Davidson diagonalization with overlap
     ethr =  2.22E-07,  avg # of iterations =  3.0

     total cpu time spent up to now is       75.9 secs

     total energy              =     -95.10648979 Ry
     Harris-Foulkes estimate   =     -95.10650448 Ry
     estimated scf accuracy    <       0.00003344 Ry

     iteration #  3     ecut=    40.00 Ry     beta=0.70
     Davidson diagonalization with overlap
     ethr =  2.22E-07,  avg # of iterations =  1.7

     total cpu time spent up to now is       77.4 secs

     total energy              =     -95.10649006 Ry
     Harris-Foulkes estimate   =     -95.10649198 Ry
     estimated scf accuracy    <       0.00000652 Ry

     iteration #  4     ecut=    40.00 Ry     beta=0.70
     Davidson diagonalization with overlap
     ethr =  7.25E-08,  avg # of iterations =  1.0

     total cpu time spent up to now is       78.7 secs

     total energy              =     -95.10648945 Ry
     Harris-Foulkes estimate   =     -95.10649032 Ry
     estimated scf accuracy    <       0.00000255 Ry

     iteration #  5     ecut=    40.00 Ry     beta=0.70
     Davidson diagonalization with overlap
     ethr =  2.84E-08,  avg # of iterations =  1.0

     total cpu time spent up to now is       80.0 secs

     total energy              =     -95.10648922 Ry
     Harris-Foulkes estimate   =     -95.10648954 Ry
     estimated scf accuracy    <       0.00000089 Ry

     iteration #  6     ecut=    40.00 Ry     beta=0.70
     Davidson diagonalization with overlap
     ethr =  9.86E-09,  avg # of iterations =  1.0

     total cpu time spent up to now is       81.4 secs

     total energy              =     -95.10648911 Ry
     Harris-Foulkes estimate   =     -95.10648926 Ry
     estimated scf accuracy    <       0.00000026 Ry

     iteration #  7     ecut=    40.00 Ry     beta=0.70
     Davidson diagonalization with overlap
     ethr =  2.91E-09,  avg # of iterations =  2.0

     total cpu time spent up to now is       82.9 secs

     total energy              =     -95.10648914 Ry
     Harris-Foulkes estimate   =     -95.10648914 Ry
     estimated scf accuracy    <       0.00000001 Ry

     iteration #  8     ecut=    40.00 Ry     beta=0.70
     Davidson diagonalization with overlap
     ethr =  1.55E-10,  avg # of iterations =  2.0

     total cpu time spent up to now is       84.5 secs

     End of self-consistent calculation

     Number of k-points >= 100: set verbosity='high' to print the bands.

     the Fermi energy is     1.7306 ev

!    total energy              =     -95.10648914 Ry
     Harris-Foulkes estimate   =     -95.10648914 Ry
     estimated scf accuracy    <          4.7E-11 Ry

     The total energy is the sum of the following terms:

     one-electron contribution =     -87.49615050 Ry
     hartree contribution      =      44.15928262 Ry
     xc contribution           =     -14.27226228 Ry
     ewald contribution        =     -37.49726488 Ry
     smearing contrib. (-TS)   =      -0.00009410 Ry

     convergence has been achieved in   8 iterations

     Forces acting on atoms (cartesian axes, Ry/au):

     atom    1 type  1   force =     0.00000000    0.00000000    0.00000000

     Total force =     0.000000     Total SCF correction =     0.000000


     Computing stress (Cartesian axis) and pressure

          total   stress  (Ry/bohr**3)                   (kbar)     P=   -0.56
  -0.00000381  -0.00000000  -0.00000000         -0.56     -0.00     -0.00
   0.00000000  -0.00000381   0.00000000          0.00     -0.56      0.00
  -0.00000000   0.00000000  -0.00000381         -0.00      0.00     -0.56


     number of scf cycles    =   6
     number of bfgs steps    =   5

     enthalpy old            =     -95.1064882514 Ry
     enthalpy new            =     -95.1064891384 Ry

     CASE: enthalpy_new < enthalpy_old

     new trust radius        =       0.0012769902 bohr
     new conv_thr            =            1.0E-10 Ry

     new unit-cell volume =    242.61753 a.u.^3 (    35.95221 Ang^3 )
     density =      1.06185 g/cm^3

CELL_PARAMETERS (alat=  7.86759645)
   0.499396300   0.499396300   0.499396300
  -0.499396300   0.499396300   0.499396300
  -0.499396300  -0.499396300   0.499396300

ATOMIC_POSITIONS (crystal)
Na       0.000000000   0.000000000   0.000000000



     Writing output data file na.bcc.save
     NEW-OLD atomic charge density approx. for the potential
     extrapolated charge    8.98894, renormalised to    9.00000

     total cpu time spent up to now is       85.9 secs

     per-process dynamical memory:    30.0 Mb

     Self-consistent Calculation

     iteration #  1     ecut=    40.00 Ry     beta=0.70
     Davidson diagonalization with overlap
     ethr =  1.00E-06,  avg # of iterations =  2.0

     total cpu time spent up to now is       87.7 secs

     total energy              =     -95.10640996 Ry
     Harris-Foulkes estimate   =     -95.19221073 Ry
     estimated scf accuracy    <       0.00004483 Ry

     iteration #  2     ecut=    40.00 Ry     beta=0.70
     Davidson diagonalization with overlap
     ethr =  4.98E-07,  avg # of iterations =  3.0

     total cpu time spent up to now is       89.4 secs

     total energy              =     -95.10649173 Ry
     Harris-Foulkes estimate   =     -95.10652472 Ry
     estimated scf accuracy    <       0.00007516 Ry

     iteration #  3     ecut=    40.00 Ry     beta=0.70
     Davidson diagonalization with overlap
     ethr =  4.98E-07,  avg # of iterations =  1.7

     total cpu time spent up to now is       90.8 secs

     total energy              =     -95.10649230 Ry
     Harris-Foulkes estimate   =     -95.10649666 Ry
     estimated scf accuracy    <       0.00001467 Ry

     iteration #  4     ecut=    40.00 Ry     beta=0.70
     Davidson diagonalization with overlap
     ethr =  1.63E-07,  avg # of iterations =  1.0

     total cpu time spent up to now is       92.2 secs

     total energy              =     -95.10649095 Ry
     Harris-Foulkes estimate   =     -95.10649289 Ry
     estimated scf accuracy    <       0.00000569 Ry

     iteration #  5     ecut=    40.00 Ry     beta=0.70
     Davidson diagonalization with overlap
     ethr =  6.32E-08,  avg # of iterations =  1.0

     total cpu time spent up to now is       93.5 secs

     total energy              =     -95.10649044 Ry
     Harris-Foulkes estimate   =     -95.10649116 Ry
     estimated scf accuracy    <       0.00000198 Ry

     iteration #  6     ecut=    40.00 Ry     beta=0.70
     Davidson diagonalization with overlap
     ethr =  2.20E-08,  avg # of iterations =  1.0

     total cpu time spent up to now is       94.8 secs

     total energy              =     -95.10649023 Ry
     Harris-Foulkes estimate   =     -95.10649053 Ry
     estimated scf accuracy    <       0.00000059 Ry

     iteration #  7     ecut=    40.00 Ry     beta=0.70
     Davidson diagonalization with overlap
     ethr =  6.60E-09,  avg # of iterations =  1.1

     total cpu time spent up to now is       96.2 secs

     total energy              =     -95.10649024 Ry
     Harris-Foulkes estimate   =     -95.10649029 Ry
     estimated scf accuracy    <       0.00000006 Ry

     iteration #  8     ecut=    40.00 Ry     beta=0.70
     Davidson diagonalization with overlap
     ethr =  7.00E-10,  avg # of iterations =  2.0

     total cpu time spent up to now is       97.8 secs

     End of self-consistent calculation

     Number of k-points >= 100: set verbosity='high' to print the bands.

     the Fermi energy is     1.7359 ev

!    total energy              =     -95.10649026 Ry
     Harris-Foulkes estimate   =     -95.10649026 Ry
     estimated scf accuracy    <          9.5E-11 Ry

     The total energy is the sum of the following terms:

     one-electron contribution =     -87.46920318 Ry
     hartree contribution      =      44.14786663 Ry
     xc contribution           =     -14.27242703 Ry
     ewald contribution        =     -37.51263252 Ry
     smearing contrib. (-TS)   =      -0.00009416 Ry

     convergence has been achieved in   8 iterations

     Forces acting on atoms (cartesian axes, Ry/au):

     atom    1 type  1   force =     0.00000000    0.00000000    0.00000000

     Total force =     0.000000     Total SCF correction =     0.000000


     Computing stress (Cartesian axis) and pressure

          total   stress  (Ry/bohr**3)                   (kbar)     P=   -0.42
  -0.00000282   0.00000000   0.00000000         -0.42      0.00      0.00
  -0.00000000  -0.00000282   0.00000000         -0.00     -0.42      0.00
   0.00000000   0.00000000  -0.00000282          0.00      0.00     -0.42


     bfgs converged in   7 scf cycles and   6 bfgs steps
     (criteria: energy <  1.0E-04 Ry, force <  1.0E-03Ry/Bohr, cell <  5.0E-01kbar)

     End of BFGS Geometry Optimization

     Final enthalpy =     -95.1064902593 Ry
Begin final coordinates
     new unit-cell volume =    242.61753 a.u.^3 (    35.95221 Ang^3 )
     density =      1.06185 g/cm^3

CELL_PARAMETERS (alat=  7.86759645)
   0.499396300   0.499396300   0.499396300
  -0.499396300   0.499396300   0.499396300
  -0.499396300  -0.499396300   0.499396300

ATOMIC_POSITIONS (crystal)
Na       0.000000000   0.000000000   0.000000000
End final coordinates



     A final scf calculation at the relaxed structure.
     The G-vectors are recalculated for the final unit cell
     Results may differ from those at the preceding step.

     Parallelization info
     --------------------
     sticks:   dense  smooth     PW     G-vecs:    dense   smooth      PW
     Min         278     139     43                 5863     2097     369
     Max         279     140     44                 5866     2099     372
     Sum        1113     557    173                23455     8391    1481



     bravais-lattice index     =            3
     lattice parameter (alat)  =       7.8676  a.u.
     unit-cell volume          =     242.6175 (a.u.)^3
     number of atoms/cell      =            1
     number of atomic types    =            1
     number of electrons       =         9.00
     number of Kohn-Sham states=            9
     kinetic-energy cutoff     =      40.0000  Ry
     charge density cutoff     =     320.0000  Ry
     convergence threshold     =      1.0E-10
     mixing beta               =       0.7000
     number of iterations used =            8  plain     mixing
     Exchange-correlation      = SLA  PW   PBE  PBE ( 1  4  3  4 0 0)

     celldm(1)=   7.867596  celldm(2)=   0.000000  celldm(3)=   0.000000
     celldm(4)=   0.000000  celldm(5)=   0.000000  celldm(6)=   0.000000

     crystal axes: (cart. coord. in units of alat)
               a(1) = (   0.499396   0.499396   0.499396 )  
               a(2) = (  -0.499396   0.499396   0.499396 )  
               a(3) = (  -0.499396  -0.499396   0.499396 )  

     reciprocal axes: (cart. coord. in units 2 pi/alat)
               b(1) = (  1.001209 -0.000000  1.001209 )  
               b(2) = ( -1.001209  1.001209  0.000000 )  
               b(3) = ( -0.000000 -1.001209  1.001209 )  


     PseudoPot. # 1 for Na read from file:
     /home/s1333534/quantum_espresso/qe-6.1/pseudo/Na_pbe_v1.uspp.F.UPF
     MD5 check sum: 76a99c7e9422403d3e93cbc85ab7bccb
     Pseudo is Ultrasoft, Zval =  9.0
     Generated by new atomic code, or converted to UPF format
     Using radial grid of  819 points,  5 beta functions with: 
                l(1) =   0
                l(2) =   0
                l(3) =   1
                l(4) =   1
                l(5) =   2
     Q(r) pseudized with  8 coefficients,  rinner =    1.250   1.250   1.250
                                                       1.250   1.250

     atomic species   valence    mass     pseudopotential
        Na             9.00    22.99000     Na( 1.00)

     48 Sym. Ops., with inversion, found



   Cartesian axes

     site n.     atom                  positions (alat units)
         1           Na  tau(   1) = (   0.0000000   0.0000000   0.0000000  )

     number of k points=   250  Marzari-Vanderbilt smearing, width (Ry)=  0.0200

     Number of k-points >= 100: set verbosity='high' to print them.

     Dense  grid:    23455 G-vectors     FFT dimensions: (  40,  40,  40)

     Smooth grid:     8391 G-vectors     FFT dimensions: (  27,  27,  27)

     Estimated max dynamical RAM per process >      12.72MB

     Estimated total allocated dynamical RAM >      50.90MB

     Initial potential from superposition of free atoms

     starting charge    8.99371, renormalised to    9.00000
     Starting wfc are    5 randomized atomic wfcs +    4 random wfc

     Writing output data file na.bcc.save

     total cpu time spent up to now is       99.7 secs

     per-process dynamical memory:    24.5 Mb

     Self-consistent Calculation

     iteration #  1     ecut=    40.00 Ry     beta=0.70
     Davidson diagonalization with overlap
     c_bands:  1 eigenvalues not converged
     c_bands:  1 eigenvalues not converged
     c_bands:  1 eigenvalues not converged
     ethr =  1.00E-06,  avg # of iterations = 11.9

     total cpu time spent up to now is      104.2 secs

     total energy              =     -95.10635772 Ry
     Harris-Foulkes estimate   =     -95.10658846 Ry
     estimated scf accuracy    <       0.00089862 Ry

     iteration #  2     ecut=    40.00 Ry     beta=0.70
     Davidson diagonalization with overlap
     ethr =  9.98E-06,  avg # of iterations =  2.0

     total cpu time spent up to now is      105.7 secs

     total energy              =     -95.10646300 Ry
     Harris-Foulkes estimate   =     -95.10648679 Ry
     estimated scf accuracy    <       0.00010151 Ry

     iteration #  3     ecut=    40.00 Ry     beta=0.70
     Davidson diagonalization with overlap
     ethr =  1.13E-06,  avg # of iterations =  2.0

     total cpu time spent up to now is      107.3 secs

     total energy              =     -95.10647417 Ry
     Harris-Foulkes estimate   =     -95.10647544 Ry
     estimated scf accuracy    <       0.00000644 Ry

     iteration #  4     ecut=    40.00 Ry     beta=0.70
     Davidson diagonalization with overlap
     ethr =  7.16E-08,  avg # of iterations =  1.0

     total cpu time spent up to now is      108.6 secs

     total energy              =     -95.10647475 Ry
     Harris-Foulkes estimate   =     -95.10647471 Ry
     estimated scf accuracy    <          9.9E-09 Ry

     iteration #  5     ecut=    40.00 Ry     beta=0.70
     Davidson diagonalization with overlap
     ethr =  1.10E-10,  avg # of iterations =  3.0

     total cpu time spent up to now is      110.5 secs

     total energy              =     -95.10647478 Ry
     Harris-Foulkes estimate   =     -95.10647478 Ry
     estimated scf accuracy    <          1.6E-09 Ry

     iteration #  6     ecut=    40.00 Ry     beta=0.70
     Davidson diagonalization with overlap
     ethr =  1.76E-11,  avg # of iterations =  1.0

     total cpu time spent up to now is      111.8 secs

     total energy              =     -95.10647478 Ry
     Harris-Foulkes estimate   =     -95.10647478 Ry
     estimated scf accuracy    <          1.3E-10 Ry

     iteration #  7     ecut=    40.00 Ry     beta=0.70
     Davidson diagonalization with overlap
     ethr =  1.45E-12,  avg # of iterations =  1.6

     total cpu time spent up to now is      113.2 secs

     End of self-consistent calculation

     Number of k-points >= 100: set verbosity='high' to print the bands.

     the Fermi energy is     1.7359 ev

!    total energy              =     -95.10647478 Ry
     Harris-Foulkes estimate   =     -95.10647478 Ry
     estimated scf accuracy    <          3.4E-12 Ry

     The total energy is the sum of the following terms:

     one-electron contribution =     -87.46914582 Ry
     hartree contribution      =      44.14781069 Ry
     xc contribution           =     -14.27241298 Ry
     ewald contribution        =     -37.51263252 Ry
     smearing contrib. (-TS)   =      -0.00009416 Ry

     convergence has been achieved in   7 iterations

     Forces acting on atoms (cartesian axes, Ry/au):

     atom    1 type  1   force =     0.00000000    0.00000000    0.00000000

     Total force =     0.000000     Total SCF correction =     0.000000


     Computing stress (Cartesian axis) and pressure

          total   stress  (Ry/bohr**3)                   (kbar)     P=   -0.54
  -0.00000370   0.00000000   0.00000000         -0.54      0.00      0.00
   0.00000000  -0.00000370   0.00000000          0.00     -0.54      0.00
  -0.00000000   0.00000000  -0.00000370         -0.00      0.00     -0.54


     Writing output data file na.bcc.save

     init_run     :      1.65s CPU      1.74s WALL (       2 calls)
     electrons    :     96.89s CPU    102.22s WALL (       8 calls)
     update_pot   :      1.32s CPU      1.33s WALL (       6 calls)
     forces       :      1.13s CPU      1.14s WALL (       8 calls)
     stress       :      5.51s CPU      5.55s WALL (       8 calls)

     Called by init_run:
     wfcinit      :      0.96s CPU      1.04s WALL (       2 calls)
     potinit      :      0.10s CPU      0.10s WALL (       2 calls)

     Called by electrons:
     c_bands      :     77.88s CPU     82.38s WALL (      66 calls)
     sum_band     :     17.37s CPU     18.17s WALL (      66 calls)
     v_of_rho     :      0.78s CPU      0.80s WALL (      69 calls)
     newd         :      0.93s CPU      0.93s WALL (      69 calls)
     mix_rho      :      0.06s CPU      0.06s WALL (      66 calls)

     Called by c_bands:
     init_us_2    :      4.28s CPU      4.25s WALL (   37500 calls)
     cegterg      :     73.75s CPU     78.22s WALL (   16500 calls)

     Called by sum_band:
     sum_band:bec :      0.05s CPU      0.05s WALL (   16500 calls)
     addusdens    :      1.17s CPU      1.18s WALL (      66 calls)

     Called by *egterg:
     h_psi        :     62.52s CPU     66.40s WALL (   48615 calls)
     s_psi        :      0.95s CPU      0.72s WALL (   48615 calls)
     g_psi        :      0.50s CPU      0.43s WALL (   31615 calls)
     cdiaghg      :      5.80s CPU      6.05s WALL (   45365 calls)

     Called by h_psi:
     h_psi:pot    :     62.31s CPU     66.08s WALL (   48615 calls)
     h_psi:calbec :      1.52s CPU      1.19s WALL (   48615 calls)
     vloc_psi     :     60.25s CPU     63.99s WALL (   48615 calls)
     add_vuspsi   :      0.47s CPU      0.78s WALL (   48615 calls)

     General routines
     calbec       :      2.28s CPU      2.03s WALL (   75115 calls)
     fft          :      0.39s CPU      0.40s WALL (    1162 calls)
     ffts         :      0.02s CPU      0.02s WALL (     135 calls)
     fftw         :     68.58s CPU     69.03s WALL (  855444 calls)
     interpolate  :      0.07s CPU      0.07s WALL (     135 calls)
     davcio       :      0.00s CPU      0.01s WALL (     500 calls)

     Parallel routines
     fft_scatter  :     10.91s CPU     13.07s WALL (  856741 calls)

     PWSCF        :  1m48.53s CPU     1m54.09s WALL


   This run was terminated on:  16:53:33  20Dec2017            

=------------------------------------------------------------------------------=
   JOB DONE.
=------------------------------------------------------------------------------=
