
     Program PHONON v.6.1 (svn rev. 13369) starts on 21Dec2017 at 12:15:58 

     This program is part of the open-source Quantum ESPRESSO suite
     for quantum simulation of materials; please cite
         "P. Giannozzi et al., J. Phys.:Condens. Matter 21 395502 (2009);
          URL http://www.quantum-espresso.org", 
     in publications or presentations arising from this work. More details at
     http://www.quantum-espresso.org/quote

     Parallel version (MPI), running on     4 processors
     R & G space division:  proc/nbgrp/npool/nimage =       4

     Reading data from directory:
     ./na.fcc.save

   Info: using nr1, nr2, nr3 values from input

   Info: using nr1, nr2, nr3 values from input

     IMPORTANT: XC functional enforced from input :
     Exchange-correlation      = SLA  PW   PBE  PBE ( 1  4  3  4 0 0)
     Any further DFT definition will be discarded
     Please, verify this is what you really want


     Parallelization info
     --------------------
     sticks:   dense  smooth     PW     G-vecs:    dense   smooth      PW
     Min         192      94     34                 3581     1255     266
     Max         193      95     35                 3585     1258     267
     Sum         769     379    139                14331     5029    1067



     Dynamical matrices for ( 8, 8, 8)  uniform grid of q-points
     (  29q-points):
       N         xq(1)         xq(2)         xq(3) 
       1   0.000000000   0.000000000   0.000000000
       2  -0.125000000   0.125000000  -0.125000000
       3  -0.250000000   0.250000000  -0.250000000
       4  -0.375000000   0.375000000  -0.375000000
       5   0.500000000  -0.500000000   0.500000000
       6   0.000000000   0.250000000   0.000000000
       7  -0.125000000   0.375000000  -0.125000000
       8  -0.250000000   0.500000000  -0.250000000
       9   0.625000000  -0.375000000   0.625000000
      10   0.500000000  -0.250000000   0.500000000
      11   0.375000000  -0.125000000   0.375000000
      12   0.250000000   0.000000000   0.250000000
      13   0.000000000   0.500000000   0.000000000
      14  -0.125000000   0.625000000  -0.125000000
      15   0.750000000  -0.250000000   0.750000000
      16   0.625000000  -0.125000000   0.625000000
      17   0.500000000   0.000000000   0.500000000
      18   0.000000000   0.750000000   0.000000000
      19   0.875000000  -0.125000000   0.875000000
      20   0.750000000   0.000000000   0.750000000
      21   0.000000000  -1.000000000   0.000000000
      22  -0.250000000   0.500000000   0.000000000
      23   0.625000000  -0.375000000   0.875000000
      24   0.500000000  -0.250000000   0.750000000
      25   0.750000000  -0.250000000   1.000000000
      26   0.625000000  -0.125000000   0.875000000
      27   0.500000000   0.000000000   0.750000000
      28  -0.250000000  -1.000000000   0.000000000
      29  -0.500000000  -1.000000000   0.000000000

     Calculation of q =    0.0000000   0.0000000   0.0000000

                                                                                

     bravais-lattice index     =            2
     lattice parameter (alat)  =       8.4162  a.u.
     unit-cell volume          =     149.0375 (a.u.)^3
     number of atoms/cell      =            1
     number of atomic types    =            1
     kinetic-energy cut-off    =      40.0000  Ry
     charge density cut-off    =     320.0000  Ry
     convergence threshold     =      1.0E-12
     beta                      =       0.7000
     number of iterations used =            4
     Exchange-correlation      = SLA  PW   PBE  PBE ( 1  4  3  4 0 0)


     celldm(1)=    8.41625  celldm(2)=    0.00000  celldm(3)=    0.00000
     celldm(4)=    0.00000  celldm(5)=    0.00000  celldm(6)=    0.00000

     crystal axes: (cart. coord. in units of alat)
               a(1) = ( -0.5000  0.0000  0.5000 )  
               a(2) = (  0.0000  0.5000  0.5000 )  
               a(3) = ( -0.5000  0.5000  0.0000 )  

     reciprocal axes: (cart. coord. in units 2 pi/alat)
               b(1) = ( -1.0000 -1.0000  1.0000 )  
               b(2) = (  1.0000  1.0000  1.0000 )  
               b(3) = ( -1.0000  1.0000 -1.0000 )  


     Atoms inside the unit cell: 

     Cartesian axes

     site n.  atom      mass           positions (alat units)
        1     Na  22.9900   tau(    1) = (    0.00000    0.00000    0.00000  )

     Computing dynamical matrix for 
                    q = (   0.0000000   0.0000000   0.0000000 )

     49 Sym.Ops. (with q -> -q+G )


     G cutoff =  574.1525  (   3583 G-vectors)     FFT grid: ( 36, 36, 36)
     G cutoff =  287.0762  (   1255 G-vectors)  smooth grid: ( 24, 24, 24)

     number of k points=   280  Marzari-Vanderbilt smearing, width (Ry)=  0.0200

     PseudoPot. # 1 for Na read from file:
     /home/s1333534/quantum_espresso/qe-6.1/pseudo/Na_pbe_v1.uspp.F.UPF
     MD5 check sum: 76a99c7e9422403d3e93cbc85ab7bccb
     Pseudo is Ultrasoft, Zval =  9.0
     Generated by new atomic code, or converted to UPF format
     Using radial grid of  819 points,  5 beta functions with: 
                l(1) =   0
                l(2) =   0
                l(3) =   1
                l(4) =   1
                l(5) =   2
     Q(r) pseudized with  8 coefficients,  rinner =    1.250   1.250   1.250
                                                       1.250   1.250

     Mode symmetry, O_h (m-3m)  point group:


     Atomic displacements:
     There are   1 irreducible representations

     Representation     1      3 modes -T_1u G_15  G_4-  To be done



     Alpha used in Ewald sum =   2.8000
     PHONON       :     1.72s CPU         1.80s WALL



     Representation #  1 modes #   1  2  3

     Self-consistent Calculation

     Pert. #  1: Fermi energy shift (Ry) =    -8.7888E-25     1.0971E-37
     Pert. #  2: Fermi energy shift (Ry) =     7.0655E-25    -8.6203E-38
     Pert. #  3: Fermi energy shift (Ry) =    -6.9793E-25     3.1347E-38

      iter #   1 total cpu time :     6.4 secs   av.it.:   5.4
      thresh= 1.000E-02 alpha_mix =  0.700 |ddv_scf|^2 =  2.777E-06

     Pert. #  1: Fermi energy shift (Ry) =     1.3786E-25     4.8979E-40
     Pert. #  2: Fermi energy shift (Ry) =    -9.7797E-25     1.4694E-39
     Pert. #  3: Fermi energy shift (Ry) =    -1.6802E-25    -1.9592E-39

      iter #   2 total cpu time :    11.7 secs   av.it.:   8.4
      thresh= 1.666E-04 alpha_mix =  0.700 |ddv_scf|^2 =  5.564E-08

     Pert. #  1: Fermi energy shift (Ry) =     7.6256E-25    -6.1224E-41
     Pert. #  2: Fermi energy shift (Ry) =     1.3140E-25     7.6530E-41
     Pert. #  3: Fermi energy shift (Ry) =     2.3695E-26    -1.2245E-40

      iter #   3 total cpu time :    17.1 secs   av.it.:   8.5
      thresh= 2.359E-05 alpha_mix =  0.700 |ddv_scf|^2 =  5.065E-10

     Pert. #  1: Fermi energy shift (Ry) =    -5.8161E-26    -5.3571E-41
     Pert. #  2: Fermi energy shift (Ry) =    -1.4325E-25     3.9221E-41
     Pert. #  3: Fermi energy shift (Ry) =     4.1197E-25     1.9132E-42

      iter #   4 total cpu time :    22.3 secs   av.it.:   7.9
      thresh= 2.251E-06 alpha_mix =  0.700 |ddv_scf|^2 =  1.396E-12

     Pert. #  1: Fermi energy shift (Ry) =    -2.1541E-25    -5.7397E-42
     Pert. #  2: Fermi energy shift (Ry) =     2.0464E-25     6.1224E-41
     Pert. #  3: Fermi energy shift (Ry) =     8.8319E-26    -7.6530E-42

      iter #   5 total cpu time :    27.5 secs   av.it.:   8.2
      thresh= 1.181E-07 alpha_mix =  0.700 |ddv_scf|^2 =  9.425E-15

     End of self-consistent calculation

     Convergence has been achieved 

     Number of q in the star =    1
     List of q in the star:
          1   0.000000000   0.000000000   0.000000000

     Diagonalizing the dynamical matrix

     q = (    0.000000000   0.000000000   0.000000000 ) 

 **************************************************************************
     freq (    1) =       0.585229 [THz] =      19.521126 [cm-1]
     freq (    2) =       0.585229 [THz] =      19.521126 [cm-1]
     freq (    3) =       0.585229 [THz] =      19.521126 [cm-1]
 **************************************************************************

     Mode symmetry, O_h (m-3m)  point group:

     freq (  1 -  3) =         19.5  [cm-1]   --> T_1u G_15  G_4- I  

     Calculation of q =   -0.1250000   0.1250000  -0.1250000

   Info: using nr1, nr2, nr3 values from input

   Info: using nr1, nr2, nr3 values from input

     Parallelization info
     --------------------
     sticks:   dense  smooth     PW     G-vecs:    dense   smooth      PW
     Min         192      94     37                 3581     1255     284
     Max         193      95     38                 3585     1258     285
     Sum         769     379    151                14331     5029    1139



     bravais-lattice index     =            2
     lattice parameter (alat)  =       8.4162  a.u.
     unit-cell volume          =     149.0375 (a.u.)^3
     number of atoms/cell      =            1
     number of atomic types    =            1
     number of electrons       =         9.00
     number of Kohn-Sham states=            9
     kinetic-energy cutoff     =      40.0000  Ry
     charge density cutoff     =     320.0000  Ry
     Exchange-correlation      = SLA  PW   PBE  PBE ( 1  4  3  4 0 0)

     celldm(1)=   8.416248  celldm(2)=   0.000000  celldm(3)=   0.000000
     celldm(4)=   0.000000  celldm(5)=   0.000000  celldm(6)=   0.000000

     crystal axes: (cart. coord. in units of alat)
               a(1) = (  -0.500000   0.000000   0.500000 )  
               a(2) = (   0.000000   0.500000   0.500000 )  
               a(3) = (  -0.500000   0.500000   0.000000 )  

     reciprocal axes: (cart. coord. in units 2 pi/alat)
               b(1) = ( -1.000000 -1.000000  1.000000 )  
               b(2) = (  1.000000  1.000000  1.000000 )  
               b(3) = ( -1.000000  1.000000 -1.000000 )  


     PseudoPot. # 1 for Na read from file:
     /home/s1333534/quantum_espresso/qe-6.1/pseudo/Na_pbe_v1.uspp.F.UPF
     MD5 check sum: 76a99c7e9422403d3e93cbc85ab7bccb
     Pseudo is Ultrasoft, Zval =  9.0
     Generated by new atomic code, or converted to UPF format
     Using radial grid of  819 points,  5 beta functions with: 
                l(1) =   0
                l(2) =   0
                l(3) =   1
                l(4) =   1
                l(5) =   2
     Q(r) pseudized with  8 coefficients,  rinner =    1.250   1.250   1.250
                                                       1.250   1.250

     atomic species   valence    mass     pseudopotential
        Na             9.00    22.99000     Na( 1.00)

     48 Sym. Ops., with inversion, found



   Cartesian axes

     site n.     atom                  positions (alat units)
         1           Na  tau(   1) = (   0.0000000   0.0000000   0.0000000  )

     number of k points=  4060  Marzari-Vanderbilt smearing, width (Ry)=  0.0200

     Number of k-points >= 100: set verbosity='high' to print them.

     Dense  grid:    14331 G-vectors     FFT dimensions: (  36,  36,  36)

     Smooth grid:     5029 G-vectors     FFT dimensions: (  24,  24,  24)

     Estimated max dynamical RAM per process >       1.47MB

     Estimated total allocated dynamical RAM >       5.88MB

     The potential is recalculated from file :
     ./_ph0/na.fcc.save/charge-density.dat

     Starting wfc are    5 atomic +    4 random wfc

     Band Structure Calculation
     Davidson diagonalization with overlap

     ethr =  1.11E-10,  avg # of iterations = 16.5

     total cpu time spent up to now is       65.8 secs

     End of band structure calculation

     Number of k-points >= 100: set verbosity='high' to print the bands.

     the Fermi energy is     4.4908 ev

     Writing output data file na.fcc.save

                                                                                

     bravais-lattice index     =            2
     lattice parameter (alat)  =       8.4162  a.u.
     unit-cell volume          =     149.0375 (a.u.)^3
     number of atoms/cell      =            1
     number of atomic types    =            1
     kinetic-energy cut-off    =      40.0000  Ry
     charge density cut-off    =     320.0000  Ry
     convergence threshold     =      1.0E-12
     beta                      =       0.7000
     number of iterations used =            4
     Exchange-correlation      = SLA  PW   PBE  PBE ( 1  4  3  4 0 0)


     celldm(1)=    8.41625  celldm(2)=    0.00000  celldm(3)=    0.00000
     celldm(4)=    0.00000  celldm(5)=    0.00000  celldm(6)=    0.00000

     crystal axes: (cart. coord. in units of alat)
               a(1) = ( -0.5000  0.0000  0.5000 )  
               a(2) = (  0.0000  0.5000  0.5000 )  
               a(3) = ( -0.5000  0.5000  0.0000 )  

     reciprocal axes: (cart. coord. in units 2 pi/alat)
               b(1) = ( -1.0000 -1.0000  1.0000 )  
               b(2) = (  1.0000  1.0000  1.0000 )  
               b(3) = ( -1.0000  1.0000 -1.0000 )  


     Atoms inside the unit cell: 

     Cartesian axes

     site n.  atom      mass           positions (alat units)
        1     Na  22.9900   tau(    1) = (    0.00000    0.00000    0.00000  )

     Computing dynamical matrix for 
                    q = (  -0.1250000   0.1250000  -0.1250000 )

      6 Sym.Ops. (no q -> -q+G )


     G cutoff =  574.1525  (   3583 G-vectors)     FFT grid: ( 36, 36, 36)
     G cutoff =  287.0762  (   1255 G-vectors)  smooth grid: ( 24, 24, 24)

     number of k points=  4060  Marzari-Vanderbilt smearing, width (Ry)=  0.0200

     PseudoPot. # 1 for Na read from file:
     /home/s1333534/quantum_espresso/qe-6.1/pseudo/Na_pbe_v1.uspp.F.UPF
     MD5 check sum: 76a99c7e9422403d3e93cbc85ab7bccb
     Pseudo is Ultrasoft, Zval =  9.0
     Generated by new atomic code, or converted to UPF format
     Using radial grid of  819 points,  5 beta functions with: 
                l(1) =   0
                l(2) =   0
                l(3) =   1
                l(4) =   1
                l(5) =   2
     Q(r) pseudized with  8 coefficients,  rinner =    1.250   1.250   1.250
                                                       1.250   1.250

     Mode symmetry, C_3v (3m)   point group:


     Atomic displacements:
     There are   2 irreducible representations

     Representation     1      1 modes -A_1  L_1  To be done

     Representation     2      2 modes -E    L_3  To be done



     Alpha used in Ewald sum =   2.8000
     PHONON       :  1m37.41s CPU     1m41.59s WALL



     Representation #  1 mode #   1

     Self-consistent Calculation

      iter #   1 total cpu time :   112.4 secs   av.it.:   5.7
      thresh= 1.000E-02 alpha_mix =  0.700 |ddv_scf|^2 =  4.814E-01

      iter #   2 total cpu time :   123.8 secs   av.it.:   7.3
      thresh= 1.000E-02 alpha_mix =  0.700 |ddv_scf|^2 =  2.199E+02

      iter #   3 total cpu time :   135.4 secs   av.it.:   7.3
      thresh= 1.000E-02 alpha_mix =  0.700 |ddv_scf|^2 =  5.934E-04

      iter #   4 total cpu time :   143.9 secs   av.it.:   5.0
      thresh= 2.436E-03 alpha_mix =  0.700 |ddv_scf|^2 =  7.154E-07

      iter #   5 total cpu time :   154.7 secs   av.it.:   6.9
      thresh= 8.458E-05 alpha_mix =  0.700 |ddv_scf|^2 =  1.314E-08

      iter #   6 total cpu time :   165.6 secs   av.it.:   7.0
      thresh= 1.146E-05 alpha_mix =  0.700 |ddv_scf|^2 =  7.692E-07

      iter #   7 total cpu time :   173.2 secs   av.it.:   4.1
      thresh= 8.770E-05 alpha_mix =  0.700 |ddv_scf|^2 =  2.285E-10

      iter #   8 total cpu time :   184.7 secs   av.it.:   7.5
      thresh= 1.511E-06 alpha_mix =  0.700 |ddv_scf|^2 =  5.133E-11

      iter #   9 total cpu time :   195.3 secs   av.it.:   6.8
      thresh= 7.165E-07 alpha_mix =  0.700 |ddv_scf|^2 =  7.937E-13

     End of self-consistent calculation

     Convergence has been achieved 


     Representation #  2 modes #   2  3

     Self-consistent Calculation

      iter #   1 total cpu time :   217.4 secs   av.it.:   5.6
      thresh= 1.000E-02 alpha_mix =  0.700 |ddv_scf|^2 =  6.318E-06

      iter #   2 total cpu time :   242.9 secs   av.it.:   8.3
      thresh= 2.514E-04 alpha_mix =  0.700 |ddv_scf|^2 =  1.245E-07

      iter #   3 total cpu time :   268.2 secs   av.it.:   8.4
      thresh= 3.528E-05 alpha_mix =  0.700 |ddv_scf|^2 =  1.256E-09

      iter #   4 total cpu time :   292.0 secs   av.it.:   8.0
      thresh= 3.544E-06 alpha_mix =  0.700 |ddv_scf|^2 =  3.528E-12

      iter #   5 total cpu time :   316.6 secs   av.it.:   8.2
      thresh= 1.878E-07 alpha_mix =  0.700 |ddv_scf|^2 =  2.074E-14

     End of self-consistent calculation

     Convergence has been achieved 

     Number of q in the star =    8
     List of q in the star:
          1  -0.125000000   0.125000000  -0.125000000
          2   0.125000000  -0.125000000  -0.125000000
          3   0.125000000  -0.125000000   0.125000000
          4  -0.125000000   0.125000000   0.125000000
          5   0.125000000   0.125000000  -0.125000000
          6  -0.125000000  -0.125000000  -0.125000000
          7  -0.125000000  -0.125000000   0.125000000
          8   0.125000000   0.125000000   0.125000000

     Diagonalizing the dynamical matrix

     q = (   -0.125000000   0.125000000  -0.125000000 ) 

 **************************************************************************
     freq (    1) =       0.975285 [THz] =      32.532021 [cm-1]
     freq (    2) =       0.975285 [THz] =      32.532021 [cm-1]
     freq (    3) =       3.004105 [THz] =     100.206170 [cm-1]
 **************************************************************************

     Mode symmetry, C_3v (3m)   point group:

     freq (  1 -  2) =         32.5  [cm-1]   --> E    L_3           
     freq (  3 -  3) =        100.2  [cm-1]   --> A_1  L_1           

     Calculation of q =   -0.2500000   0.2500000  -0.2500000

   Info: using nr1, nr2, nr3 values from input

   Info: using nr1, nr2, nr3 values from input

     Parallelization info
     --------------------
     sticks:   dense  smooth     PW     G-vecs:    dense   smooth      PW
     Min         192      94     37                 3581     1255     309
     Max         193      95     38                 3585     1258     312
     Sum         769     379    151                14331     5029    1243



     bravais-lattice index     =            2
     lattice parameter (alat)  =       8.4162  a.u.
     unit-cell volume          =     149.0375 (a.u.)^3
     number of atoms/cell      =            1
     number of atomic types    =            1
     number of electrons       =         9.00
     number of Kohn-Sham states=            9
     kinetic-energy cutoff     =      40.0000  Ry
     charge density cutoff     =     320.0000  Ry
     Exchange-correlation      = SLA  PW   PBE  PBE ( 1  4  3  4 0 0)

     celldm(1)=   8.416248  celldm(2)=   0.000000  celldm(3)=   0.000000
     celldm(4)=   0.000000  celldm(5)=   0.000000  celldm(6)=   0.000000

     crystal axes: (cart. coord. in units of alat)
               a(1) = (  -0.500000   0.000000   0.500000 )  
               a(2) = (   0.000000   0.500000   0.500000 )  
               a(3) = (  -0.500000   0.500000   0.000000 )  

     reciprocal axes: (cart. coord. in units 2 pi/alat)
               b(1) = ( -1.000000 -1.000000  1.000000 )  
               b(2) = (  1.000000  1.000000  1.000000 )  
               b(3) = ( -1.000000  1.000000 -1.000000 )  


     PseudoPot. # 1 for Na read from file:
     /home/s1333534/quantum_espresso/qe-6.1/pseudo/Na_pbe_v1.uspp.F.UPF
     MD5 check sum: 76a99c7e9422403d3e93cbc85ab7bccb
     Pseudo is Ultrasoft, Zval =  9.0
     Generated by new atomic code, or converted to UPF format
     Using radial grid of  819 points,  5 beta functions with: 
                l(1) =   0
                l(2) =   0
                l(3) =   1
                l(4) =   1
                l(5) =   2
     Q(r) pseudized with  8 coefficients,  rinner =    1.250   1.250   1.250
                                                       1.250   1.250

     atomic species   valence    mass     pseudopotential
        Na             9.00    22.99000     Na( 1.00)

     48 Sym. Ops., with inversion, found



   Cartesian axes

     site n.     atom                  positions (alat units)
         1           Na  tau(   1) = (   0.0000000   0.0000000   0.0000000  )

     number of k points=  4060  Marzari-Vanderbilt smearing, width (Ry)=  0.0200

     Number of k-points >= 100: set verbosity='high' to print them.

     Dense  grid:    14331 G-vectors     FFT dimensions: (  36,  36,  36)

     Smooth grid:     5029 G-vectors     FFT dimensions: (  24,  24,  24)

     Estimated max dynamical RAM per process >       1.47MB

     Estimated total allocated dynamical RAM >       5.88MB

     The potential is recalculated from file :
     ./_ph0/na.fcc.save/charge-density.dat

     Starting wfc are    5 atomic +    4 random wfc

     Band Structure Calculation
     Davidson diagonalization with overlap

     ethr =  1.11E-10,  avg # of iterations = 16.5

     total cpu time spent up to now is      134.1 secs

     End of band structure calculation

     Number of k-points >= 100: set verbosity='high' to print the bands.

     the Fermi energy is     4.4908 ev

     Writing output data file na.fcc.save

                                                                                

     bravais-lattice index     =            2
     lattice parameter (alat)  =       8.4162  a.u.
     unit-cell volume          =     149.0375 (a.u.)^3
     number of atoms/cell      =            1
     number of atomic types    =            1
     kinetic-energy cut-off    =      40.0000  Ry
     charge density cut-off    =     320.0000  Ry
     convergence threshold     =      1.0E-12
     beta                      =       0.7000
     number of iterations used =            4
     Exchange-correlation      = SLA  PW   PBE  PBE ( 1  4  3  4 0 0)


     celldm(1)=    8.41625  celldm(2)=    0.00000  celldm(3)=    0.00000
     celldm(4)=    0.00000  celldm(5)=    0.00000  celldm(6)=    0.00000

     crystal axes: (cart. coord. in units of alat)
               a(1) = ( -0.5000  0.0000  0.5000 )  
               a(2) = (  0.0000  0.5000  0.5000 )  
               a(3) = ( -0.5000  0.5000  0.0000 )  

     reciprocal axes: (cart. coord. in units 2 pi/alat)
               b(1) = ( -1.0000 -1.0000  1.0000 )  
               b(2) = (  1.0000  1.0000  1.0000 )  
               b(3) = ( -1.0000  1.0000 -1.0000 )  


     Atoms inside the unit cell: 

     Cartesian axes

     site n.  atom      mass           positions (alat units)
        1     Na  22.9900   tau(    1) = (    0.00000    0.00000    0.00000  )

     Computing dynamical matrix for 
                    q = (  -0.2500000   0.2500000  -0.2500000 )

      6 Sym.Ops. (no q -> -q+G )


     G cutoff =  574.1525  (   3583 G-vectors)     FFT grid: ( 36, 36, 36)
     G cutoff =  287.0762  (   1255 G-vectors)  smooth grid: ( 24, 24, 24)

     number of k points=  4060  Marzari-Vanderbilt smearing, width (Ry)=  0.0200

     PseudoPot. # 1 for Na read from file:
     /home/s1333534/quantum_espresso/qe-6.1/pseudo/Na_pbe_v1.uspp.F.UPF
     MD5 check sum: 76a99c7e9422403d3e93cbc85ab7bccb
     Pseudo is Ultrasoft, Zval =  9.0
     Generated by new atomic code, or converted to UPF format
     Using radial grid of  819 points,  5 beta functions with: 
                l(1) =   0
                l(2) =   0
                l(3) =   1
                l(4) =   1
                l(5) =   2
     Q(r) pseudized with  8 coefficients,  rinner =    1.250   1.250   1.250
                                                       1.250   1.250

     Mode symmetry, C_3v (3m)   point group:


     Atomic displacements:
     There are   2 irreducible representations

     Representation     1      1 modes -A_1  L_1  To be done

     Representation     2      2 modes -E    L_3  To be done



     Alpha used in Ewald sum =   2.8000
     PHONON       :  6m11.71s CPU     6m30.90s WALL



     Representation #  1 mode #   1

     Self-consistent Calculation

      iter #   1 total cpu time :   401.9 secs   av.it.:   5.7
      thresh= 1.000E-02 alpha_mix =  0.700 |ddv_scf|^2 =  7.599E-03

      iter #   2 total cpu time :   412.2 secs   av.it.:   6.3
      thresh= 8.717E-03 alpha_mix =  0.700 |ddv_scf|^2 =  1.661E-01

      iter #   3 total cpu time :   422.4 secs   av.it.:   6.1
      thresh= 1.000E-02 alpha_mix =  0.700 |ddv_scf|^2 =  6.009E-06

      iter #   4 total cpu time :   433.9 secs   av.it.:   7.2
      thresh= 2.451E-04 alpha_mix =  0.700 |ddv_scf|^2 =  2.231E-08

      iter #   5 total cpu time :   446.1 secs   av.it.:   7.9
      thresh= 1.494E-05 alpha_mix =  0.700 |ddv_scf|^2 =  4.756E-09

      iter #   6 total cpu time :   457.7 secs   av.it.:   7.5
      thresh= 6.897E-06 alpha_mix =  0.700 |ddv_scf|^2 =  5.171E-11

      iter #   7 total cpu time :   469.4 secs   av.it.:   7.5
      thresh= 7.191E-07 alpha_mix =  0.700 |ddv_scf|^2 =  5.567E-12

      iter #   8 total cpu time :   480.6 secs   av.it.:   7.2
      thresh= 2.359E-07 alpha_mix =  0.700 |ddv_scf|^2 =  1.620E-13

     End of self-consistent calculation

     Convergence has been achieved 


     Representation #  2 modes #   2  3

     Self-consistent Calculation

      iter #   1 total cpu time :   502.6 secs   av.it.:   5.6
      thresh= 1.000E-02 alpha_mix =  0.700 |ddv_scf|^2 =  6.482E-06

      iter #   2 total cpu time :   529.3 secs   av.it.:   8.3
      thresh= 2.546E-04 alpha_mix =  0.700 |ddv_scf|^2 =  1.231E-07

      iter #   3 total cpu time :   554.6 secs   av.it.:   8.4
      thresh= 3.509E-05 alpha_mix =  0.700 |ddv_scf|^2 =  1.521E-09

      iter #   4 total cpu time :   578.7 secs   av.it.:   8.0
      thresh= 3.900E-06 alpha_mix =  0.700 |ddv_scf|^2 =  4.451E-12

      iter #   5 total cpu time :   603.9 secs   av.it.:   8.2
      thresh= 2.110E-07 alpha_mix =  0.700 |ddv_scf|^2 =  1.970E-14

     End of self-consistent calculation

     Convergence has been achieved 

     Number of q in the star =    8
     List of q in the star:
          1  -0.250000000   0.250000000  -0.250000000
          2   0.250000000  -0.250000000  -0.250000000
          3   0.250000000  -0.250000000   0.250000000
          4  -0.250000000   0.250000000   0.250000000
          5   0.250000000   0.250000000  -0.250000000
          6  -0.250000000  -0.250000000  -0.250000000
          7  -0.250000000  -0.250000000   0.250000000
          8   0.250000000   0.250000000   0.250000000

     Diagonalizing the dynamical matrix

     q = (   -0.250000000   0.250000000  -0.250000000 ) 

 **************************************************************************
     freq (    1) =       1.606019 [THz] =      53.571023 [cm-1]
     freq (    2) =       1.606019 [THz] =      53.571023 [cm-1]
     freq (    3) =       5.245497 [THz] =     174.970961 [cm-1]
 **************************************************************************

     Mode symmetry, C_3v (3m)   point group:

     freq (  1 -  2) =         53.6  [cm-1]   --> E    L_3           
     freq (  3 -  3) =        175.0  [cm-1]   --> A_1  L_1           

     Calculation of q =   -0.3750000   0.3750000  -0.3750000

   Info: using nr1, nr2, nr3 values from input

   Info: using nr1, nr2, nr3 values from input

     Parallelization info
     --------------------
     sticks:   dense  smooth     PW     G-vecs:    dense   smooth      PW
     Min         192      94     37                 3581     1255     309
     Max         193      95     38                 3585     1258     312
     Sum         769     379    151                14331     5029    1243



     bravais-lattice index     =            2
     lattice parameter (alat)  =       8.4162  a.u.
     unit-cell volume          =     149.0375 (a.u.)^3
     number of atoms/cell      =            1
     number of atomic types    =            1
     number of electrons       =         9.00
     number of Kohn-Sham states=            9
     kinetic-energy cutoff     =      40.0000  Ry
     charge density cutoff     =     320.0000  Ry
     Exchange-correlation      = SLA  PW   PBE  PBE ( 1  4  3  4 0 0)

     celldm(1)=   8.416248  celldm(2)=   0.000000  celldm(3)=   0.000000
     celldm(4)=   0.000000  celldm(5)=   0.000000  celldm(6)=   0.000000

     crystal axes: (cart. coord. in units of alat)
               a(1) = (  -0.500000   0.000000   0.500000 )  
               a(2) = (   0.000000   0.500000   0.500000 )  
               a(3) = (  -0.500000   0.500000   0.000000 )  

     reciprocal axes: (cart. coord. in units 2 pi/alat)
               b(1) = ( -1.000000 -1.000000  1.000000 )  
               b(2) = (  1.000000  1.000000  1.000000 )  
               b(3) = ( -1.000000  1.000000 -1.000000 )  


     PseudoPot. # 1 for Na read from file:
     /home/s1333534/quantum_espresso/qe-6.1/pseudo/Na_pbe_v1.uspp.F.UPF
     MD5 check sum: 76a99c7e9422403d3e93cbc85ab7bccb
     Pseudo is Ultrasoft, Zval =  9.0
     Generated by new atomic code, or converted to UPF format
     Using radial grid of  819 points,  5 beta functions with: 
                l(1) =   0
                l(2) =   0
                l(3) =   1
                l(4) =   1
                l(5) =   2
     Q(r) pseudized with  8 coefficients,  rinner =    1.250   1.250   1.250
                                                       1.250   1.250

     atomic species   valence    mass     pseudopotential
        Na             9.00    22.99000     Na( 1.00)

     48 Sym. Ops., with inversion, found



   Cartesian axes

     site n.     atom                  positions (alat units)
         1           Na  tau(   1) = (   0.0000000   0.0000000   0.0000000  )

     number of k points=  4060  Marzari-Vanderbilt smearing, width (Ry)=  0.0200

     Number of k-points >= 100: set verbosity='high' to print them.

     Dense  grid:    14331 G-vectors     FFT dimensions: (  36,  36,  36)

     Smooth grid:     5029 G-vectors     FFT dimensions: (  24,  24,  24)

     Estimated max dynamical RAM per process >       1.47MB

     Estimated total allocated dynamical RAM >       5.88MB

     The potential is recalculated from file :
     ./_ph0/na.fcc.save/charge-density.dat

     Starting wfc are    5 atomic +    4 random wfc

     Band Structure Calculation
     Davidson diagonalization with overlap

     ethr =  1.11E-10,  avg # of iterations = 16.5

     total cpu time spent up to now is      202.1 secs

     End of band structure calculation

     Number of k-points >= 100: set verbosity='high' to print the bands.

     the Fermi energy is     4.4908 ev

     Writing output data file na.fcc.save

                                                                                

     bravais-lattice index     =            2
     lattice parameter (alat)  =       8.4162  a.u.
     unit-cell volume          =     149.0375 (a.u.)^3
     number of atoms/cell      =            1
     number of atomic types    =            1
     kinetic-energy cut-off    =      40.0000  Ry
     charge density cut-off    =     320.0000  Ry
     convergence threshold     =      1.0E-12
     beta                      =       0.7000
     number of iterations used =            4
     Exchange-correlation      = SLA  PW   PBE  PBE ( 1  4  3  4 0 0)


     celldm(1)=    8.41625  celldm(2)=    0.00000  celldm(3)=    0.00000
     celldm(4)=    0.00000  celldm(5)=    0.00000  celldm(6)=    0.00000

     crystal axes: (cart. coord. in units of alat)
               a(1) = ( -0.5000  0.0000  0.5000 )  
               a(2) = (  0.0000  0.5000  0.5000 )  
               a(3) = ( -0.5000  0.5000  0.0000 )  

     reciprocal axes: (cart. coord. in units 2 pi/alat)
               b(1) = ( -1.0000 -1.0000  1.0000 )  
               b(2) = (  1.0000  1.0000  1.0000 )  
               b(3) = ( -1.0000  1.0000 -1.0000 )  


     Atoms inside the unit cell: 

     Cartesian axes

     site n.  atom      mass           positions (alat units)
        1     Na  22.9900   tau(    1) = (    0.00000    0.00000    0.00000  )

     Computing dynamical matrix for 
                    q = (  -0.3750000   0.3750000  -0.3750000 )

      6 Sym.Ops. (no q -> -q+G )


     G cutoff =  574.1525  (   3583 G-vectors)     FFT grid: ( 36, 36, 36)
     G cutoff =  287.0762  (   1255 G-vectors)  smooth grid: ( 24, 24, 24)

     number of k points=  4060  Marzari-Vanderbilt smearing, width (Ry)=  0.0200

     PseudoPot. # 1 for Na read from file:
     /home/s1333534/quantum_espresso/qe-6.1/pseudo/Na_pbe_v1.uspp.F.UPF
     MD5 check sum: 76a99c7e9422403d3e93cbc85ab7bccb
     Pseudo is Ultrasoft, Zval =  9.0
     Generated by new atomic code, or converted to UPF format
     Using radial grid of  819 points,  5 beta functions with: 
                l(1) =   0
                l(2) =   0
                l(3) =   1
                l(4) =   1
                l(5) =   2
     Q(r) pseudized with  8 coefficients,  rinner =    1.250   1.250   1.250
                                                       1.250   1.250

     Mode symmetry, C_3v (3m)   point group:


     Atomic displacements:
     There are   2 irreducible representations

     Representation     1      1 modes -A_1  L_1  To be done

     Representation     2      2 modes -E    L_3  To be done



     Alpha used in Ewald sum =   2.8000
     PHONON       : 10m42.66s CPU    11m17.87s WALL



     Representation #  1 mode #   1

     Self-consistent Calculation

      iter #   1 total cpu time :   689.0 secs   av.it.:   5.8
      thresh= 1.000E-02 alpha_mix =  0.700 |ddv_scf|^2 =  7.843E-04

      iter #   2 total cpu time :   699.6 secs   av.it.:   6.6
      thresh= 2.801E-03 alpha_mix =  0.700 |ddv_scf|^2 =  2.233E-03

      iter #   3 total cpu time :   709.6 secs   av.it.:   6.1
      thresh= 4.725E-03 alpha_mix =  0.700 |ddv_scf|^2 =  9.117E-07

      iter #   4 total cpu time :   721.9 secs   av.it.:   7.7
      thresh= 9.548E-05 alpha_mix =  0.700 |ddv_scf|^2 =  2.300E-08

      iter #   5 total cpu time :   734.3 secs   av.it.:   8.0
      thresh= 1.517E-05 alpha_mix =  0.700 |ddv_scf|^2 =  1.232E-09

      iter #   6 total cpu time :   746.3 secs   av.it.:   7.8
      thresh= 3.510E-06 alpha_mix =  0.700 |ddv_scf|^2 =  3.437E-11

      iter #   7 total cpu time :   757.9 secs   av.it.:   7.5
      thresh= 5.863E-07 alpha_mix =  0.700 |ddv_scf|^2 =  1.959E-12

      iter #   8 total cpu time :   769.7 secs   av.it.:   7.6
      thresh= 1.400E-07 alpha_mix =  0.700 |ddv_scf|^2 =  3.484E-15

     End of self-consistent calculation

     Convergence has been achieved 


     Representation #  2 modes #   2  3

     Self-consistent Calculation

      iter #   1 total cpu time :   791.8 secs   av.it.:   5.6
      thresh= 1.000E-02 alpha_mix =  0.700 |ddv_scf|^2 =  6.638E-06

      iter #   2 total cpu time :   818.0 secs   av.it.:   8.3
      thresh= 2.577E-04 alpha_mix =  0.700 |ddv_scf|^2 =  1.221E-07

      iter #   3 total cpu time :   844.2 secs   av.it.:   8.3
      thresh= 3.495E-05 alpha_mix =  0.700 |ddv_scf|^2 =  1.750E-09

      iter #   4 total cpu time :   868.3 secs   av.it.:   8.0
      thresh= 4.184E-06 alpha_mix =  0.700 |ddv_scf|^2 =  5.248E-12

      iter #   5 total cpu time :   893.6 secs   av.it.:   8.2
      thresh= 2.291E-07 alpha_mix =  0.700 |ddv_scf|^2 =  1.919E-14

     End of self-consistent calculation

     Convergence has been achieved 

     Number of q in the star =    8
     List of q in the star:
          1  -0.375000000   0.375000000  -0.375000000
          2   0.375000000  -0.375000000  -0.375000000
          3   0.375000000  -0.375000000   0.375000000
          4  -0.375000000   0.375000000   0.375000000
          5   0.375000000   0.375000000  -0.375000000
          6  -0.375000000  -0.375000000  -0.375000000
          7  -0.375000000  -0.375000000   0.375000000
          8   0.375000000   0.375000000   0.375000000

     Diagonalizing the dynamical matrix

     q = (   -0.375000000   0.375000000  -0.375000000 ) 

 **************************************************************************
     freq (    1) =       2.102332 [THz] =      70.126244 [cm-1]
     freq (    2) =       2.102332 [THz] =      70.126244 [cm-1]
     freq (    3) =       6.930808 [THz] =     231.186856 [cm-1]
 **************************************************************************

     Mode symmetry, C_3v (3m)   point group:

     freq (  1 -  2) =         70.1  [cm-1]   --> E    L_3           
     freq (  3 -  3) =        231.2  [cm-1]   --> A_1  L_1           

     Calculation of q =    0.5000000  -0.5000000   0.5000000

   Info: using nr1, nr2, nr3 values from input

   Info: using nr1, nr2, nr3 values from input

     Parallelization info
     --------------------
     sticks:   dense  smooth     PW     G-vecs:    dense   smooth      PW
     Min         192      94     40                 3581     1255     340
     Max         193      95     41                 3585     1258     342
     Sum         769     379    163                14331     5029    1363



     bravais-lattice index     =            2
     lattice parameter (alat)  =       8.4162  a.u.
     unit-cell volume          =     149.0375 (a.u.)^3
     number of atoms/cell      =            1
     number of atomic types    =            1
     number of electrons       =         9.00
     number of Kohn-Sham states=            9
     kinetic-energy cutoff     =      40.0000  Ry
     charge density cutoff     =     320.0000  Ry
     Exchange-correlation      = SLA  PW   PBE  PBE ( 1  4  3  4 0 0)

     celldm(1)=   8.416248  celldm(2)=   0.000000  celldm(3)=   0.000000
     celldm(4)=   0.000000  celldm(5)=   0.000000  celldm(6)=   0.000000

     crystal axes: (cart. coord. in units of alat)
               a(1) = (  -0.500000   0.000000   0.500000 )  
               a(2) = (   0.000000   0.500000   0.500000 )  
               a(3) = (  -0.500000   0.500000   0.000000 )  

     reciprocal axes: (cart. coord. in units 2 pi/alat)
               b(1) = ( -1.000000 -1.000000  1.000000 )  
               b(2) = (  1.000000  1.000000  1.000000 )  
               b(3) = ( -1.000000  1.000000 -1.000000 )  


     PseudoPot. # 1 for Na read from file:
     /home/s1333534/quantum_espresso/qe-6.1/pseudo/Na_pbe_v1.uspp.F.UPF
     MD5 check sum: 76a99c7e9422403d3e93cbc85ab7bccb
     Pseudo is Ultrasoft, Zval =  9.0
     Generated by new atomic code, or converted to UPF format
     Using radial grid of  819 points,  5 beta functions with: 
                l(1) =   0
                l(2) =   0
                l(3) =   1
                l(4) =   1
                l(5) =   2
     Q(r) pseudized with  8 coefficients,  rinner =    1.250   1.250   1.250
                                                       1.250   1.250

     atomic species   valence    mass     pseudopotential
        Na             9.00    22.99000     Na( 1.00)

     48 Sym. Ops., with inversion, found



   Cartesian axes

     site n.     atom                  positions (alat units)
         1           Na  tau(   1) = (   0.0000000   0.0000000   0.0000000  )

     number of k points=  2030  Marzari-Vanderbilt smearing, width (Ry)=  0.0200

     Number of k-points >= 100: set verbosity='high' to print them.

     Dense  grid:    14331 G-vectors     FFT dimensions: (  36,  36,  36)

     Smooth grid:     5029 G-vectors     FFT dimensions: (  24,  24,  24)

     Estimated max dynamical RAM per process >       1.47MB

     Estimated total allocated dynamical RAM >       5.88MB

     The potential is recalculated from file :
     ./_ph0/na.fcc.save/charge-density.dat

     Starting wfc are    5 atomic +    4 random wfc

     Band Structure Calculation
     Davidson diagonalization with overlap

     ethr =  1.11E-10,  avg # of iterations = 16.5

     total cpu time spent up to now is      237.7 secs

     End of band structure calculation

     Number of k-points >= 100: set verbosity='high' to print the bands.

     the Fermi energy is     4.4908 ev

     Writing output data file na.fcc.save

                                                                                

     bravais-lattice index     =            2
     lattice parameter (alat)  =       8.4162  a.u.
     unit-cell volume          =     149.0375 (a.u.)^3
     number of atoms/cell      =            1
     number of atomic types    =            1
     kinetic-energy cut-off    =      40.0000  Ry
     charge density cut-off    =     320.0000  Ry
     convergence threshold     =      1.0E-12
     beta                      =       0.7000
     number of iterations used =            4
     Exchange-correlation      = SLA  PW   PBE  PBE ( 1  4  3  4 0 0)


     celldm(1)=    8.41625  celldm(2)=    0.00000  celldm(3)=    0.00000
     celldm(4)=    0.00000  celldm(5)=    0.00000  celldm(6)=    0.00000

     crystal axes: (cart. coord. in units of alat)
               a(1) = ( -0.5000  0.0000  0.5000 )  
               a(2) = (  0.0000  0.5000  0.5000 )  
               a(3) = ( -0.5000  0.5000  0.0000 )  

     reciprocal axes: (cart. coord. in units 2 pi/alat)
               b(1) = ( -1.0000 -1.0000  1.0000 )  
               b(2) = (  1.0000  1.0000  1.0000 )  
               b(3) = ( -1.0000  1.0000 -1.0000 )  


     Atoms inside the unit cell: 

     Cartesian axes

     site n.  atom      mass           positions (alat units)
        1     Na  22.9900   tau(    1) = (    0.00000    0.00000    0.00000  )

     Computing dynamical matrix for 
                    q = (   0.5000000  -0.5000000   0.5000000 )

     13 Sym.Ops. (with q -> -q+G )


     G cutoff =  574.1525  (   3583 G-vectors)     FFT grid: ( 36, 36, 36)
     G cutoff =  287.0762  (   1255 G-vectors)  smooth grid: ( 24, 24, 24)

     number of k points=  2030  Marzari-Vanderbilt smearing, width (Ry)=  0.0200

     PseudoPot. # 1 for Na read from file:
     /home/s1333534/quantum_espresso/qe-6.1/pseudo/Na_pbe_v1.uspp.F.UPF
     MD5 check sum: 76a99c7e9422403d3e93cbc85ab7bccb
     Pseudo is Ultrasoft, Zval =  9.0
     Generated by new atomic code, or converted to UPF format
     Using radial grid of  819 points,  5 beta functions with: 
                l(1) =   0
                l(2) =   0
                l(3) =   1
                l(4) =   1
                l(5) =   2
     Q(r) pseudized with  8 coefficients,  rinner =    1.250   1.250   1.250
                                                       1.250   1.250

     Mode symmetry, D_3d (-3m)  point group:


     Atomic displacements:
     There are   2 irreducible representations

     Representation     1      1 modes -A_2u L_2'  To be done

     Representation     2      2 modes -E_u  L_3'  To be done



     Alpha used in Ewald sum =   2.8000
     PHONON       : 14m41.05s CPU    15m31.15s WALL



     Representation #  1 mode #   1

     Self-consistent Calculation

      iter #   1 total cpu time :   936.8 secs   av.it.:   5.8
      thresh= 1.000E-02 alpha_mix =  0.700 |ddv_scf|^2 =  2.990E-04

      iter #   2 total cpu time :   942.3 secs   av.it.:   6.8
      thresh= 1.729E-03 alpha_mix =  0.700 |ddv_scf|^2 =  1.663E-04

      iter #   3 total cpu time :   947.8 secs   av.it.:   6.7
      thresh= 1.290E-03 alpha_mix =  0.700 |ddv_scf|^2 =  1.597E-07

      iter #   4 total cpu time :   953.8 secs   av.it.:   7.7
      thresh= 3.996E-05 alpha_mix =  0.700 |ddv_scf|^2 =  5.875E-10

      iter #   5 total cpu time :   959.2 secs   av.it.:   6.7
      thresh= 2.424E-06 alpha_mix =  0.700 |ddv_scf|^2 =  1.541E-11

      iter #   6 total cpu time :   964.5 secs   av.it.:   6.4
      thresh= 3.926E-07 alpha_mix =  0.700 |ddv_scf|^2 =  1.920E-14

     End of self-consistent calculation

     Convergence has been achieved 


     Representation #  2 modes #   2  3

     Self-consistent Calculation

      iter #   1 total cpu time :   975.7 secs   av.it.:   5.5
      thresh= 1.000E-02 alpha_mix =  0.700 |ddv_scf|^2 =  6.700E-06

      iter #   2 total cpu time :   988.1 secs   av.it.:   8.2
      thresh= 2.588E-04 alpha_mix =  0.700 |ddv_scf|^2 =  1.219E-07

      iter #   3 total cpu time :  1001.1 secs   av.it.:   8.3
      thresh= 3.492E-05 alpha_mix =  0.700 |ddv_scf|^2 =  1.834E-09

      iter #   4 total cpu time :  1013.0 secs   av.it.:   7.7
      thresh= 4.283E-06 alpha_mix =  0.700 |ddv_scf|^2 =  5.460E-12

      iter #   5 total cpu time :  1025.4 secs   av.it.:   8.0
      thresh= 2.337E-07 alpha_mix =  0.700 |ddv_scf|^2 =  1.904E-14

     End of self-consistent calculation

     Convergence has been achieved 

     Number of q in the star =    4
     List of q in the star:
          1   0.500000000  -0.500000000   0.500000000
          2   0.500000000   0.500000000   0.500000000
          3  -0.500000000   0.500000000   0.500000000
          4   0.500000000   0.500000000  -0.500000000

     Diagonalizing the dynamical matrix

     q = (    0.500000000  -0.500000000   0.500000000 ) 

 **************************************************************************
     freq (    1) =       2.347895 [THz] =      78.317336 [cm-1]
     freq (    2) =       2.347895 [THz] =      78.317336 [cm-1]
     freq (    3) =       7.551375 [THz] =     251.886751 [cm-1]
 **************************************************************************

     Mode symmetry, D_3d (-3m)  point group:

     freq (  1 -  2) =         78.3  [cm-1]   --> E_u  L_3'          
     freq (  3 -  3) =        251.9  [cm-1]   --> A_2u L_2'          

     Calculation of q =    0.0000000   0.2500000   0.0000000

   Info: using nr1, nr2, nr3 values from input

   Info: using nr1, nr2, nr3 values from input

     Parallelization info
     --------------------
     sticks:   dense  smooth     PW     G-vecs:    dense   smooth      PW
     Min         192      94     37                 3581     1255     284
     Max         193      95     38                 3585     1258     285
     Sum         769     379    151                14331     5029    1139



     bravais-lattice index     =            2
     lattice parameter (alat)  =       8.4162  a.u.
     unit-cell volume          =     149.0375 (a.u.)^3
     number of atoms/cell      =            1
     number of atomic types    =            1
     number of electrons       =         9.00
     number of Kohn-Sham states=            9
     kinetic-energy cutoff     =      40.0000  Ry
     charge density cutoff     =     320.0000  Ry
     Exchange-correlation      = SLA  PW   PBE  PBE ( 1  4  3  4 0 0)

     celldm(1)=   8.416248  celldm(2)=   0.000000  celldm(3)=   0.000000
     celldm(4)=   0.000000  celldm(5)=   0.000000  celldm(6)=   0.000000

     crystal axes: (cart. coord. in units of alat)
               a(1) = (  -0.500000   0.000000   0.500000 )  
               a(2) = (   0.000000   0.500000   0.500000 )  
               a(3) = (  -0.500000   0.500000   0.000000 )  

     reciprocal axes: (cart. coord. in units 2 pi/alat)
               b(1) = ( -1.000000 -1.000000  1.000000 )  
               b(2) = (  1.000000  1.000000  1.000000 )  
               b(3) = ( -1.000000  1.000000 -1.000000 )  


     PseudoPot. # 1 for Na read from file:
     /home/s1333534/quantum_espresso/qe-6.1/pseudo/Na_pbe_v1.uspp.F.UPF
     MD5 check sum: 76a99c7e9422403d3e93cbc85ab7bccb
     Pseudo is Ultrasoft, Zval =  9.0
     Generated by new atomic code, or converted to UPF format
     Using radial grid of  819 points,  5 beta functions with: 
                l(1) =   0
                l(2) =   0
                l(3) =   1
                l(4) =   1
                l(5) =   2
     Q(r) pseudized with  8 coefficients,  rinner =    1.250   1.250   1.250
                                                       1.250   1.250

     atomic species   valence    mass     pseudopotential
        Na             9.00    22.99000     Na( 1.00)

     48 Sym. Ops., with inversion, found



   Cartesian axes

     site n.     atom                  positions (alat units)
         1           Na  tau(   1) = (   0.0000000   0.0000000   0.0000000  )

     number of k points=  2940  Marzari-Vanderbilt smearing, width (Ry)=  0.0200

     Number of k-points >= 100: set verbosity='high' to print them.

     Dense  grid:    14331 G-vectors     FFT dimensions: (  36,  36,  36)

     Smooth grid:     5029 G-vectors     FFT dimensions: (  24,  24,  24)

     Estimated max dynamical RAM per process >       1.47MB

     Estimated total allocated dynamical RAM >       5.88MB

     The potential is recalculated from file :
     ./_ph0/na.fcc.save/charge-density.dat

     Starting wfc are    5 atomic +    4 random wfc

     Band Structure Calculation
     Davidson diagonalization with overlap

     ethr =  1.11E-10,  avg # of iterations = 16.5

     total cpu time spent up to now is      286.0 secs

     End of band structure calculation

     Number of k-points >= 100: set verbosity='high' to print the bands.

     the Fermi energy is     4.4908 ev

     Writing output data file na.fcc.save

                                                                                

     bravais-lattice index     =            2
     lattice parameter (alat)  =       8.4162  a.u.
     unit-cell volume          =     149.0375 (a.u.)^3
     number of atoms/cell      =            1
     number of atomic types    =            1
     kinetic-energy cut-off    =      40.0000  Ry
     charge density cut-off    =     320.0000  Ry
     convergence threshold     =      1.0E-12
     beta                      =       0.7000
     number of iterations used =            4
     Exchange-correlation      = SLA  PW   PBE  PBE ( 1  4  3  4 0 0)


     celldm(1)=    8.41625  celldm(2)=    0.00000  celldm(3)=    0.00000
     celldm(4)=    0.00000  celldm(5)=    0.00000  celldm(6)=    0.00000

     crystal axes: (cart. coord. in units of alat)
               a(1) = ( -0.5000  0.0000  0.5000 )  
               a(2) = (  0.0000  0.5000  0.5000 )  
               a(3) = ( -0.5000  0.5000  0.0000 )  

     reciprocal axes: (cart. coord. in units 2 pi/alat)
               b(1) = ( -1.0000 -1.0000  1.0000 )  
               b(2) = (  1.0000  1.0000  1.0000 )  
               b(3) = ( -1.0000  1.0000 -1.0000 )  


     Atoms inside the unit cell: 

     Cartesian axes

     site n.  atom      mass           positions (alat units)
        1     Na  22.9900   tau(    1) = (    0.00000    0.00000    0.00000  )

     Computing dynamical matrix for 
                    q = (   0.0000000   0.2500000   0.0000000 )

      8 Sym.Ops. (no q -> -q+G )


     G cutoff =  574.1525  (   3583 G-vectors)     FFT grid: ( 36, 36, 36)
     G cutoff =  287.0762  (   1255 G-vectors)  smooth grid: ( 24, 24, 24)

     number of k points=  2940  Marzari-Vanderbilt smearing, width (Ry)=  0.0200

     PseudoPot. # 1 for Na read from file:
     /home/s1333534/quantum_espresso/qe-6.1/pseudo/Na_pbe_v1.uspp.F.UPF
     MD5 check sum: 76a99c7e9422403d3e93cbc85ab7bccb
     Pseudo is Ultrasoft, Zval =  9.0
     Generated by new atomic code, or converted to UPF format
     Using radial grid of  819 points,  5 beta functions with: 
                l(1) =   0
                l(2) =   0
                l(3) =   1
                l(4) =   1
                l(5) =   2
     Q(r) pseudized with  8 coefficients,  rinner =    1.250   1.250   1.250
                                                       1.250   1.250

     Mode symmetry, C_4v (4mm)  point group:


     Atomic displacements:
     There are   2 irreducible representations

     Representation     1      1 modes -A_1  G_1 D_1  To be done

     Representation     2      2 modes -E    G_5 D_5  To be done



     Alpha used in Ewald sum =   2.8000
     PHONON       : 17m 1.42s CPU    17m58.49s WALL



     Representation #  1 mode #   1

     Self-consistent Calculation

      iter #   1 total cpu time :  1086.3 secs   av.it.:   5.7
      thresh= 1.000E-02 alpha_mix =  0.700 |ddv_scf|^2 =  2.166E-01

      iter #   2 total cpu time :  1094.4 secs   av.it.:   7.1
      thresh= 1.000E-02 alpha_mix =  0.700 |ddv_scf|^2 =  5.799E+01

      iter #   3 total cpu time :  1102.5 secs   av.it.:   7.1
      thresh= 1.000E-02 alpha_mix =  0.700 |ddv_scf|^2 =  4.700E-05

      iter #   4 total cpu time :  1109.9 secs   av.it.:   6.3
      thresh= 6.856E-04 alpha_mix =  0.700 |ddv_scf|^2 =  5.468E-07

      iter #   5 total cpu time :  1118.2 secs   av.it.:   7.0
      thresh= 7.395E-05 alpha_mix =  0.700 |ddv_scf|^2 =  9.472E-09

      iter #   6 total cpu time :  1126.1 secs   av.it.:   7.0
      thresh= 9.733E-06 alpha_mix =  0.700 |ddv_scf|^2 =  8.502E-08

      iter #   7 total cpu time :  1131.5 secs   av.it.:   4.1
      thresh= 2.916E-05 alpha_mix =  0.700 |ddv_scf|^2 =  9.381E-10

      iter #   8 total cpu time :  1139.4 secs   av.it.:   7.0
      thresh= 3.063E-06 alpha_mix =  0.700 |ddv_scf|^2 =  2.914E-11

      iter #   9 total cpu time :  1147.8 secs   av.it.:   7.0
      thresh= 5.398E-07 alpha_mix =  0.700 |ddv_scf|^2 =  1.489E-13

     End of self-consistent calculation

     Convergence has been achieved 


     Representation #  2 modes #   2  3

     Self-consistent Calculation

      iter #   1 total cpu time :  1163.4 secs   av.it.:   5.5
      thresh= 1.000E-02 alpha_mix =  0.700 |ddv_scf|^2 =  6.537E-06

      iter #   2 total cpu time :  1181.3 secs   av.it.:   8.3
      thresh= 2.557E-04 alpha_mix =  0.700 |ddv_scf|^2 =  1.209E-07

      iter #   3 total cpu time :  1199.7 secs   av.it.:   8.4
      thresh= 3.476E-05 alpha_mix =  0.700 |ddv_scf|^2 =  1.715E-09

      iter #   4 total cpu time :  1217.5 secs   av.it.:   7.9
      thresh= 4.141E-06 alpha_mix =  0.700 |ddv_scf|^2 =  4.885E-12

      iter #   5 total cpu time :  1235.3 secs   av.it.:   8.2
      thresh= 2.210E-07 alpha_mix =  0.700 |ddv_scf|^2 =  1.742E-14

     End of self-consistent calculation

     Convergence has been achieved 

     Number of q in the star =    6
     List of q in the star:
          1   0.000000000   0.250000000   0.000000000
          2   0.000000000  -0.250000000   0.000000000
          3   0.250000000   0.000000000   0.000000000
          4   0.000000000   0.000000000   0.250000000
          5   0.000000000   0.000000000  -0.250000000
          6  -0.250000000   0.000000000   0.000000000

     Diagonalizing the dynamical matrix

     q = (    0.000000000   0.250000000   0.000000000 ) 

 **************************************************************************
     freq (    1) =       1.626878 [THz] =      54.266816 [cm-1]
     freq (    2) =       1.626878 [THz] =      54.266816 [cm-1]
     freq (    3) =       2.889183 [THz] =      96.372765 [cm-1]
 **************************************************************************

     Mode symmetry, C_4v (4mm)  point group:

     freq (  1 -  2) =         54.3  [cm-1]   --> E    G_5 D_5       
     freq (  3 -  3) =         96.4  [cm-1]   --> A_1  G_1 D_1       

     Calculation of q =   -0.1250000   0.3750000  -0.1250000

   Info: using nr1, nr2, nr3 values from input

   Info: using nr1, nr2, nr3 values from input

     Parallelization info
     --------------------
     sticks:   dense  smooth     PW     G-vecs:    dense   smooth      PW
     Min         192      94     37                 3581     1255     309
     Max         193      95     38                 3585     1258     312
     Sum         769     379    151                14331     5029    1243



     bravais-lattice index     =            2
     lattice parameter (alat)  =       8.4162  a.u.
     unit-cell volume          =     149.0375 (a.u.)^3
     number of atoms/cell      =            1
     number of atomic types    =            1
     number of electrons       =         9.00
     number of Kohn-Sham states=            9
     kinetic-energy cutoff     =      40.0000  Ry
     charge density cutoff     =     320.0000  Ry
     Exchange-correlation      = SLA  PW   PBE  PBE ( 1  4  3  4 0 0)

     celldm(1)=   8.416248  celldm(2)=   0.000000  celldm(3)=   0.000000
     celldm(4)=   0.000000  celldm(5)=   0.000000  celldm(6)=   0.000000

     crystal axes: (cart. coord. in units of alat)
               a(1) = (  -0.500000   0.000000   0.500000 )  
               a(2) = (   0.000000   0.500000   0.500000 )  
               a(3) = (  -0.500000   0.500000   0.000000 )  

     reciprocal axes: (cart. coord. in units 2 pi/alat)
               b(1) = ( -1.000000 -1.000000  1.000000 )  
               b(2) = (  1.000000  1.000000  1.000000 )  
               b(3) = ( -1.000000  1.000000 -1.000000 )  


     PseudoPot. # 1 for Na read from file:
     /home/s1333534/quantum_espresso/qe-6.1/pseudo/Na_pbe_v1.uspp.F.UPF
     MD5 check sum: 76a99c7e9422403d3e93cbc85ab7bccb
     Pseudo is Ultrasoft, Zval =  9.0
     Generated by new atomic code, or converted to UPF format
     Using radial grid of  819 points,  5 beta functions with: 
                l(1) =   0
                l(2) =   0
                l(3) =   1
                l(4) =   1
                l(5) =   2
     Q(r) pseudized with  8 coefficients,  rinner =    1.250   1.250   1.250
                                                       1.250   1.250

     atomic species   valence    mass     pseudopotential
        Na             9.00    22.99000     Na( 1.00)

     48 Sym. Ops., with inversion, found



   Cartesian axes

     site n.     atom                  positions (alat units)
         1           Na  tau(   1) = (   0.0000000   0.0000000   0.0000000  )

     number of k points= 11368  Marzari-Vanderbilt smearing, width (Ry)=  0.0200

     Number of k-points >= 100: set verbosity='high' to print them.

     Dense  grid:    14331 G-vectors     FFT dimensions: (  36,  36,  36)

     Smooth grid:     5029 G-vectors     FFT dimensions: (  24,  24,  24)

     Estimated max dynamical RAM per process >       1.47MB

     Estimated total allocated dynamical RAM >       5.88MB

     The potential is recalculated from file :
     ./_ph0/na.fcc.save/charge-density.dat

     Starting wfc are    5 atomic +    4 random wfc

     Band Structure Calculation
     Davidson diagonalization with overlap

     ethr =  1.11E-10,  avg # of iterations = 16.4

     total cpu time spent up to now is      469.3 secs

     End of band structure calculation

     Number of k-points >= 100: set verbosity='high' to print the bands.

     the Fermi energy is     4.4908 ev

     Writing output data file na.fcc.save

                                                                                

     bravais-lattice index     =            2
     lattice parameter (alat)  =       8.4162  a.u.
     unit-cell volume          =     149.0375 (a.u.)^3
     number of atoms/cell      =            1
     number of atomic types    =            1
     kinetic-energy cut-off    =      40.0000  Ry
     charge density cut-off    =     320.0000  Ry
     convergence threshold     =      1.0E-12
     beta                      =       0.7000
     number of iterations used =            4
     Exchange-correlation      = SLA  PW   PBE  PBE ( 1  4  3  4 0 0)


     celldm(1)=    8.41625  celldm(2)=    0.00000  celldm(3)=    0.00000
     celldm(4)=    0.00000  celldm(5)=    0.00000  celldm(6)=    0.00000

     crystal axes: (cart. coord. in units of alat)
               a(1) = ( -0.5000  0.0000  0.5000 )  
               a(2) = (  0.0000  0.5000  0.5000 )  
               a(3) = ( -0.5000  0.5000  0.0000 )  

     reciprocal axes: (cart. coord. in units 2 pi/alat)
               b(1) = ( -1.0000 -1.0000  1.0000 )  
               b(2) = (  1.0000  1.0000  1.0000 )  
               b(3) = ( -1.0000  1.0000 -1.0000 )  


     Atoms inside the unit cell: 

     Cartesian axes

     site n.  atom      mass           positions (alat units)
        1     Na  22.9900   tau(    1) = (    0.00000    0.00000    0.00000  )

     Computing dynamical matrix for 
                    q = (  -0.1250000   0.3750000  -0.1250000 )

      2 Sym.Ops. (no q -> -q+G )


     G cutoff =  574.1525  (   3583 G-vectors)     FFT grid: ( 36, 36, 36)
     G cutoff =  287.0762  (   1255 G-vectors)  smooth grid: ( 24, 24, 24)

     number of k points= 11368  Marzari-Vanderbilt smearing, width (Ry)=  0.0200

     PseudoPot. # 1 for Na read from file:
     /home/s1333534/quantum_espresso/qe-6.1/pseudo/Na_pbe_v1.uspp.F.UPF
     MD5 check sum: 76a99c7e9422403d3e93cbc85ab7bccb
     Pseudo is Ultrasoft, Zval =  9.0
     Generated by new atomic code, or converted to UPF format
     Using radial grid of  819 points,  5 beta functions with: 
                l(1) =   0
                l(2) =   0
                l(3) =   1
                l(4) =   1
                l(5) =   2
     Q(r) pseudized with  8 coefficients,  rinner =    1.250   1.250   1.250
                                                       1.250   1.250

     Mode symmetry, C_s (m)     point group:


     Atomic displacements:
     There are   3 irreducible representations

     Representation     1      1 modes -A'  To be done

     Representation     2      1 modes -A'  To be done

     Representation     3      1 modes -A''  To be done



     Alpha used in Ewald sum =   2.8000
     PHONON       : 22m46.38s CPU    23m59.86s WALL



     Representation #  1 mode #   1

     Self-consistent Calculation

      iter #   1 total cpu time :  1471.8 secs   av.it.:   5.8
      thresh= 1.000E-02 alpha_mix =  0.700 |ddv_scf|^2 =  8.674E-03

      iter #   2 total cpu time :  1500.4 secs   av.it.:   6.4
      thresh= 9.314E-03 alpha_mix =  0.700 |ddv_scf|^2 =  2.371E-01

      iter #   3 total cpu time :  1529.3 secs   av.it.:   6.2
      thresh= 1.000E-02 alpha_mix =  0.700 |ddv_scf|^2 =  5.341E-06

      iter #   4 total cpu time :  1563.1 secs   av.it.:   7.4
      thresh= 2.311E-04 alpha_mix =  0.700 |ddv_scf|^2 =  5.316E-08

      iter #   5 total cpu time :  1596.6 secs   av.it.:   7.7
      thresh= 2.306E-05 alpha_mix =  0.700 |ddv_scf|^2 =  3.393E-09

      iter #   6 total cpu time :  1629.8 secs   av.it.:   7.6
      thresh= 5.825E-06 alpha_mix =  0.700 |ddv_scf|^2 =  1.820E-10

      iter #   7 total cpu time :  1663.0 secs   av.it.:   7.6
      thresh= 1.349E-06 alpha_mix =  0.700 |ddv_scf|^2 =  2.347E-09

      iter #   8 total cpu time :  1689.0 secs   av.it.:   5.3
      thresh= 4.845E-06 alpha_mix =  0.700 |ddv_scf|^2 =  1.187E-12

      iter #   9 total cpu time :  1722.3 secs   av.it.:   7.5
      thresh= 1.089E-07 alpha_mix =  0.700 |ddv_scf|^2 =  4.932E-14

     End of self-consistent calculation

     Convergence has been achieved 


     Representation #  2 mode #   2

     Self-consistent Calculation

      iter #   1 total cpu time :  1754.5 secs   av.it.:   5.8
      thresh= 1.000E-02 alpha_mix =  0.700 |ddv_scf|^2 =  1.338E-03

      iter #   2 total cpu time :  1784.8 secs   av.it.:   6.8
      thresh= 3.658E-03 alpha_mix =  0.700 |ddv_scf|^2 =  3.595E-02

      iter #   3 total cpu time :  1810.7 secs   av.it.:   5.3
      thresh= 1.000E-02 alpha_mix =  0.700 |ddv_scf|^2 =  6.264E-07

      iter #   4 total cpu time :  1844.8 secs   av.it.:   7.8
      thresh= 7.915E-05 alpha_mix =  0.700 |ddv_scf|^2 =  1.096E-08

      iter #   5 total cpu time :  1879.1 secs   av.it.:   7.8
      thresh= 1.047E-05 alpha_mix =  0.700 |ddv_scf|^2 =  9.612E-10

      iter #   6 total cpu time :  1912.6 secs   av.it.:   7.7
      thresh= 3.100E-06 alpha_mix =  0.700 |ddv_scf|^2 =  2.511E-10

      iter #   7 total cpu time :  1944.0 secs   av.it.:   7.1
      thresh= 1.585E-06 alpha_mix =  0.700 |ddv_scf|^2 =  1.294E-09

      iter #   8 total cpu time :  1971.7 secs   av.it.:   5.9
      thresh= 3.597E-06 alpha_mix =  0.700 |ddv_scf|^2 =  2.936E-11

      iter #   9 total cpu time :  2001.7 secs   av.it.:   6.8
      thresh= 5.418E-07 alpha_mix =  0.700 |ddv_scf|^2 =  1.159E-11

      iter #  10 total cpu time :  2032.8 secs   av.it.:   7.0
      thresh= 3.405E-07 alpha_mix =  0.700 |ddv_scf|^2 =  5.940E-14

     End of self-consistent calculation

     Convergence has been achieved 


     Representation #  3 mode #   3

     Self-consistent Calculation

      iter #   1 total cpu time :  2064.4 secs   av.it.:   5.5
      thresh= 1.000E-02 alpha_mix =  0.700 |ddv_scf|^2 =  2.737E-05

      iter #   2 total cpu time :  2097.0 secs   av.it.:   7.4
      thresh= 5.231E-04 alpha_mix =  0.700 |ddv_scf|^2 =  4.660E-07

      iter #   3 total cpu time :  2130.4 secs   av.it.:   7.7
      thresh= 6.827E-05 alpha_mix =  0.700 |ddv_scf|^2 =  9.644E-09

      iter #   4 total cpu time :  2162.7 secs   av.it.:   7.4
      thresh= 9.820E-06 alpha_mix =  0.700 |ddv_scf|^2 =  2.850E-11

      iter #   5 total cpu time :  2195.7 secs   av.it.:   7.6
      thresh= 5.339E-07 alpha_mix =  0.700 |ddv_scf|^2 =  6.128E-14

     End of self-consistent calculation

     Convergence has been achieved 

     Number of q in the star =   24
     List of q in the star:
          1  -0.125000000   0.375000000  -0.125000000
          2  -0.125000000   0.375000000   0.125000000
          3   0.125000000   0.375000000  -0.125000000
          4   0.125000000   0.375000000   0.125000000
          5   0.125000000  -0.375000000   0.125000000
          6   0.375000000  -0.125000000   0.125000000
          7   0.125000000  -0.125000000   0.375000000
          8  -0.125000000  -0.375000000  -0.125000000
          9   0.125000000  -0.375000000  -0.125000000
         10  -0.125000000  -0.375000000   0.125000000
         11   0.125000000  -0.125000000  -0.375000000
         12   0.375000000  -0.125000000  -0.125000000
         13  -0.375000000  -0.125000000   0.125000000
         14   0.375000000   0.125000000   0.125000000
         15  -0.125000000  -0.125000000   0.375000000
         16   0.125000000   0.125000000   0.375000000
         17  -0.375000000   0.125000000  -0.125000000
         18  -0.125000000   0.125000000  -0.375000000
         19  -0.375000000  -0.125000000  -0.125000000
         20   0.125000000   0.125000000  -0.375000000
         21   0.375000000   0.125000000  -0.125000000
         22  -0.125000000  -0.125000000  -0.375000000
         23  -0.375000000   0.125000000   0.125000000
         24  -0.125000000   0.125000000   0.375000000

     Diagonalizing the dynamical matrix

     q = (   -0.125000000   0.375000000  -0.125000000 ) 

 **************************************************************************
     freq (    1) =       2.224319 [THz] =      74.195296 [cm-1]
     freq (    2) =       2.245013 [THz] =      74.885583 [cm-1]
     freq (    3) =       4.733617 [THz] =     157.896480 [cm-1]
 **************************************************************************

     Mode symmetry, C_s (m)     point group:

     freq (  1 -  1) =         74.2  [cm-1]   --> A'                 
     freq (  2 -  2) =         74.9  [cm-1]   --> A''                
     freq (  3 -  3) =        157.9  [cm-1]   --> A'                 

     Calculation of q =   -0.2500000   0.5000000  -0.2500000

   Info: using nr1, nr2, nr3 values from input

   Info: using nr1, nr2, nr3 values from input

     Parallelization info
     --------------------
     sticks:   dense  smooth     PW     G-vecs:    dense   smooth      PW
     Min         192      94     37                 3581     1255     309
     Max         193      95     38                 3585     1258     312
     Sum         769     379    151                14331     5029    1243



     bravais-lattice index     =            2
     lattice parameter (alat)  =       8.4162  a.u.
     unit-cell volume          =     149.0375 (a.u.)^3
     number of atoms/cell      =            1
     number of atomic types    =            1
     number of electrons       =         9.00
     number of Kohn-Sham states=            9
     kinetic-energy cutoff     =      40.0000  Ry
     charge density cutoff     =     320.0000  Ry
     Exchange-correlation      = SLA  PW   PBE  PBE ( 1  4  3  4 0 0)

     celldm(1)=   8.416248  celldm(2)=   0.000000  celldm(3)=   0.000000
     celldm(4)=   0.000000  celldm(5)=   0.000000  celldm(6)=   0.000000

     crystal axes: (cart. coord. in units of alat)
               a(1) = (  -0.500000   0.000000   0.500000 )  
               a(2) = (   0.000000   0.500000   0.500000 )  
               a(3) = (  -0.500000   0.500000   0.000000 )  

     reciprocal axes: (cart. coord. in units 2 pi/alat)
               b(1) = ( -1.000000 -1.000000  1.000000 )  
               b(2) = (  1.000000  1.000000  1.000000 )  
               b(3) = ( -1.000000  1.000000 -1.000000 )  


     PseudoPot. # 1 for Na read from file:
     /home/s1333534/quantum_espresso/qe-6.1/pseudo/Na_pbe_v1.uspp.F.UPF
     MD5 check sum: 76a99c7e9422403d3e93cbc85ab7bccb
     Pseudo is Ultrasoft, Zval =  9.0
     Generated by new atomic code, or converted to UPF format
     Using radial grid of  819 points,  5 beta functions with: 
                l(1) =   0
                l(2) =   0
                l(3) =   1
                l(4) =   1
                l(5) =   2
     Q(r) pseudized with  8 coefficients,  rinner =    1.250   1.250   1.250
                                                       1.250   1.250

     atomic species   valence    mass     pseudopotential
        Na             9.00    22.99000     Na( 1.00)

     48 Sym. Ops., with inversion, found



   Cartesian axes

     site n.     atom                  positions (alat units)
         1           Na  tau(   1) = (   0.0000000   0.0000000   0.0000000  )

     number of k points= 11368  Marzari-Vanderbilt smearing, width (Ry)=  0.0200

     Number of k-points >= 100: set verbosity='high' to print them.

     Dense  grid:    14331 G-vectors     FFT dimensions: (  36,  36,  36)

     Smooth grid:     5029 G-vectors     FFT dimensions: (  24,  24,  24)

     Estimated max dynamical RAM per process >       1.47MB

     Estimated total allocated dynamical RAM >       5.88MB

     The potential is recalculated from file :
     ./_ph0/na.fcc.save/charge-density.dat

     Starting wfc are    5 atomic +    4 random wfc

     Band Structure Calculation
     Davidson diagonalization with overlap

     ethr =  1.11E-10,  avg # of iterations = 16.4

     total cpu time spent up to now is      659.1 secs

     End of band structure calculation

     Number of k-points >= 100: set verbosity='high' to print the bands.

     the Fermi energy is     4.4908 ev

     Writing output data file na.fcc.save

                                                                                

     bravais-lattice index     =            2
     lattice parameter (alat)  =       8.4162  a.u.
     unit-cell volume          =     149.0375 (a.u.)^3
     number of atoms/cell      =            1
     number of atomic types    =            1
     kinetic-energy cut-off    =      40.0000  Ry
     charge density cut-off    =     320.0000  Ry
     convergence threshold     =      1.0E-12
     beta                      =       0.7000
     number of iterations used =            4
     Exchange-correlation      = SLA  PW   PBE  PBE ( 1  4  3  4 0 0)


     celldm(1)=    8.41625  celldm(2)=    0.00000  celldm(3)=    0.00000
     celldm(4)=    0.00000  celldm(5)=    0.00000  celldm(6)=    0.00000

     crystal axes: (cart. coord. in units of alat)
               a(1) = ( -0.5000  0.0000  0.5000 )  
               a(2) = (  0.0000  0.5000  0.5000 )  
               a(3) = ( -0.5000  0.5000  0.0000 )  

     reciprocal axes: (cart. coord. in units 2 pi/alat)
               b(1) = ( -1.0000 -1.0000  1.0000 )  
               b(2) = (  1.0000  1.0000  1.0000 )  
               b(3) = ( -1.0000  1.0000 -1.0000 )  


     Atoms inside the unit cell: 

     Cartesian axes

     site n.  atom      mass           positions (alat units)
        1     Na  22.9900   tau(    1) = (    0.00000    0.00000    0.00000  )

     Computing dynamical matrix for 
                    q = (  -0.2500000   0.5000000  -0.2500000 )

      2 Sym.Ops. (no q -> -q+G )


     G cutoff =  574.1525  (   3583 G-vectors)     FFT grid: ( 36, 36, 36)
     G cutoff =  287.0762  (   1255 G-vectors)  smooth grid: ( 24, 24, 24)

     number of k points= 11368  Marzari-Vanderbilt smearing, width (Ry)=  0.0200

     PseudoPot. # 1 for Na read from file:
     /home/s1333534/quantum_espresso/qe-6.1/pseudo/Na_pbe_v1.uspp.F.UPF
     MD5 check sum: 76a99c7e9422403d3e93cbc85ab7bccb
     Pseudo is Ultrasoft, Zval =  9.0
     Generated by new atomic code, or converted to UPF format
     Using radial grid of  819 points,  5 beta functions with: 
                l(1) =   0
                l(2) =   0
                l(3) =   1
                l(4) =   1
                l(5) =   2
     Q(r) pseudized with  8 coefficients,  rinner =    1.250   1.250   1.250
                                                       1.250   1.250

     Mode symmetry, C_s (m)     point group:


     Atomic displacements:
     There are   3 irreducible representations

     Representation     1      1 modes -A'  To be done

     Representation     2      1 modes -A'  To be done

     Representation     3      1 modes -A''  To be done



     Alpha used in Ewald sum =   2.8000
     PHONON       : 37m49.98s CPU    40m 1.64s WALL



     Representation #  1 mode #   1

     Self-consistent Calculation

      iter #   1 total cpu time :  2433.4 secs   av.it.:   5.9
      thresh= 1.000E-02 alpha_mix =  0.700 |ddv_scf|^2 =  8.466E-04

      iter #   2 total cpu time :  2463.9 secs   av.it.:   6.8
      thresh= 2.910E-03 alpha_mix =  0.700 |ddv_scf|^2 =  3.402E-03

      iter #   3 total cpu time :  2492.7 secs   av.it.:   6.0
      thresh= 5.833E-03 alpha_mix =  0.700 |ddv_scf|^2 =  7.951E-07

      iter #   4 total cpu time :  2526.9 secs   av.it.:   7.8
      thresh= 8.917E-05 alpha_mix =  0.700 |ddv_scf|^2 =  1.015E-08

      iter #   5 total cpu time :  2562.2 secs   av.it.:   8.2
      thresh= 1.007E-05 alpha_mix =  0.700 |ddv_scf|^2 =  1.438E-09

      iter #   6 total cpu time :  2596.3 secs   av.it.:   7.8
      thresh= 3.792E-06 alpha_mix =  0.700 |ddv_scf|^2 =  4.945E-11

      iter #   7 total cpu time :  2630.3 secs   av.it.:   7.8
      thresh= 7.032E-07 alpha_mix =  0.700 |ddv_scf|^2 =  1.136E-11

      iter #   8 total cpu time :  2662.1 secs   av.it.:   7.0
      thresh= 3.371E-07 alpha_mix =  0.700 |ddv_scf|^2 =  1.414E-11

      iter #   9 total cpu time :  2691.8 secs   av.it.:   6.5
      thresh= 3.760E-07 alpha_mix =  0.700 |ddv_scf|^2 =  3.971E-13

     End of self-consistent calculation

     Convergence has been achieved 


     Representation #  2 mode #   2

     Self-consistent Calculation

      iter #   1 total cpu time :  2724.9 secs   av.it.:   5.8
      thresh= 1.000E-02 alpha_mix =  0.700 |ddv_scf|^2 =  2.452E-04

      iter #   2 total cpu time :  2757.6 secs   av.it.:   7.3
      thresh= 1.566E-03 alpha_mix =  0.700 |ddv_scf|^2 =  8.783E-04

      iter #   3 total cpu time :  2786.7 secs   av.it.:   6.0
      thresh= 2.964E-03 alpha_mix =  0.700 |ddv_scf|^2 =  5.377E-07

      iter #   4 total cpu time :  2820.7 secs   av.it.:   7.8
      thresh= 7.333E-05 alpha_mix =  0.700 |ddv_scf|^2 =  1.418E-08

      iter #   5 total cpu time :  2855.7 secs   av.it.:   8.0
      thresh= 1.191E-05 alpha_mix =  0.700 |ddv_scf|^2 =  7.620E-10

      iter #   6 total cpu time :  2890.3 secs   av.it.:   8.0
      thresh= 2.760E-06 alpha_mix =  0.700 |ddv_scf|^2 =  6.373E-11

      iter #   7 total cpu time :  2924.3 secs   av.it.:   7.7
      thresh= 7.983E-07 alpha_mix =  0.700 |ddv_scf|^2 =  2.539E-13

     End of self-consistent calculation

     Convergence has been achieved 


     Representation #  3 mode #   3

     Self-consistent Calculation

      iter #   1 total cpu time :  2956.3 secs   av.it.:   5.5
      thresh= 1.000E-02 alpha_mix =  0.700 |ddv_scf|^2 =  2.812E-05

      iter #   2 total cpu time :  2989.0 secs   av.it.:   7.5
      thresh= 5.303E-04 alpha_mix =  0.700 |ddv_scf|^2 =  4.589E-07

      iter #   3 total cpu time :  3022.9 secs   av.it.:   7.7
      thresh= 6.774E-05 alpha_mix =  0.700 |ddv_scf|^2 =  1.119E-08

      iter #   4 total cpu time :  3055.3 secs   av.it.:   7.4
      thresh= 1.058E-05 alpha_mix =  0.700 |ddv_scf|^2 =  3.470E-11

      iter #   5 total cpu time :  3088.8 secs   av.it.:   7.6
      thresh= 5.891E-07 alpha_mix =  0.700 |ddv_scf|^2 =  5.947E-14

     End of self-consistent calculation

     Convergence has been achieved 

     Number of q in the star =   24
     List of q in the star:
          1  -0.250000000   0.500000000  -0.250000000
          2  -0.250000000   0.500000000   0.250000000
          3   0.250000000   0.500000000  -0.250000000
          4   0.250000000   0.500000000   0.250000000
          5   0.250000000  -0.500000000   0.250000000
          6   0.500000000  -0.250000000   0.250000000
          7   0.250000000  -0.250000000   0.500000000
          8  -0.250000000  -0.500000000  -0.250000000
          9   0.250000000  -0.500000000  -0.250000000
         10  -0.250000000  -0.500000000   0.250000000
         11   0.250000000  -0.250000000  -0.500000000
         12   0.500000000  -0.250000000  -0.250000000
         13  -0.500000000  -0.250000000   0.250000000
         14   0.500000000   0.250000000   0.250000000
         15  -0.250000000  -0.250000000   0.500000000
         16   0.250000000   0.250000000   0.500000000
         17  -0.500000000   0.250000000  -0.250000000
         18  -0.250000000   0.250000000  -0.500000000
         19  -0.500000000  -0.250000000  -0.250000000
         20   0.250000000   0.250000000  -0.500000000
         21   0.500000000   0.250000000  -0.250000000
         22  -0.250000000  -0.250000000  -0.500000000
         23  -0.500000000   0.250000000   0.250000000
         24  -0.250000000   0.250000000   0.500000000

     Diagonalizing the dynamical matrix

     q = (   -0.250000000   0.500000000  -0.250000000 ) 

 **************************************************************************
     freq (    1) =       2.606000 [THz] =      86.926817 [cm-1]
     freq (    2) =       2.815950 [THz] =      93.929981 [cm-1]
     freq (    3) =       6.568550 [THz] =     219.103256 [cm-1]
 **************************************************************************

     Mode symmetry, C_s (m)     point group:

     freq (  1 -  1) =         86.9  [cm-1]   --> A''                
     freq (  2 -  2) =         93.9  [cm-1]   --> A'                 
     freq (  3 -  3) =        219.1  [cm-1]   --> A'                 

     Calculation of q =    0.6250000  -0.3750000   0.6250000

   Info: using nr1, nr2, nr3 values from input

   Info: using nr1, nr2, nr3 values from input

     Parallelization info
     --------------------
     sticks:   dense  smooth     PW     G-vecs:    dense   smooth      PW
     Min         192      94     40                 3581     1255     340
     Max         193      95     41                 3585     1258     342
     Sum         769     379    163                14331     5029    1363



     bravais-lattice index     =            2
     lattice parameter (alat)  =       8.4162  a.u.
     unit-cell volume          =     149.0375 (a.u.)^3
     number of atoms/cell      =            1
     number of atomic types    =            1
     number of electrons       =         9.00
     number of Kohn-Sham states=            9
     kinetic-energy cutoff     =      40.0000  Ry
     charge density cutoff     =     320.0000  Ry
     Exchange-correlation      = SLA  PW   PBE  PBE ( 1  4  3  4 0 0)

     celldm(1)=   8.416248  celldm(2)=   0.000000  celldm(3)=   0.000000
     celldm(4)=   0.000000  celldm(5)=   0.000000  celldm(6)=   0.000000

     crystal axes: (cart. coord. in units of alat)
               a(1) = (  -0.500000   0.000000   0.500000 )  
               a(2) = (   0.000000   0.500000   0.500000 )  
               a(3) = (  -0.500000   0.500000   0.000000 )  

     reciprocal axes: (cart. coord. in units 2 pi/alat)
               b(1) = ( -1.000000 -1.000000  1.000000 )  
[...]

     PseudoPot. # 1 for Na read from file:
     /home/s1333534/quantum_espresso/qe-6.1/pseudo/Na_pbe_v1.uspp.F.UPF
     MD5 check sum: 76a99c7e9422403d3e93cbc85ab7bccb
     Pseudo is Ultrasoft, Zval =  9.0
     Generated by new atomic code, or converted to UPF format
     Using radial grid of  819 points,  5 beta functions with: 
                l(1) =   0
                l(2) =   0
                l(3) =   1
                l(4) =   1
                l(5) =   2
     Q(r) pseudized with  8 coefficients,  rinner =    1.250   1.250   1.250
                                                       1.250   1.250

     Mode symmetry, C_2v (mm2)  point group:


     Atomic displacements:
     There are   3 irreducible representations

     Representation     1      1 modes -A_1  D_1  S_1  To be done

     Representation     2      1 modes -B_1  D_3  S_3  To be done

     Representation     3      1 modes -B_2  D_4  S_4  To be done



     Alpha used in Ewald sum =   2.8000
     PHONON       :     4h43m CPU        5h 0m WALL



     Representation #  1 mode #   1

     Self-consistent Calculation

      iter #   1 total cpu time : 18055.7 secs   av.it.:   5.7
      thresh= 1.000E-02 alpha_mix =  0.700 |ddv_scf|^2 =  4.174E-05

      iter #   2 total cpu time : 18071.7 secs   av.it.:   7.5
      thresh= 6.461E-04 alpha_mix =  0.700 |ddv_scf|^2 =  1.197E-06

      iter #   3 total cpu time : 18088.0 secs   av.it.:   7.6
      thresh= 1.094E-04 alpha_mix =  0.700 |ddv_scf|^2 =  4.806E-08

      iter #   4 total cpu time : 18104.3 secs   av.it.:   7.8
      thresh= 2.192E-05 alpha_mix =  0.700 |ddv_scf|^2 =  2.425E-09

      iter #   5 total cpu time : 18120.5 secs   av.it.:   7.8
      thresh= 4.924E-06 alpha_mix =  0.700 |ddv_scf|^2 =  1.350E-10

      iter #   6 total cpu time : 18136.9 secs   av.it.:   7.9
      thresh= 1.162E-06 alpha_mix =  0.700 |ddv_scf|^2 =  8.046E-12

      iter #   7 total cpu time : 18153.3 secs   av.it.:   7.7
      thresh= 2.837E-07 alpha_mix =  0.700 |ddv_scf|^2 =  2.979E-13

     End of self-consistent calculation

     Convergence has been achieved 


     Representation #  2 mode #   2

     Self-consistent Calculation

      iter #   1 total cpu time : 18168.4 secs   av.it.:   5.6
      thresh= 1.000E-02 alpha_mix =  0.700 |ddv_scf|^2 =  4.286E-05

      iter #   2 total cpu time : 18185.2 secs   av.it.:   7.5
      thresh= 6.547E-04 alpha_mix =  0.700 |ddv_scf|^2 =  4.884E-07

      iter #   3 total cpu time : 18201.3 secs   av.it.:   7.7
      thresh= 6.988E-05 alpha_mix =  0.700 |ddv_scf|^2 =  3.177E-08

      iter #   4 total cpu time : 18217.9 secs   av.it.:   7.7
      thresh= 1.782E-05 alpha_mix =  0.700 |ddv_scf|^2 =  3.496E-10

      iter #   5 total cpu time : 18233.1 secs   av.it.:   7.2
      thresh= 1.870E-06 alpha_mix =  0.700 |ddv_scf|^2 =  3.256E-13

     End of self-consistent calculation

     Convergence has been achieved 


     Representation #  3 mode #   3

     Self-consistent Calculation

      iter #   1 total cpu time : 18248.5 secs   av.it.:   5.8
      thresh= 1.000E-02 alpha_mix =  0.700 |ddv_scf|^2 =  1.134E-04

      iter #   2 total cpu time : 18263.8 secs   av.it.:   7.2
      thresh= 1.065E-03 alpha_mix =  0.700 |ddv_scf|^2 =  1.215E-05

      iter #   3 total cpu time : 18279.6 secs   av.it.:   7.2
      thresh= 3.486E-04 alpha_mix =  0.700 |ddv_scf|^2 =  8.935E-08

      iter #   4 total cpu time : 18295.8 secs   av.it.:   7.8
      thresh= 2.989E-05 alpha_mix =  0.700 |ddv_scf|^2 =  3.161E-10

      iter #   5 total cpu time : 18310.9 secs   av.it.:   6.9
      thresh= 1.778E-06 alpha_mix =  0.700 |ddv_scf|^2 =  5.710E-13

     End of self-consistent calculation

     Convergence has been achieved 

     Number of q in the star =   12
     List of q in the star:
          1  -0.250000000  -1.000000000   0.000000000
          2   0.000000000  -1.000000000   0.250000000
          3   0.000000000  -1.000000000  -0.250000000
          4   0.250000000  -1.000000000   0.000000000
          5  -1.000000000   0.000000000  -0.250000000
          6   1.000000000   0.000000000   0.250000000
          7  -1.000000000  -0.250000000   0.000000000
          8   0.000000000  -0.250000000  -1.000000000
          9   0.000000000   0.250000000  -1.000000000
         10   1.000000000   0.250000000   0.000000000
         11  -0.250000000   0.000000000   1.000000000
         12   0.250000000   0.000000000   1.000000000

     Diagonalizing the dynamical matrix

     q = (   -0.250000000  -1.000000000   0.000000000 ) 

 **************************************************************************
     freq (    1) =       4.473325 [THz] =     149.214051 [cm-1]
     freq (    2) =       5.104150 [THz] =     170.256126 [cm-1]
     freq (    3) =       7.324119 [THz] =     244.306298 [cm-1]
 **************************************************************************

     Mode symmetry, C_2v (mm2)  point group:

     freq (  1 -  1) =        149.2  [cm-1]   --> A_1  D_1  S_1      
     freq (  2 -  2) =        170.3  [cm-1]   --> B_1  D_3  S_3      
     freq (  3 -  3) =        244.3  [cm-1]   --> B_2  D_4  S_4      

     Calculation of q =   -0.5000000  -1.0000000   0.0000000

   Info: using nr1, nr2, nr3 values from input

   Info: using nr1, nr2, nr3 values from input

     Parallelization info
     --------------------
     sticks:   dense  smooth     PW     G-vecs:    dense   smooth      PW
     Min         192      94     40                 3581     1255     351
     Max         193      95     41                 3585     1258     354
     Sum         769     379    163                14331     5029    1411



     bravais-lattice index     =            2
     lattice parameter (alat)  =       8.4162  a.u.
     unit-cell volume          =     149.0375 (a.u.)^3
     number of atoms/cell      =            1
     number of atomic types    =            1
     number of electrons       =         9.00
     number of Kohn-Sham states=            9
     kinetic-energy cutoff     =      40.0000  Ry
     charge density cutoff     =     320.0000  Ry
     Exchange-correlation      = SLA  PW   PBE  PBE ( 1  4  3  4 0 0)

     celldm(1)=   8.416248  celldm(2)=   0.000000  celldm(3)=   0.000000
     celldm(4)=   0.000000  celldm(5)=   0.000000  celldm(6)=   0.000000

     crystal axes: (cart. coord. in units of alat)
               a(1) = (  -0.500000   0.000000   0.500000 )  
               a(2) = (   0.000000   0.500000   0.500000 )  
               a(3) = (  -0.500000   0.500000   0.000000 )  

     reciprocal axes: (cart. coord. in units 2 pi/alat)
               b(1) = ( -1.000000 -1.000000  1.000000 )  
               b(2) = (  1.000000  1.000000  1.000000 )  
               b(3) = ( -1.000000  1.000000 -1.000000 )  


     PseudoPot. # 1 for Na read from file:
     /home/s1333534/quantum_espresso/qe-6.1/pseudo/Na_pbe_v1.uspp.F.UPF
     MD5 check sum: 76a99c7e9422403d3e93cbc85ab7bccb
     Pseudo is Ultrasoft, Zval =  9.0
     Generated by new atomic code, or converted to UPF format
     Using radial grid of  819 points,  5 beta functions with: 
                l(1) =   0
                l(2) =   0
                l(3) =   1
                l(4) =   1
                l(5) =   2
     Q(r) pseudized with  8 coefficients,  rinner =    1.250   1.250   1.250
                                                       1.250   1.250

     atomic species   valence    mass     pseudopotential
        Na             9.00    22.99000     Na( 1.00)

     48 Sym. Ops., with inversion, found



   Cartesian axes

     site n.     atom                  positions (alat units)
         1           Na  tau(   1) = (   0.0000000   0.0000000   0.0000000  )

     number of k points=  2744  Marzari-Vanderbilt smearing, width (Ry)=  0.0200

     Number of k-points >= 100: set verbosity='high' to print them.

     Dense  grid:    14331 G-vectors     FFT dimensions: (  36,  36,  36)

     Smooth grid:     5029 G-vectors     FFT dimensions: (  24,  24,  24)

     Estimated max dynamical RAM per process >       1.47MB

     Estimated total allocated dynamical RAM >       5.88MB

     The potential is recalculated from file :
     ./_ph0/na.fcc.save/charge-density.dat

     Starting wfc are    5 atomic +    4 random wfc

     Band Structure Calculation
     Davidson diagonalization with overlap

     ethr =  1.11E-10,  avg # of iterations = 16.4

     total cpu time spent up to now is     4011.7 secs

     End of band structure calculation

     Number of k-points >= 100: set verbosity='high' to print the bands.

     the Fermi energy is     4.4908 ev

     Writing output data file na.fcc.save

                                                                                

     bravais-lattice index     =            2
     lattice parameter (alat)  =       8.4162  a.u.
     unit-cell volume          =     149.0375 (a.u.)^3
     number of atoms/cell      =            1
     number of atomic types    =            1
     kinetic-energy cut-off    =      40.0000  Ry
     charge density cut-off    =     320.0000  Ry
     convergence threshold     =      1.0E-12
     beta                      =       0.7000
     number of iterations used =            4
     Exchange-correlation      = SLA  PW   PBE  PBE ( 1  4  3  4 0 0)


     celldm(1)=    8.41625  celldm(2)=    0.00000  celldm(3)=    0.00000
     celldm(4)=    0.00000  celldm(5)=    0.00000  celldm(6)=    0.00000

     crystal axes: (cart. coord. in units of alat)
               a(1) = ( -0.5000  0.0000  0.5000 )  
               a(2) = (  0.0000  0.5000  0.5000 )  
               a(3) = ( -0.5000  0.5000  0.0000 )  

     reciprocal axes: (cart. coord. in units 2 pi/alat)
               b(1) = ( -1.0000 -1.0000  1.0000 )  
               b(2) = (  1.0000  1.0000  1.0000 )  
               b(3) = ( -1.0000  1.0000 -1.0000 )  


     Atoms inside the unit cell: 

     Cartesian axes

     site n.  atom      mass           positions (alat units)
        1     Na  22.9900   tau(    1) = (    0.00000    0.00000    0.00000  )

     Computing dynamical matrix for 
                    q = (  -0.5000000  -1.0000000   0.0000000 )

      8 Sym.Ops. (no q -> -q+G )


     G cutoff =  574.1525  (   3583 G-vectors)     FFT grid: ( 36, 36, 36)
     G cutoff =  287.0762  (   1255 G-vectors)  smooth grid: ( 24, 24, 24)

     number of k points=  2744  Marzari-Vanderbilt smearing, width (Ry)=  0.0200

     PseudoPot. # 1 for Na read from file:
     /home/s1333534/quantum_espresso/qe-6.1/pseudo/Na_pbe_v1.uspp.F.UPF
     MD5 check sum: 76a99c7e9422403d3e93cbc85ab7bccb
     Pseudo is Ultrasoft, Zval =  9.0
     Generated by new atomic code, or converted to UPF format
     Using radial grid of  819 points,  5 beta functions with: 
                l(1) =   0
                l(2) =   0
                l(3) =   1
                l(4) =   1
                l(5) =   2
     Q(r) pseudized with  8 coefficients,  rinner =    1.250   1.250   1.250
                                                       1.250   1.250

     Mode symmetry, D_2d (-42m) point group:


     Atomic displacements:
     There are   2 irreducible representations

     Representation     1      1 modes -B_2  X_3  W_2  To be done

     Representation     2      2 modes -E    X_5  W_3  To be done



     Alpha used in Ewald sum =   2.8000
     PHONON       :     4h48m CPU        5h 6m WALL



     Representation #  1 mode #   1

     Self-consistent Calculation

      iter #   1 total cpu time : 18368.7 secs   av.it.:   5.7
      thresh= 1.000E-02 alpha_mix =  0.700 |ddv_scf|^2 =  4.824E-05

      iter #   2 total cpu time : 18376.7 secs   av.it.:   7.5
      thresh= 6.946E-04 alpha_mix =  0.700 |ddv_scf|^2 =  1.593E-06

      iter #   3 total cpu time : 18384.7 secs   av.it.:   7.6
      thresh= 1.262E-04 alpha_mix =  0.700 |ddv_scf|^2 =  3.551E-08

      iter #   4 total cpu time : 18392.9 secs   av.it.:   7.9
      thresh= 1.884E-05 alpha_mix =  0.700 |ddv_scf|^2 =  5.800E-10

      iter #   5 total cpu time : 18400.7 secs   av.it.:   7.3
      thresh= 2.408E-06 alpha_mix =  0.700 |ddv_scf|^2 =  6.754E-13

     End of self-consistent calculation

     Convergence has been achieved 


     Representation #  2 modes #   2  3

     Self-consistent Calculation

      iter #   1 total cpu time : 18415.8 secs   av.it.:   5.7
      thresh= 1.000E-02 alpha_mix =  0.700 |ddv_scf|^2 =  1.752E-05

      iter #   2 total cpu time : 18432.7 secs   av.it.:   8.0
      thresh= 4.186E-04 alpha_mix =  0.700 |ddv_scf|^2 =  6.777E-07

      iter #   3 total cpu time : 18449.0 secs   av.it.:   7.8
      thresh= 8.232E-05 alpha_mix =  0.700 |ddv_scf|^2 =  1.461E-08

      iter #   4 total cpu time : 18466.1 secs   av.it.:   8.4
      thresh= 1.209E-05 alpha_mix =  0.700 |ddv_scf|^2 =  8.143E-11

      iter #   5 total cpu time : 18481.9 secs   av.it.:   7.6
      thresh= 9.024E-07 alpha_mix =  0.700 |ddv_scf|^2 =  4.430E-14

     End of self-consistent calculation

     Convergence has been achieved 

     Number of q in the star =    6
     List of q in the star:
          1  -0.500000000  -1.000000000   0.000000000
          2   0.000000000   1.000000000   0.500000000
          3   0.500000000  -1.000000000   0.000000000
          4   0.000000000   1.000000000  -0.500000000
          5  -1.000000000  -0.500000000   0.000000000
          6   0.000000000  -0.500000000  -1.000000000

     Diagonalizing the dynamical matrix

     q = (   -0.500000000  -1.000000000   0.000000000 ) 

 **************************************************************************
     freq (    1) =       4.784562 [THz] =     159.595825 [cm-1]
     freq (    2) =       6.239556 [THz] =     208.129194 [cm-1]
     freq (    3) =       6.239556 [THz] =     208.129194 [cm-1]
 **************************************************************************

     Mode symmetry, D_2d (-42m) point group:

     freq (  1 -  1) =        159.6  [cm-1]   --> B_2  X_3  W_2      
     freq (  2 -  3) =        208.1  [cm-1]   --> E    X_5  W_3      

     init_run     :      6.89s CPU      6.95s WALL (      28 calls)
     electrons    :   3690.61s CPU   3839.07s WALL (      28 calls)

     Called by init_run:
     wfcinit      :      0.00s CPU      0.00s WALL (      28 calls)
     potinit      :      0.29s CPU      0.30s WALL (      28 calls)

     Called by electrons:
     c_bands      :   3689.54s CPU   3838.00s WALL (      28 calls)
     v_of_rho     :      0.23s CPU      0.23s WALL (      29 calls)
     newd         :      0.26s CPU      0.27s WALL (      29 calls)

     Called by c_bands:
     init_us_2    :    257.14s CPU    234.41s WALL ( 3431134 calls)
     cegterg      :   3377.75s CPU   3503.87s WALL (  258907 calls)

     Called by sum_band:

     Called by *egterg:
     h_psi        :  11329.73s CPU  11933.55s WALL (28080892 calls)
     s_psi        :    426.69s CPU    408.84s WALL (54158996 calls)
     g_psi        :     22.11s CPU     27.55s WALL ( 3938675 calls)
     cdiaghg      :    852.13s CPU    850.91s WALL ( 4178579 calls)

     Called by h_psi:
     h_psi:pot    :  11275.51s CPU  11846.15s WALL (28080892 calls)
     h_psi:calbec :    284.43s CPU    340.89s WALL (28080892 calls)
     vloc_psi     :  10718.99s CPU  11174.80s WALL (28080892 calls)
     add_vuspsi   :    210.89s CPU    245.45s WALL (28080892 calls)

     General routines
     calbec       :    621.73s CPU    656.47s WALL (60079582 calls)
     fft          :      2.02s CPU      2.16s WALL (    9052 calls)
     ffts         :     22.11s CPU     21.75s WALL (  363579 calls)
     fftw         :  11858.70s CPU  11889.01s WALL (******** calls)
     interpolate  :      0.34s CPU      0.41s WALL (    1255 calls)
     davcio       :     99.28s CPU    304.36s WALL (12997252 calls)

     Parallel routines
     fft_scatter  :   2195.99s CPU   2402.19s WALL (******** calls)

     PHONON       :     4h50m CPU        5h 8m WALL

     INITIALIZATION: 
     phq_setup    :      0.80s CPU      0.80s WALL (      29 calls)
     phq_init     :    302.37s CPU    313.77s WALL (      29 calls)

     phq_init     :    302.37s CPU    313.77s WALL (      29 calls)
     init_vloc    :      0.07s CPU      0.07s WALL (      29 calls)
     init_us_1    :      3.04s CPU      3.05s WALL (      29 calls)
     newd         :      0.26s CPU      0.27s WALL (      29 calls)
     dvanqq       :      0.99s CPU      1.01s WALL (      29 calls)
     drho         :    244.03s CPU    252.15s WALL (      29 calls)

     DYNAMICAL MATRIX:
     dynmat0      :     38.40s CPU     39.69s WALL (      29 calls)
     phqscf       :  13250.85s CPU  14150.24s WALL (      29 calls)
     dynmatrix    :      0.03s CPU      0.04s WALL (      29 calls)

     phqscf       :  13250.85s CPU  14150.24s WALL (      29 calls)
     solve_linter :  13188.18s CPU  14084.38s WALL (      76 calls)
     drhodv       :     62.58s CPU     65.59s WALL (      76 calls)

     dynmat0      :     38.40s CPU     39.69s WALL (      29 calls)
     dynmat_us    :     38.36s CPU     39.65s WALL (      29 calls)
     d2ionq       :      0.02s CPU      0.02s WALL (      29 calls)

     dynmat_us    :     38.36s CPU     39.65s WALL (      29 calls)
     addusdynmat  :      0.00s CPU      0.00s WALL (      29 calls)

     phqscf       :  13250.85s CPU  14150.24s WALL (      29 calls)
     solve_linter :  13188.18s CPU  14084.38s WALL (      76 calls)

     solve_linter :  13188.18s CPU  14084.38s WALL (      76 calls)
     dvqpsi_us    :    387.93s CPU    407.51s WALL (  360696 calls)
     ortho        :    129.46s CPU    140.99s WALL ( 2434698 calls)
     cgsolve      :  10316.59s CPU  10840.91s WALL ( 2434698 calls)
     incdrhoscf   :   1107.51s CPU   1186.03s WALL ( 2434698 calls)
     addusddens   :      7.87s CPU      7.91s WALL (     576 calls)
     vpsifft      :    868.18s CPU    923.80s WALL ( 2074002 calls)
     dv_of_drho   :      2.38s CPU      2.47s WALL (     555 calls)
     mix_pot      :      0.34s CPU      0.86s WALL (     500 calls)
     ef_shift     :      0.01s CPU      0.02s WALL (       6 calls)
     localdos     :      0.12s CPU      0.12s WALL (       1 calls)
     psymdvscf    :      4.87s CPU      4.94s WALL (     457 calls)
     newdq        :      7.08s CPU      7.16s WALL (     500 calls)
     adddvscf     :     48.08s CPU     51.16s WALL ( 2074002 calls)
     drhodvus     :      0.02s CPU      0.02s WALL (      76 calls)

     dvqpsi_us    :    387.93s CPU    407.51s WALL (  360696 calls)
     dvqpsi_us_on :     77.27s CPU     75.92s WALL (  360696 calls)

     cgsolve      :  10316.59s CPU  10840.91s WALL ( 2434698 calls)
     ch_psi       :  10039.05s CPU  10597.99s WALL (23643406 calls)

     ch_psi       :  10039.05s CPU  10597.99s WALL (23643406 calls)
     h_psi        :  11329.73s CPU  11933.55s WALL (28080892 calls)
     last         :    693.65s CPU    778.58s WALL (23643406 calls)

     h_psi        :  11329.73s CPU  11933.55s WALL (28080892 calls)
     add_vuspsi   :    210.89s CPU    245.45s WALL (28080892 calls)

     incdrhoscf   :   1107.51s CPU   1186.03s WALL ( 2434698 calls)
     addusdbec    :     50.95s CPU     59.65s WALL ( 2795394 calls)

     drhodvus     :      0.02s CPU      0.02s WALL (      76 calls)

      General routines
     calbec       :    621.73s CPU    656.47s WALL (60079582 calls)
     fft          :      2.02s CPU      2.16s WALL (    9052 calls)
     ffts         :     22.11s CPU     21.75s WALL (  363579 calls)
     fftw         :  11858.70s CPU  11889.01s WALL (******** calls)
     davcio       :     99.28s CPU    304.36s WALL (12997252 calls)
     write_rec    :      0.41s CPU      2.16s WALL (     576 calls)


     PHONON       :     4h50m CPU        5h 8m WALL


   This run was terminated on:  17:24: 1  21Dec2017            

=------------------------------------------------------------------------------=
   JOB DONE.
=------------------------------------------------------------------------------=
