
     Program PWSCF v.5.2.0 starts on  2Jun2016 at 13: 8:55 

     This program is part of the open-source Quantum ESPRESSO suite
     for quantum simulation of materials; please cite
         "P. Giannozzi et al., J. Phys.:Condens. Matter 21 395502 (2009);
          URL http://www.quantum-espresso.org", 
     in publications or presentations arising from this work. More details at
     http://www.quantum-espresso.org/quote

     Parallel version (MPI), running on   288 processors
     K-points division:     npool     =     288
     Waiting for input...
     Reading input from standard input
     Message from routine read_cards :
     DEPRECATED: no units specified in ATOMIC_POSITIONS card
     Message from routine read_cards :
     ATOMIC_POSITIONS: units set to alat

     Current dimensions of program PWSCF are:
     Max number of different atomic species (ntypx) = 10
     Max number of k-points (npk) = 400000
     Max angular momentum in pseudopotentials (lmaxx) =  3

     Subspace diagonalization in iterative solution of the eigenvalue problem:
     a serial algorithm will be used

 
     G-vector sticks info
     --------------------
     sticks:   dense  smooth     PW     G-vecs:    dense   smooth      PW
     Sum        1047     531    169                21529     7707    1409
 


     bravais-lattice index     =            3
     lattice parameter (alat)  =       6.2403  a.u.
     unit-cell volume          =     121.5018 (a.u.)^3
     number of atoms/cell      =            1
     number of atomic types    =            1
     number of electrons       =         3.00
     number of Kohn-Sham states=            6
     kinetic-energy cutoff     =      60.0000  Ry
     charge density cutoff     =     480.0000  Ry
     convergence threshold     =      1.0E-11
     mixing beta               =       0.7000
     number of iterations used =            8  plain     mixing
     Exchange-correlation      =  SLA  PW   PBX  PBC ( 1  4  3  4 0 0)

     celldm(1)=   6.240282  celldm(2)=   0.000000  celldm(3)=   0.000000
     celldm(4)=   0.000000  celldm(5)=   0.000000  celldm(6)=   0.000000

     crystal axes: (cart. coord. in units of alat)
               a(1) = (   0.500000   0.500000   0.500000 )  
               a(2) = (  -0.500000   0.500000   0.500000 )  
               a(3) = (  -0.500000  -0.500000   0.500000 )  

     reciprocal axes: (cart. coord. in units 2 pi/alat)
               b(1) = (  1.000000  0.000000  1.000000 )  
               b(2) = ( -1.000000  1.000000  0.000000 )  
               b(3) = (  0.000000 -1.000000  1.000000 )  


     PseudoPot. # 1 for Li read from file:
     ../Li.pbe-s-gbrv14.UPF
     MD5 check sum: 7ca33c4f951f001da2db5c8738379802
     Pseudo is Ultrasoft, Zval =  3.0
     Generated by new atomic code, or converted to UPF format
     Using radial grid of  751 points,  5 beta functions with: 
                l(1) =   0
                l(2) =   0
                l(3) =   0
                l(4) =   1
                l(5) =   1
     Q(r) pseudized with 10 coefficients,  rinner =    1.150   1.150   1.150


     atomic species   valence    mass     pseudopotential
        Li             3.00     6.94100     Li( 1.00)

     48 Sym. Ops., with inversion, found



   Cartesian axes

     site n.     atom                  positions (alat units)
         1           Li  tau(   1) = (   0.0000000   0.0000000   0.0000000  )

     number of k points=   616  Marzari-Vanderbilt smearing, width (Ry)=  0.0200

     Number of k-points >= 100: set verbosity='high' to print them.

     Dense  grid:    21529 G-vectors     FFT dimensions: (  40,  40,  40)

     Smooth grid:     7707 G-vectors     FFT dimensions: (  27,  27,  27)

     Largest allocated arrays     est. size (Mb)     dimensions
        Kohn-Sham Wavefunctions         0.09 Mb     (     968,    6)
        NL pseudopotentials             0.13 Mb     (     968,    9)
        Each V/rho on FFT grid          0.98 Mb     (   64000)
        Each G-vector array             0.16 Mb     (   21529)
        G-vector shells                 0.00 Mb     (     219)
     Largest temporary arrays     est. size (Mb)     dimensions
        Auxiliary wavefunctions         0.35 Mb     (     968,   24)
        Each subspace H/S matrix        0.01 Mb     (      24,   24)
        Each <psi_i|beta_j> matrix      0.00 Mb     (       9,    6)
        Arrays for rho mixing           7.81 Mb     (   64000,    8)

     Initial potential from superposition of free atoms

     starting charge    2.54926, renormalised to    3.00000
     Starting wfc are    5 randomized atomic wfcs +    1 random wfc

     total cpu time spent up to now is       12.6 secs

     per-process dynamical memory:    18.9 Mb

     Self-consistent Calculation

     iteration #  1     ecut=    60.00 Ry     beta=0.70
     Davidson diagonalization with overlap
     ethr =  1.00E-02,  avg # of iterations =  5.4

     total cpu time spent up to now is       13.5 secs

     total energy              =     -14.46598084 Ry
     Harris-Foulkes estimate   =     -14.58202142 Ry
     estimated scf accuracy    <       0.16107508 Ry

     iteration #  2     ecut=    60.00 Ry     beta=0.70
     Davidson diagonalization with overlap
     ethr =  5.37E-03,  avg # of iterations =  1.0

     total cpu time spent up to now is       13.7 secs

     total energy              =     -14.46938090 Ry
     Harris-Foulkes estimate   =     -14.47479878 Ry
     estimated scf accuracy    <       0.00727137 Ry

     iteration #  3     ecut=    60.00 Ry     beta=0.70
     Davidson diagonalization with overlap
     ethr =  2.42E-04,  avg # of iterations =  2.2

     total cpu time spent up to now is       13.9 secs

     total energy              =     -14.47109760 Ry
     Harris-Foulkes estimate   =     -14.47109266 Ry
     estimated scf accuracy    <       0.00003755 Ry

     iteration #  4     ecut=    60.00 Ry     beta=0.70
     Davidson diagonalization with overlap
     ethr =  1.25E-06,  avg # of iterations =  4.2

     total cpu time spent up to now is       14.1 secs

     total energy              =     -14.47110897 Ry
     Harris-Foulkes estimate   =     -14.47110926 Ry
     estimated scf accuracy    <       0.00000096 Ry

     iteration #  5     ecut=    60.00 Ry     beta=0.70
     Davidson diagonalization with overlap
     ethr =  3.21E-08,  avg # of iterations =  2.1

     total cpu time spent up to now is       14.2 secs

     total energy              =     -14.47110934 Ry
     Harris-Foulkes estimate   =     -14.47110934 Ry
     estimated scf accuracy    <       0.00000001 Ry

     iteration #  6     ecut=    60.00 Ry     beta=0.70
     Davidson diagonalization with overlap
     ethr =  4.31E-10,  avg # of iterations =  2.2

     total cpu time spent up to now is       14.4 secs

     total energy              =     -14.47110935 Ry
     Harris-Foulkes estimate   =     -14.47110935 Ry
     estimated scf accuracy    <          3.9E-09 Ry

     iteration #  7     ecut=    60.00 Ry     beta=0.70
     Davidson diagonalization with overlap
     ethr =  1.32E-10,  avg # of iterations =  1.0

     total cpu time spent up to now is       14.5 secs

     total energy              =     -14.47110935 Ry
     Harris-Foulkes estimate   =     -14.47110935 Ry
     estimated scf accuracy    <          1.4E-11 Ry

     iteration #  8     ecut=    60.00 Ry     beta=0.70
     Davidson diagonalization with overlap
     ethr =  4.75E-13,  avg # of iterations =  3.0

     total cpu time spent up to now is       14.7 secs

     End of self-consistent calculation

     Number of k-points >= 100: set verbosity='high' to print the bands.

     the Fermi energy is     1.3455 ev

!    total energy              =     -14.47110935 Ry
     Harris-Foulkes estimate   =     -14.47110935 Ry
     estimated scf accuracy    <          8.2E-13 Ry

     The total energy is the sum of the following terms:

     one-electron contribution =      -9.40158119 Ry
     hartree contribution      =       3.57376198 Ry
     xc contribution           =      -3.39453091 Ry
     ewald contribution        =      -5.24865720 Ry
     smearing contrib. (-TS)   =      -0.00010202 Ry

     convergence has been achieved in   8 iterations


     entering subroutine stress ...

          total   stress  (Ry/bohr**3)                   (kbar)     P=   20.01
   0.00013605  -0.00000000   0.00000000         20.01     -0.00      0.00
  -0.00000000   0.00013605  -0.00000000         -0.00     20.01     -0.00
   0.00000000  -0.00000000   0.00013605          0.00     -0.00     20.01


     Writing output data file li-bcc.save
 
     init_run     :      0.62s CPU      5.46s WALL (       1 calls)
     electrons    :      2.07s CPU      3.78s WALL (       1 calls)
     stress       :      0.12s CPU      0.11s WALL (       1 calls)

     Called by init_run:
     wfcinit      :      0.02s CPU      0.02s WALL (       1 calls)
     potinit      :      0.41s CPU      0.42s WALL (       1 calls)

     Called by electrons:
     c_bands      :      0.42s CPU      0.43s WALL (       8 calls)
     sum_band     :      0.34s CPU      0.35s WALL (       8 calls)
     v_of_rho     :      0.38s CPU      0.38s WALL (       9 calls)
     newd         :      0.15s CPU      0.16s WALL (       9 calls)
     mix_rho      :      0.04s CPU      0.05s WALL (       8 calls)

     Called by c_bands:
     init_us_2    :      0.00s CPU      0.01s WALL (      54 calls)
     cegterg      :      0.34s CPU      0.35s WALL (      24 calls)

     Called by sum_band:
     sum_band:bec :      0.00s CPU      0.00s WALL (      24 calls)
     addusdens    :      0.15s CPU      0.16s WALL (       8 calls)

     Called by *egterg:
     h_psi        :      0.32s CPU      0.33s WALL (     105 calls)
     s_psi        :      0.00s CPU      0.00s WALL (     105 calls)
     g_psi        :      0.00s CPU      0.00s WALL (      78 calls)
     cdiaghg      :      0.01s CPU      0.01s WALL (     102 calls)

     Called by h_psi:
     add_vuspsi   :      0.00s CPU      0.00s WALL (     105 calls)

     General routines
     calbec       :      0.00s CPU      0.00s WALL (     132 calls)
     fft          :      0.25s CPU      0.25s WALL (     145 calls)
     ffts         :      0.00s CPU      0.01s WALL (      17 calls)
     fftw         :      0.31s CPU      0.33s WALL (     968 calls)
     interpolate  :      0.04s CPU      0.05s WALL (      17 calls)
     davcio       :      0.00s CPU      0.00s WALL (       3 calls)
 
     Parallel routines
     fft_scatter  :      0.05s CPU      0.05s WALL (    1130 calls)
 
     PWSCF        :  0m11.63s CPU     1m15.06s WALL

 
   This run was terminated on:  13:10:10   2Jun2016            

=------------------------------------------------------------------------------=
   JOB DONE.
=------------------------------------------------------------------------------=
Application 21898980 resources: utime ~21196s, stime ~104s, Rss ~48440, inblocks ~1629455, outblocks ~1263236

     Program PWSCF v.5.2.0 starts on  3Jun2016 at 14:35:34 

     This program is part of the open-source Quantum ESPRESSO suite
     for quantum simulation of materials; please cite
         "P. Giannozzi et al., J. Phys.:Condens. Matter 21 395502 (2009);
          URL http://www.quantum-espresso.org", 
     in publications or presentations arising from this work. More details at
     http://www.quantum-espresso.org/quote

     Parallel version (MPI), running on   288 processors
     K-points division:     npool     =     288
     Waiting for input...
     Reading input from standard input
     Message from routine read_cards :
     DEPRECATED: no units specified in ATOMIC_POSITIONS card
     Message from routine read_cards :
     ATOMIC_POSITIONS: units set to alat

     Current dimensions of program PWSCF are:
     Max number of different atomic species (ntypx) = 10
     Max number of k-points (npk) = 400000
     Max angular momentum in pseudopotentials (lmaxx) =  3

     Subspace diagonalization in iterative solution of the eigenvalue problem:
     a serial algorithm will be used

 
     G-vector sticks info
     --------------------
     sticks:   dense  smooth     PW     G-vecs:    dense   smooth      PW
     Sum        1047     531    169                21529     7707    1409
 


     bravais-lattice index     =            3
     lattice parameter (alat)  =       6.2403  a.u.
     unit-cell volume          =     121.5018 (a.u.)^3
     number of atoms/cell      =            1
     number of atomic types    =            1
     number of electrons       =         3.00
     number of Kohn-Sham states=            6
     kinetic-energy cutoff     =      60.0000  Ry
     charge density cutoff     =     480.0000  Ry
     convergence threshold     =      1.0E-11
     mixing beta               =       0.7000
     number of iterations used =            8  plain     mixing
     Exchange-correlation      =  SLA  PW   PBX  PBC ( 1  4  3  4 0 0)

     celldm(1)=   6.240282  celldm(2)=   0.000000  celldm(3)=   0.000000
     celldm(4)=   0.000000  celldm(5)=   0.000000  celldm(6)=   0.000000

     crystal axes: (cart. coord. in units of alat)
               a(1) = (   0.500000   0.500000   0.500000 )  
               a(2) = (  -0.500000   0.500000   0.500000 )  
               a(3) = (  -0.500000  -0.500000   0.500000 )  

     reciprocal axes: (cart. coord. in units 2 pi/alat)
               b(1) = (  1.000000  0.000000  1.000000 )  
               b(2) = ( -1.000000  1.000000  0.000000 )  
               b(3) = (  0.000000 -1.000000  1.000000 )  


     PseudoPot. # 1 for Li read from file:
     ../Li.pbe-s-gbrv14.UPF
     MD5 check sum: 7ca33c4f951f001da2db5c8738379802
     Pseudo is Ultrasoft, Zval =  3.0
     Generated by new atomic code, or converted to UPF format
     Using radial grid of  751 points,  5 beta functions with: 
                l(1) =   0
                l(2) =   0
                l(3) =   0
                l(4) =   1
                l(5) =   1
     Q(r) pseudized with 10 coefficients,  rinner =    1.150   1.150   1.150


     atomic species   valence    mass     pseudopotential
        Li             3.00     6.94100     Li( 1.00)

     48 Sym. Ops., with inversion, found



   Cartesian axes

     site n.     atom                  positions (alat units)
         1           Li  tau(   1) = (   0.0000000   0.0000000   0.0000000  )

     number of k points=   616  Marzari-Vanderbilt smearing, width (Ry)=  0.0200

     Number of k-points >= 100: set verbosity='high' to print them.

     Dense  grid:    21529 G-vectors     FFT dimensions: (  40,  40,  40)

     Smooth grid:     7707 G-vectors     FFT dimensions: (  27,  27,  27)

     Largest allocated arrays     est. size (Mb)     dimensions
        Kohn-Sham Wavefunctions         0.09 Mb     (     968,    6)
        NL pseudopotentials             0.13 Mb     (     968,    9)
        Each V/rho on FFT grid          0.98 Mb     (   64000)
        Each G-vector array             0.16 Mb     (   21529)
        G-vector shells                 0.00 Mb     (     219)
     Largest temporary arrays     est. size (Mb)     dimensions
        Auxiliary wavefunctions         0.35 Mb     (     968,   24)
        Each subspace H/S matrix        0.01 Mb     (      24,   24)
        Each <psi_i|beta_j> matrix      0.00 Mb     (       9,    6)
        Arrays for rho mixing           7.81 Mb     (   64000,    8)

     Initial potential from superposition of free atoms

     starting charge    2.54926, renormalised to    3.00000
     Starting wfc are    5 randomized atomic wfcs +    1 random wfc

     total cpu time spent up to now is        2.8 secs

     per-process dynamical memory:    18.9 Mb

     Self-consistent Calculation

     iteration #  1     ecut=    60.00 Ry     beta=0.70
     Davidson diagonalization with overlap
     ethr =  1.00E-02,  avg # of iterations =  5.4

     total cpu time spent up to now is        3.2 secs

     total energy              =     -14.46598084 Ry
     Harris-Foulkes estimate   =     -14.58202142 Ry
     estimated scf accuracy    <       0.16107508 Ry

     iteration #  2     ecut=    60.00 Ry     beta=0.70
     Davidson diagonalization with overlap
     ethr =  5.37E-03,  avg # of iterations =  1.0

     total cpu time spent up to now is        3.4 secs

     total energy              =     -14.46938090 Ry
     Harris-Foulkes estimate   =     -14.47479878 Ry
     estimated scf accuracy    <       0.00727137 Ry

     iteration #  3     ecut=    60.00 Ry     beta=0.70
     Davidson diagonalization with overlap
     ethr =  2.42E-04,  avg # of iterations =  2.2

     total cpu time spent up to now is        3.6 secs

     total energy              =     -14.47109760 Ry
     Harris-Foulkes estimate   =     -14.47109266 Ry
     estimated scf accuracy    <       0.00003755 Ry

     iteration #  4     ecut=    60.00 Ry     beta=0.70
     Davidson diagonalization with overlap
     ethr =  1.25E-06,  avg # of iterations =  4.2

     total cpu time spent up to now is        3.8 secs

     total energy              =     -14.47110897 Ry
     Harris-Foulkes estimate   =     -14.47110926 Ry
     estimated scf accuracy    <       0.00000096 Ry

     iteration #  5     ecut=    60.00 Ry     beta=0.70
     Davidson diagonalization with overlap
     ethr =  3.21E-08,  avg # of iterations =  2.1

     total cpu time spent up to now is        3.9 secs

     total energy              =     -14.47110934 Ry
     Harris-Foulkes estimate   =     -14.47110934 Ry
     estimated scf accuracy    <       0.00000001 Ry

     iteration #  6     ecut=    60.00 Ry     beta=0.70
     Davidson diagonalization with overlap
     ethr =  4.31E-10,  avg # of iterations =  2.2

     total cpu time spent up to now is        4.1 secs

     total energy              =     -14.47110935 Ry
     Harris-Foulkes estimate   =     -14.47110935 Ry
     estimated scf accuracy    <          3.9E-09 Ry

     iteration #  7     ecut=    60.00 Ry     beta=0.70
     Davidson diagonalization with overlap
     ethr =  1.32E-10,  avg # of iterations =  1.0

     total cpu time spent up to now is        4.3 secs

     total energy              =     -14.47110935 Ry
     Harris-Foulkes estimate   =     -14.47110935 Ry
     estimated scf accuracy    <          1.4E-11 Ry

     iteration #  8     ecut=    60.00 Ry     beta=0.70
     Davidson diagonalization with overlap
     ethr =  4.75E-13,  avg # of iterations =  3.0

     total cpu time spent up to now is        4.4 secs

     End of self-consistent calculation

     Number of k-points >= 100: set verbosity='high' to print the bands.

     the Fermi energy is     1.3455 ev

!    total energy              =     -14.47110935 Ry
     Harris-Foulkes estimate   =     -14.47110935 Ry
     estimated scf accuracy    <          8.2E-13 Ry

     The total energy is the sum of the following terms:

     one-electron contribution =      -9.40158119 Ry
     hartree contribution      =       3.57376198 Ry
     xc contribution           =      -3.39453091 Ry
     ewald contribution        =      -5.24865720 Ry
     smearing contrib. (-TS)   =      -0.00010202 Ry

     convergence has been achieved in   8 iterations


     entering subroutine stress ...

          total   stress  (Ry/bohr**3)                   (kbar)     P=   20.01
   0.00013605   0.00000000  -0.00000000         20.01      0.00     -0.00
   0.00000000   0.00013605   0.00000000          0.00     20.01      0.00
  -0.00000000   0.00000000   0.00013605         -0.00      0.00     20.01


     Writing output data file li-bcc.save
 
     init_run     :      1.87s CPU      1.92s WALL (       1 calls)
     electrons    :      1.52s CPU      1.65s WALL (       1 calls)
     stress       :      0.11s CPU      0.11s WALL (       1 calls)

     Called by init_run:
     wfcinit      :      0.02s CPU      0.02s WALL (       1 calls)
     potinit      :      1.68s CPU      1.70s WALL (       1 calls)

     Called by electrons:
     c_bands      :      0.40s CPU      0.43s WALL (       8 calls)
     sum_band     :      0.32s CPU      0.34s WALL (       8 calls)
     v_of_rho     :      0.38s CPU      0.38s WALL (       9 calls)
     newd         :      0.14s CPU      0.16s WALL (       9 calls)
     mix_rho      :      0.04s CPU      0.05s WALL (       8 calls)

     Called by c_bands:
     init_us_2    :      0.00s CPU      0.01s WALL (      54 calls)
     cegterg      :      0.34s CPU      0.35s WALL (      24 calls)

     Called by sum_band:
     sum_band:bec :      0.00s CPU      0.00s WALL (      24 calls)
     addusdens    :      0.15s CPU      0.16s WALL (       8 calls)

     Called by *egterg:
     h_psi        :      0.34s CPU      0.33s WALL (     105 calls)
     s_psi        :      0.00s CPU      0.00s WALL (     105 calls)
     g_psi        :      0.00s CPU      0.00s WALL (      78 calls)
     cdiaghg      :      0.01s CPU      0.01s WALL (     102 calls)

     Called by h_psi:
     add_vuspsi   :      0.02s CPU      0.00s WALL (     105 calls)

     General routines
     calbec       :      0.00s CPU      0.00s WALL (     132 calls)
     fft          :      0.26s CPU      0.25s WALL (     145 calls)
     ffts         :      0.01s CPU      0.01s WALL (      17 calls)
     fftw         :      0.32s CPU      0.33s WALL (     968 calls)
     interpolate  :      0.04s CPU      0.04s WALL (      17 calls)
     davcio       :      0.00s CPU      0.00s WALL (       3 calls)
 
     Parallel routines
     fft_scatter  :      0.05s CPU      0.05s WALL (    1130 calls)
 
     PWSCF        :  0m 6.30s CPU     1m20.20s WALL

 
   This run was terminated on:  14:36:54   3Jun2016            

=------------------------------------------------------------------------------=
   JOB DONE.
=------------------------------------------------------------------------------=
Application 21909312 resources: utime ~22832s, stime ~106s, Rss ~48456, inblocks ~1627349, outblocks ~1263237
