
     Program PWSCF v.5.2.0 starts on 19Dec2016 at 11:52:59 

     This program is part of the open-source Quantum ESPRESSO suite
     for quantum simulation of materials; please cite
         "P. Giannozzi et al., J. Phys.:Condens. Matter 21 395502 (2009);
          URL http://www.quantum-espresso.org", 
     in publications or presentations arising from this work. More details at
     http://www.quantum-espresso.org/quote

     Parallel version (MPI), running on   192 processors
     K-points division:     npool     =     192
     Waiting for input...
     Reading input from standard input
     Message from routine read_cards :
     DEPRECATED: no units specified in ATOMIC_POSITIONS card
     Message from routine read_cards :
     ATOMIC_POSITIONS: units set to alat

     Current dimensions of program PWSCF are:
     Max number of different atomic species (ntypx) = 10
     Max number of k-points (npk) = 400000
     Max angular momentum in pseudopotentials (lmaxx) =  3

     Subspace diagonalization in iterative solution of the eigenvalue problem:
     a serial algorithm will be used

 
     G-vector sticks info
     --------------------
     sticks:   dense  smooth     PW     G-vecs:    dense   smooth      PW
     Sum        1001     487    159                19861     6963    1253
 


     bravais-lattice index     =            3
     lattice parameter (alat)  =       6.0634  a.u.
     unit-cell volume          =     111.4587 (a.u.)^3
     number of atoms/cell      =            1
     number of atomic types    =            1
     number of electrons       =         3.00
     number of Kohn-Sham states=            6
     kinetic-energy cutoff     =      60.0000  Ry
     charge density cutoff     =     480.0000  Ry
     convergence threshold     =      1.0E-12
     mixing beta               =       0.7000
     number of iterations used =            8  plain     mixing
     Exchange-correlation      =  SLA  PW   PBX  PBC ( 1  4  3  4 0 0)

     celldm(1)=   6.063379  celldm(2)=   0.000000  celldm(3)=   0.000000
     celldm(4)=   0.000000  celldm(5)=   0.000000  celldm(6)=   0.000000

     crystal axes: (cart. coord. in units of alat)
               a(1) = (   0.500000   0.500000   0.500000 )  
               a(2) = (  -0.500000   0.500000   0.500000 )  
               a(3) = (  -0.500000  -0.500000   0.500000 )  

     reciprocal axes: (cart. coord. in units 2 pi/alat)
               b(1) = (  1.000000  0.000000  1.000000 )  
               b(2) = ( -1.000000  1.000000  0.000000 )  
               b(3) = (  0.000000 -1.000000  1.000000 )  


     PseudoPot. # 1 for Li read from file:
     ../Li.pbe-s-gbrv14.UPF
     MD5 check sum: 7ca33c4f951f001da2db5c8738379802
     Pseudo is Ultrasoft, Zval =  3.0
     Generated by new atomic code, or converted to UPF format
     Using radial grid of  751 points,  5 beta functions with: 
                l(1) =   0
                l(2) =   0
                l(3) =   0
                l(4) =   1
                l(5) =   1
     Q(r) pseudized with 10 coefficients,  rinner =    1.150   1.150   1.150


     atomic species   valence    mass     pseudopotential
        Li             3.00     6.94100     Li( 1.00)

     48 Sym. Ops., with inversion, found



   Cartesian axes

     site n.     atom                  positions (alat units)
         1           Li  tau(   1) = (   0.0000000   0.0000000   0.0000000  )

     number of k points=  1650  Marzari-Vanderbilt smearing, width (Ry)=  0.0200

     Number of k-points >= 100: set verbosity='high' to print them.

     Dense  grid:    19861 G-vectors     FFT dimensions: (  40,  40,  40)

     Smooth grid:     6963 G-vectors     FFT dimensions: (  25,  25,  25)

     Largest allocated arrays     est. size (Mb)     dimensions
        Kohn-Sham Wavefunctions         0.08 Mb     (     911,    6)
        NL pseudopotentials             0.13 Mb     (     911,    9)
        Each V/rho on FFT grid          0.98 Mb     (   64000)
        Each G-vector array             0.15 Mb     (   19861)
        G-vector shells                 0.00 Mb     (     207)
     Largest temporary arrays     est. size (Mb)     dimensions
        Auxiliary wavefunctions         0.33 Mb     (     911,   24)
        Each subspace H/S matrix        0.01 Mb     (      24,   24)
        Each <psi_i|beta_j> matrix      0.00 Mb     (       9,    6)
        Arrays for rho mixing           7.81 Mb     (   64000,    8)

     Initial potential from superposition of free atoms

     starting charge    2.54926, renormalised to    3.00000
     Starting wfc are    5 randomized atomic wfcs +    1 random wfc

     total cpu time spent up to now is        0.8 secs

     per-process dynamical memory:    20.2 Mb

     Self-consistent Calculation

     iteration #  1     ecut=    60.00 Ry     beta=0.70
     Davidson diagonalization with overlap
     ethr =  1.00E-02,  avg # of iterations =  5.3

     total cpu time spent up to now is        1.3 secs

     total energy              =     -14.46396878 Ry
     Harris-Foulkes estimate   =     -14.57794515 Ry
     estimated scf accuracy    <       0.15911425 Ry

     iteration #  2     ecut=    60.00 Ry     beta=0.70
     Davidson diagonalization with overlap
     ethr =  5.30E-03,  avg # of iterations =  1.0

     total cpu time spent up to now is        1.5 secs

     total energy              =     -14.46744699 Ry
     Harris-Foulkes estimate   =     -14.47268957 Ry
     estimated scf accuracy    <       0.00709946 Ry

     iteration #  3     ecut=    60.00 Ry     beta=0.70
     Davidson diagonalization with overlap
     ethr =  2.37E-04,  avg # of iterations =  2.2

     total cpu time spent up to now is        1.8 secs

     total energy              =     -14.46909092 Ry
     Harris-Foulkes estimate   =     -14.46908420 Ry
     estimated scf accuracy    <       0.00003445 Ry

     iteration #  4     ecut=    60.00 Ry     beta=0.70
     Davidson diagonalization with overlap
     ethr =  1.15E-06,  avg # of iterations =  4.0

     total cpu time spent up to now is        2.2 secs

     total energy              =     -14.46910030 Ry
     Harris-Foulkes estimate   =     -14.46910050 Ry
     estimated scf accuracy    <       0.00000081 Ry

     iteration #  5     ecut=    60.00 Ry     beta=0.70
     Davidson diagonalization with overlap
     ethr =  2.69E-08,  avg # of iterations =  2.1

     total cpu time spent up to now is        2.4 secs

     total energy              =     -14.46910060 Ry
     Harris-Foulkes estimate   =     -14.46910060 Ry
     estimated scf accuracy    <       0.00000001 Ry

     iteration #  6     ecut=    60.00 Ry     beta=0.70
     Davidson diagonalization with overlap
     ethr =  3.50E-10,  avg # of iterations =  2.3

     total cpu time spent up to now is        2.6 secs

     total energy              =     -14.46910060 Ry
     Harris-Foulkes estimate   =     -14.46910060 Ry
     estimated scf accuracy    <          3.1E-09 Ry

     iteration #  7     ecut=    60.00 Ry     beta=0.70
     Davidson diagonalization with overlap
     ethr =  1.03E-10,  avg # of iterations =  1.0

     total cpu time spent up to now is        2.9 secs

     total energy              =     -14.46910060 Ry
     Harris-Foulkes estimate   =     -14.46910060 Ry
     estimated scf accuracy    <          5.4E-12 Ry

     iteration #  8     ecut=    60.00 Ry     beta=0.70
     Davidson diagonalization with overlap
     ethr =  1.80E-13,  avg # of iterations =  3.0

     total cpu time spent up to now is        3.1 secs

     End of self-consistent calculation

     Number of k-points >= 100: set verbosity='high' to print the bands.

     the Fermi energy is     1.6582 ev

!    total energy              =     -14.46910060 Ry
     Harris-Foulkes estimate   =     -14.46910060 Ry
     estimated scf accuracy    <          9.9E-13 Ry

     The total energy is the sum of the following terms:

     one-electron contribution =      -9.16816839 Ry
     hartree contribution      =       3.50881337 Ry
     xc contribution           =      -3.40786116 Ry
     ewald contribution        =      -5.40179016 Ry
     smearing contrib. (-TS)   =      -0.00009426 Ry

     convergence has been achieved in   8 iterations


     entering subroutine stress ...

          total   stress  (Ry/bohr**3)                   (kbar)     P=   40.01
   0.00027200   0.00000000  -0.00000000         40.01      0.00     -0.00
   0.00000000   0.00027200   0.00000000          0.00     40.01      0.00
  -0.00000000   0.00000000   0.00027200         -0.00      0.00     40.01


     Writing output data file li-bcc.save
 
     init_run     :      0.51s CPU      0.59s WALL (       1 calls)
     electrons    :      2.17s CPU      2.35s WALL (       1 calls)
     stress       :      0.12s CPU      0.12s WALL (       1 calls)

     Called by init_run:
     wfcinit      :      0.04s CPU      0.05s WALL (       1 calls)
     potinit      :      0.31s CPU      0.32s WALL (       1 calls)

     Called by electrons:
     c_bands      :      1.07s CPU      1.11s WALL (       8 calls)
     sum_band     :      0.43s CPU      0.44s WALL (       8 calls)
     v_of_rho     :      0.38s CPU      0.38s WALL (       9 calls)
     newd         :      0.13s CPU      0.15s WALL (       9 calls)
     mix_rho      :      0.05s CPU      0.04s WALL (       8 calls)

     Called by c_bands:
     init_us_2    :      0.04s CPU      0.03s WALL (     162 calls)
     cegterg      :      0.90s CPU      0.93s WALL (      72 calls)

     Called by sum_band:
     sum_band:bec :      0.00s CPU      0.00s WALL (      72 calls)
     addusdens    :      0.15s CPU      0.15s WALL (       8 calls)

     Called by *egterg:
     h_psi        :      0.82s CPU      0.86s WALL (     301 calls)
     s_psi        :      0.00s CPU      0.01s WALL (     301 calls)
     g_psi        :      0.01s CPU      0.01s WALL (     220 calls)
     cdiaghg      :      0.06s CPU      0.03s WALL (     292 calls)

     Called by h_psi:
     add_vuspsi   :      0.01s CPU      0.01s WALL (     301 calls)

     General routines
     calbec       :      0.01s CPU      0.01s WALL (     382 calls)
     fft          :      0.22s CPU      0.24s WALL (     145 calls)
     ffts         :      0.00s CPU      0.01s WALL (      17 calls)
     fftw         :      0.84s CPU      0.86s WALL (    2894 calls)
     interpolate  :      0.04s CPU      0.04s WALL (      17 calls)
     davcio       :      0.00s CPU      0.00s WALL (       9 calls)
 
     Parallel routines
     fft_scatter  :      0.06s CPU      0.07s WALL (    3056 calls)
 
     PWSCF        :  0m 5.41s CPU     1m47.55s WALL

 
   This run was terminated on:  11:54:47  19Dec2016            

=------------------------------------------------------------------------------=
   JOB DONE.
=------------------------------------------------------------------------------=
Application 24550269 resources: utime ~20427s, stime ~96s, Rss ~46648, inblocks ~1252843, outblocks ~1062070
