
     Program PWSCF v.5.2.0 starts on 31May2016 at 22:32:42 

     This program is part of the open-source Quantum ESPRESSO suite
     for quantum simulation of materials; please cite
         "P. Giannozzi et al., J. Phys.:Condens. Matter 21 395502 (2009);
          URL http://www.quantum-espresso.org", 
     in publications or presentations arising from this work. More details at
     http://www.quantum-espresso.org/quote

     Parallel version (MPI), running on   288 processors
     K-points division:     npool     =     288
     Waiting for input...
     Reading input from standard input
     Message from routine read_cards :
     DEPRECATED: no units specified in ATOMIC_POSITIONS card
     Message from routine read_cards :
     ATOMIC_POSITIONS: units set to alat

     Current dimensions of program PWSCF are:
     Max number of different atomic species (ntypx) = 10
     Max number of k-points (npk) = 400000
     Max angular momentum in pseudopotentials (lmaxx) =  3

     Subspace diagonalization in iterative solution of the eigenvalue problem:
     a serial algorithm will be used

 
     G-vector sticks info
     --------------------
     sticks:   dense  smooth     PW     G-vecs:    dense   smooth      PW
     Sum        1151     571    173                24835     8685    1505
 


     bravais-lattice index     =            3
     lattice parameter (alat)  =       6.5313  a.u.
     unit-cell volume          =     139.3078 (a.u.)^3
     number of atoms/cell      =            1
     number of atomic types    =            1
     number of electrons       =         3.00
     number of Kohn-Sham states=            6
     kinetic-energy cutoff     =      60.0000  Ry
     charge density cutoff     =     480.0000  Ry
     convergence threshold     =      1.0E-11
     mixing beta               =       0.7000
     number of iterations used =            8  plain     mixing
     Exchange-correlation      =  SLA  PW   PBX  PBC ( 1  4  3  4 0 0)

     celldm(1)=   6.531332  celldm(2)=   0.000000  celldm(3)=   0.000000
     celldm(4)=   0.000000  celldm(5)=   0.000000  celldm(6)=   0.000000

     crystal axes: (cart. coord. in units of alat)
               a(1) = (   0.500000   0.500000   0.500000 )  
               a(2) = (  -0.500000   0.500000   0.500000 )  
               a(3) = (  -0.500000  -0.500000   0.500000 )  

     reciprocal axes: (cart. coord. in units 2 pi/alat)
               b(1) = (  1.000000  0.000000  1.000000 )  
               b(2) = ( -1.000000  1.000000  0.000000 )  
               b(3) = (  0.000000 -1.000000  1.000000 )  


     PseudoPot. # 1 for Li read from file:
     ../Li.pbe-s-gbrv14.UPF
     MD5 check sum: 7ca33c4f951f001da2db5c8738379802
     Pseudo is Ultrasoft, Zval =  3.0
     Generated by new atomic code, or converted to UPF format
     Using radial grid of  751 points,  5 beta functions with: 
                l(1) =   0
                l(2) =   0
                l(3) =   0
                l(4) =   1
                l(5) =   1
     Q(r) pseudized with 10 coefficients,  rinner =    1.150   1.150   1.150


     atomic species   valence    mass     pseudopotential
        Li             3.00     6.94100     Li( 1.00)

     48 Sym. Ops., with inversion, found



   Cartesian axes

     site n.     atom                  positions (alat units)
         1           Li  tau(   1) = (   0.0000000   0.0000000   0.0000000  )

     number of k points=   616  Marzari-Vanderbilt smearing, width (Ry)=  0.0200

     Number of k-points >= 100: set verbosity='high' to print them.

     Dense  grid:    24835 G-vectors     FFT dimensions: (  40,  40,  40)

     Smooth grid:     8685 G-vectors     FFT dimensions: (  27,  27,  27)

     Largest allocated arrays     est. size (Mb)     dimensions
        Kohn-Sham Wavefunctions         0.10 Mb     (    1120,    6)
        NL pseudopotentials             0.15 Mb     (    1120,    9)
        Each V/rho on FFT grid          0.98 Mb     (   64000)
        Each G-vector array             0.19 Mb     (   24835)
        G-vector shells                 0.00 Mb     (     239)
     Largest temporary arrays     est. size (Mb)     dimensions
        Auxiliary wavefunctions         0.41 Mb     (    1120,   24)
        Each subspace H/S matrix        0.01 Mb     (      24,   24)
        Each <psi_i|beta_j> matrix      0.00 Mb     (       9,    6)
        Arrays for rho mixing           7.81 Mb     (   64000,    8)

     Initial potential from superposition of free atoms

     starting charge    2.54926, renormalised to    3.00000
     Starting wfc are    5 randomized atomic wfcs +    1 random wfc

     total cpu time spent up to now is       10.8 secs

     per-process dynamical memory:    19.7 Mb

     Self-consistent Calculation

     iteration #  1     ecut=    60.00 Ry     beta=0.70
     Davidson diagonalization with overlap
     ethr =  1.00E-02,  avg # of iterations =  5.3

     total cpu time spent up to now is       11.3 secs

     total energy              =     -14.46677675 Ry
     Harris-Foulkes estimate   =     -14.58637865 Ry
     estimated scf accuracy    <       0.16471439 Ry

     iteration #  2     ecut=    60.00 Ry     beta=0.70
     Davidson diagonalization with overlap
     ethr =  5.49E-03,  avg # of iterations =  1.0

     total cpu time spent up to now is       11.4 secs

     total energy              =     -14.47028628 Ry
     Harris-Foulkes estimate   =     -14.47586198 Ry
     estimated scf accuracy    <       0.00739998 Ry

     iteration #  3     ecut=    60.00 Ry     beta=0.70
     Davidson diagonalization with overlap
     ethr =  2.47E-04,  avg # of iterations =  2.2

     total cpu time spent up to now is       11.6 secs

     total energy              =     -14.47203151 Ry
     Harris-Foulkes estimate   =     -14.47202654 Ry
     estimated scf accuracy    <       0.00003750 Ry

     iteration #  4     ecut=    60.00 Ry     beta=0.70
     Davidson diagonalization with overlap
     ethr =  1.25E-06,  avg # of iterations =  4.3

     total cpu time spent up to now is       11.9 secs

     total energy              =     -14.47203881 Ry
     Harris-Foulkes estimate   =     -14.47203899 Ry
     estimated scf accuracy    <       0.00000087 Ry

     iteration #  5     ecut=    60.00 Ry     beta=0.70
     Davidson diagonalization with overlap
     ethr =  2.89E-08,  avg # of iterations =  2.0

     total cpu time spent up to now is       12.1 secs

     total energy              =     -14.47203909 Ry
     Harris-Foulkes estimate   =     -14.47203909 Ry
     estimated scf accuracy    <       0.00000001 Ry

     iteration #  6     ecut=    60.00 Ry     beta=0.70
     Davidson diagonalization with overlap
     ethr =  3.91E-10,  avg # of iterations =  2.4

     total cpu time spent up to now is       12.2 secs

     total energy              =     -14.47203910 Ry
     Harris-Foulkes estimate   =     -14.47203910 Ry
     estimated scf accuracy    <          1.8E-10 Ry

     iteration #  7     ecut=    60.00 Ry     beta=0.70
     Davidson diagonalization with overlap
     ethr =  5.91E-12,  avg # of iterations =  1.7

     total cpu time spent up to now is       12.4 secs

     End of self-consistent calculation

     Number of k-points >= 100: set verbosity='high' to print the bands.

     the Fermi energy is     0.8956 ev

!    total energy              =     -14.47203910 Ry
     Harris-Foulkes estimate   =     -14.47203910 Ry
     estimated scf accuracy    <          6.9E-12 Ry

     The total energy is the sum of the following terms:

     one-electron contribution =      -9.75733436 Ry
     hartree contribution      =       3.67469780 Ry
     xc contribution           =      -3.37453771 Ry
     ewald contribution        =      -5.01476591 Ry
     smearing contrib. (-TS)   =      -0.00009892 Ry

     convergence has been achieved in   7 iterations


     entering subroutine stress ...

          total   stress  (Ry/bohr**3)                   (kbar)     P=   -2.50
  -0.00001703   0.00000000  -0.00000000         -2.50      0.00     -0.00
   0.00000000  -0.00001703  -0.00000000          0.00     -2.50     -0.00
  -0.00000000  -0.00000000  -0.00001703         -0.00     -0.00     -2.50


     Writing output data file li-bcc.save
 
     init_run     :     10.35s CPU     10.44s WALL (       1 calls)
     electrons    :      1.58s CPU      1.66s WALL (       1 calls)
     stress       :      0.13s CPU      0.13s WALL (       1 calls)

     Called by init_run:
     wfcinit      :      0.02s CPU      0.02s WALL (       1 calls)
     potinit      :     10.16s CPU     10.20s WALL (       1 calls)

     Called by electrons:
     c_bands      :      0.40s CPU      0.42s WALL (       7 calls)
     sum_band     :      0.31s CPU      0.33s WALL (       7 calls)
     v_of_rho     :      0.33s CPU      0.34s WALL (       8 calls)
     newd         :      0.15s CPU      0.16s WALL (       8 calls)
     mix_rho      :      0.05s CPU      0.04s WALL (       7 calls)

     Called by c_bands:
     init_us_2    :      0.01s CPU      0.01s WALL (      48 calls)
     cegterg      :      0.32s CPU      0.31s WALL (      21 calls)

     Called by sum_band:
     sum_band:bec :      0.00s CPU      0.00s WALL (      21 calls)
     addusdens    :      0.15s CPU      0.17s WALL (       7 calls)

     Called by *egterg:
     h_psi        :      0.28s CPU      0.29s WALL (      96 calls)
     s_psi        :      0.00s CPU      0.00s WALL (      96 calls)
     g_psi        :      0.00s CPU      0.00s WALL (      72 calls)
     cdiaghg      :      0.02s CPU      0.01s WALL (      93 calls)

     Called by h_psi:
     add_vuspsi   :      0.01s CPU      0.00s WALL (      96 calls)

     General routines
     calbec       :      0.00s CPU      0.00s WALL (     120 calls)
     fft          :      0.22s CPU      0.22s WALL (     129 calls)
     ffts         :      0.01s CPU      0.01s WALL (      15 calls)
     fftw         :      0.28s CPU      0.28s WALL (     864 calls)
     interpolate  :      0.05s CPU      0.04s WALL (      15 calls)
     davcio       :      0.00s CPU      0.00s WALL (       3 calls)
 
     Parallel routines
     fft_scatter  :      0.06s CPU      0.04s WALL (    1008 calls)
 
     PWSCF        :  0m13.26s CPU     1m 8.23s WALL

 
   This run was terminated on:  22:33:50  31May2016            

=------------------------------------------------------------------------------=
   JOB DONE.
=------------------------------------------------------------------------------=
Application 21880388 resources: utime ~19060s, stime ~99s, Rss ~51848, inblocks ~1636059, outblocks ~1281219

     Program PWSCF v.5.2.0 starts on  1Jun2016 at 12:52:53 

     This program is part of the open-source Quantum ESPRESSO suite
     for quantum simulation of materials; please cite
         "P. Giannozzi et al., J. Phys.:Condens. Matter 21 395502 (2009);
          URL http://www.quantum-espresso.org", 
     in publications or presentations arising from this work. More details at
     http://www.quantum-espresso.org/quote

     Parallel version (MPI), running on   288 processors
     K-points division:     npool     =     288
     Waiting for input...
     Reading input from standard input
     Message from routine read_cards :
     DEPRECATED: no units specified in ATOMIC_POSITIONS card
     Message from routine read_cards :
     ATOMIC_POSITIONS: units set to alat

     Current dimensions of program PWSCF are:
     Max number of different atomic species (ntypx) = 10
     Max number of k-points (npk) = 400000
     Max angular momentum in pseudopotentials (lmaxx) =  3

     Subspace diagonalization in iterative solution of the eigenvalue problem:
     a serial algorithm will be used

 
     G-vector sticks info
     --------------------
     sticks:   dense  smooth     PW     G-vecs:    dense   smooth      PW
     Sum        1151     571    173                24835     8685    1505
 


     bravais-lattice index     =            3
     lattice parameter (alat)  =       6.5313  a.u.
     unit-cell volume          =     139.3078 (a.u.)^3
     number of atoms/cell      =            1
     number of atomic types    =            1
     number of electrons       =         3.00
     number of Kohn-Sham states=            6
     kinetic-energy cutoff     =      60.0000  Ry
     charge density cutoff     =     480.0000  Ry
     convergence threshold     =      1.0E-11
     mixing beta               =       0.7000
     number of iterations used =            8  plain     mixing
     Exchange-correlation      =  SLA  PW   PBX  PBC ( 1  4  3  4 0 0)

     celldm(1)=   6.531332  celldm(2)=   0.000000  celldm(3)=   0.000000
     celldm(4)=   0.000000  celldm(5)=   0.000000  celldm(6)=   0.000000

     crystal axes: (cart. coord. in units of alat)
               a(1) = (   0.500000   0.500000   0.500000 )  
               a(2) = (  -0.500000   0.500000   0.500000 )  
               a(3) = (  -0.500000  -0.500000   0.500000 )  

     reciprocal axes: (cart. coord. in units 2 pi/alat)
               b(1) = (  1.000000  0.000000  1.000000 )  
               b(2) = ( -1.000000  1.000000  0.000000 )  
               b(3) = (  0.000000 -1.000000  1.000000 )  


     PseudoPot. # 1 for Li read from file:
     ../Li.pbe-s-gbrv14.UPF
     MD5 check sum: 7ca33c4f951f001da2db5c8738379802
     Pseudo is Ultrasoft, Zval =  3.0
     Generated by new atomic code, or converted to UPF format
     Using radial grid of  751 points,  5 beta functions with: 
                l(1) =   0
                l(2) =   0
                l(3) =   0
                l(4) =   1
                l(5) =   1
     Q(r) pseudized with 10 coefficients,  rinner =    1.150   1.150   1.150


     atomic species   valence    mass     pseudopotential
        Li             3.00     6.94100     Li( 1.00)

     48 Sym. Ops., with inversion, found



   Cartesian axes

     site n.     atom                  positions (alat units)
         1           Li  tau(   1) = (   0.0000000   0.0000000   0.0000000  )

     number of k points=   616  Marzari-Vanderbilt smearing, width (Ry)=  0.0200

     Number of k-points >= 100: set verbosity='high' to print them.

     Dense  grid:    24835 G-vectors     FFT dimensions: (  40,  40,  40)

     Smooth grid:     8685 G-vectors     FFT dimensions: (  27,  27,  27)

     Largest allocated arrays     est. size (Mb)     dimensions
        Kohn-Sham Wavefunctions         0.10 Mb     (    1120,    6)
        NL pseudopotentials             0.15 Mb     (    1120,    9)
        Each V/rho on FFT grid          0.98 Mb     (   64000)
        Each G-vector array             0.19 Mb     (   24835)
        G-vector shells                 0.00 Mb     (     239)
     Largest temporary arrays     est. size (Mb)     dimensions
        Auxiliary wavefunctions         0.41 Mb     (    1120,   24)
        Each subspace H/S matrix        0.01 Mb     (      24,   24)
        Each <psi_i|beta_j> matrix      0.00 Mb     (       9,    6)
        Arrays for rho mixing           7.81 Mb     (   64000,    8)

     Initial potential from superposition of free atoms

     starting charge    2.54926, renormalised to    3.00000
     Starting wfc are    5 randomized atomic wfcs +    1 random wfc

     total cpu time spent up to now is        1.9 secs

     per-process dynamical memory:    19.7 Mb

     Self-consistent Calculation

     iteration #  1     ecut=    60.00 Ry     beta=0.70
     Davidson diagonalization with overlap
     ethr =  1.00E-02,  avg # of iterations =  5.3

     total cpu time spent up to now is        2.2 secs

     total energy              =     -14.46677675 Ry
     Harris-Foulkes estimate   =     -14.58637865 Ry
     estimated scf accuracy    <       0.16471439 Ry

     iteration #  2     ecut=    60.00 Ry     beta=0.70
     Davidson diagonalization with overlap
     ethr =  5.49E-03,  avg # of iterations =  1.0

     total cpu time spent up to now is        2.4 secs

     total energy              =     -14.47028628 Ry
     Harris-Foulkes estimate   =     -14.47586198 Ry
     estimated scf accuracy    <       0.00739998 Ry

     iteration #  3     ecut=    60.00 Ry     beta=0.70
     Davidson diagonalization with overlap
     ethr =  2.47E-04,  avg # of iterations =  2.2

     total cpu time spent up to now is        2.6 secs

     total energy              =     -14.47203151 Ry
     Harris-Foulkes estimate   =     -14.47202654 Ry
     estimated scf accuracy    <       0.00003750 Ry

     iteration #  4     ecut=    60.00 Ry     beta=0.70
     Davidson diagonalization with overlap
     ethr =  1.25E-06,  avg # of iterations =  4.3

     total cpu time spent up to now is        2.8 secs

     total energy              =     -14.47203881 Ry
     Harris-Foulkes estimate   =     -14.47203899 Ry
     estimated scf accuracy    <       0.00000087 Ry

     iteration #  5     ecut=    60.00 Ry     beta=0.70
     Davidson diagonalization with overlap
     ethr =  2.89E-08,  avg # of iterations =  2.0

     total cpu time spent up to now is        3.0 secs

     total energy              =     -14.47203909 Ry
     Harris-Foulkes estimate   =     -14.47203909 Ry
     estimated scf accuracy    <       0.00000001 Ry

     iteration #  6     ecut=    60.00 Ry     beta=0.70
     Davidson diagonalization with overlap
     ethr =  3.91E-10,  avg # of iterations =  2.4

     total cpu time spent up to now is        3.2 secs

     total energy              =     -14.47203910 Ry
     Harris-Foulkes estimate   =     -14.47203910 Ry
     estimated scf accuracy    <          1.8E-10 Ry

     iteration #  7     ecut=    60.00 Ry     beta=0.70
     Davidson diagonalization with overlap
     ethr =  5.91E-12,  avg # of iterations =  1.7

     total cpu time spent up to now is        3.3 secs

     End of self-consistent calculation

     Number of k-points >= 100: set verbosity='high' to print the bands.

     the Fermi energy is     0.8956 ev

!    total energy              =     -14.47203910 Ry
     Harris-Foulkes estimate   =     -14.47203910 Ry
     estimated scf accuracy    <          6.9E-12 Ry

     The total energy is the sum of the following terms:

     one-electron contribution =      -9.75733436 Ry
     hartree contribution      =       3.67469780 Ry
     xc contribution           =      -3.37453771 Ry
     ewald contribution        =      -5.01476591 Ry
     smearing contrib. (-TS)   =      -0.00009892 Ry

     convergence has been achieved in   7 iterations


     entering subroutine stress ...

          total   stress  (Ry/bohr**3)                   (kbar)     P=   -2.50
  -0.00001703  -0.00000000   0.00000000         -2.50     -0.00      0.00
  -0.00000000  -0.00001703  -0.00000000         -0.00     -2.50     -0.00
   0.00000000  -0.00000000  -0.00001703          0.00     -0.00     -2.50


     Writing output data file li-bcc.save
 
     init_run     :      1.21s CPU      1.29s WALL (       1 calls)
     electrons    :      1.35s CPU      1.43s WALL (       1 calls)
     stress       :      0.13s CPU      0.13s WALL (       1 calls)

     Called by init_run:
     wfcinit      :      0.01s CPU      0.05s WALL (       1 calls)
     potinit      :      1.01s CPU      1.02s WALL (       1 calls)

     Called by electrons:
     c_bands      :      0.40s CPU      0.42s WALL (       7 calls)
     sum_band     :      0.34s CPU      0.34s WALL (       7 calls)
     v_of_rho     :      0.35s CPU      0.35s WALL (       8 calls)
     newd         :      0.15s CPU      0.16s WALL (       8 calls)
     mix_rho      :      0.04s CPU      0.04s WALL (       7 calls)

     Called by c_bands:
     init_us_2    :      0.02s CPU      0.01s WALL (      48 calls)
     cegterg      :      0.33s CPU      0.33s WALL (      21 calls)

     Called by sum_band:
     sum_band:bec :      0.00s CPU      0.00s WALL (      21 calls)
     addusdens    :      0.15s CPU      0.17s WALL (       7 calls)

     Called by *egterg:
     h_psi        :      0.30s CPU      0.30s WALL (      96 calls)
     s_psi        :      0.00s CPU      0.00s WALL (      96 calls)
     g_psi        :      0.00s CPU      0.00s WALL (      72 calls)
     cdiaghg      :      0.01s CPU      0.01s WALL (      93 calls)

     Called by h_psi:
     add_vuspsi   :      0.00s CPU      0.01s WALL (      96 calls)

     General routines
     calbec       :      0.00s CPU      0.00s WALL (     120 calls)
     fft          :      0.23s CPU      0.23s WALL (     129 calls)
     ffts         :      0.00s CPU      0.01s WALL (      15 calls)
     fftw         :      0.30s CPU      0.29s WALL (     864 calls)
     interpolate  :      0.05s CPU      0.04s WALL (      15 calls)
     davcio       :      0.00s CPU      0.06s WALL (       3 calls)
 
     Parallel routines
     fft_scatter  :      0.05s CPU      0.05s WALL (    1008 calls)
 
     PWSCF        :     4.88s CPU        52.04s WALL

 
   This run was terminated on:  12:53:45   1Jun2016            

=------------------------------------------------------------------------------=
   JOB DONE.
=------------------------------------------------------------------------------=
Application 21887863 resources: utime ~14858s, stime ~80s, Rss ~51828, inblocks ~1632037, outblocks ~1281219
