
     Program PHONON v.5.2.0 starts on 31May2016 at 22:33:58 

     This program is part of the open-source Quantum ESPRESSO suite
     for quantum simulation of materials; please cite
         "P. Giannozzi et al., J. Phys.:Condens. Matter 21 395502 (2009);
          URL http://www.quantum-espresso.org", 
     in publications or presentations arising from this work. More details at
     http://www.quantum-espresso.org/quote

     Parallel version (MPI), running on   288 processors
     K-points division:     npool     =     288

     Reading data from directory:
     ./tmp/li-bcc.save

   Info: using nr1, nr2, nr3 values from input

   Info: using nr1, nr2, nr3 values from input

     IMPORTANT: XC functional enforced from input :
     Exchange-correlation      =  SLA  PW   PBX  PBC ( 1  4  3  4 0 0)
     Any further DFT definition will be discarded
     Please, verify this is what you really want

 
     G-vector sticks info
     --------------------
     sticks:   dense  smooth     PW     G-vecs:    dense   smooth      PW
     Sum        1151     571    173                24835     8685    1505
 


     Dynamical matrices for (10,10,10)  uniform grid of q-points
     (  47q-points):
       N         xq(1)         xq(2)         xq(3) 
       1   0.000000000   0.000000000   0.000000000
       2   0.000000000  -0.100000000   0.100000000
       3   0.000000000  -0.200000000   0.200000000
       4   0.000000000  -0.300000000   0.300000000
       5   0.000000000  -0.400000000   0.400000000
       6   0.000000000   0.500000000  -0.500000000
       7  -0.100000000  -0.100000000   0.200000000
       8  -0.100000000  -0.200000000   0.300000000
       9  -0.100000000  -0.300000000   0.400000000
      10  -0.100000000   0.600000000  -0.500000000
      11  -0.200000000  -0.200000000   0.400000000
      12  -0.200000000   0.700000000  -0.500000000
      13  -0.200000000   0.600000000  -0.400000000
      14  -0.300000000   0.700000000  -0.400000000
      15   0.000000000   0.000000000   0.200000000
      16   0.000000000  -0.100000000   0.300000000
      17   0.000000000  -0.200000000   0.400000000
      18   0.000000000  -0.300000000   0.500000000
      19   0.000000000   0.600000000  -0.400000000
      20  -0.100000000  -0.100000000   0.400000000
      21  -0.100000000  -0.200000000   0.500000000
      22  -0.100000000   0.700000000  -0.400000000
      23  -0.200000000   0.200000000   0.200000000
      24  -0.200000000   0.800000000  -0.400000000
      25  -0.200000000   0.700000000  -0.300000000
      26  -0.300000000   0.300000000   0.200000000
      27   0.600000000  -0.600000000   0.200000000
      28   0.600000000  -0.700000000   0.300000000
      29   0.500000000  -0.500000000   0.200000000
      30   0.500000000  -0.600000000   0.300000000
      31   0.400000000  -0.600000000   0.400000000
      32   0.000000000   0.000000000   0.400000000
      33   0.000000000  -0.100000000   0.500000000
      34   0.000000000  -0.200000000   0.600000000
      35   0.000000000   0.700000000  -0.300000000
      36  -0.100000000  -0.100000000   0.600000000
      37  -0.100000000   0.800000000  -0.300000000
      38  -0.200000000   0.800000000  -0.200000000
      39   0.600000000  -0.600000000   0.400000000
      40   0.500000000  -0.500000000   0.400000000
      41   0.000000000   0.000000000   0.600000000
      42   0.000000000  -0.100000000   0.700000000
      43   0.000000000   0.800000000  -0.200000000
      44  -0.100000000   0.900000000  -0.200000000
      45   0.000000000   0.000000000   0.800000000
      46   0.000000000   0.900000000  -0.100000000
      47   0.000000000   0.000000000  -1.000000000

     Calculation of q =    0.0000000   0.0000000   0.0000000

                                                                                

     bravais-lattice index     =            3
     lattice parameter (alat)  =       6.5313  a.u.
     unit-cell volume          =     139.3078 (a.u.)^3
     number of atoms/cell      =            1
     number of atomic types    =            1
     kinetic-energy cut-off    =      60.0000  Ry
     charge density cut-off    =     480.0000  Ry
     convergence threshold     =      1.0E-16
     beta                      =       0.7000
     number of iterations used =            4
     Exchange-correlation      =  SLA  PW   PBX  PBC ( 1  4  3  4 0 0)


     celldm(1)=    6.53133  celldm(2)=    0.00000  celldm(3)=    0.00000
     celldm(4)=    0.00000  celldm(5)=    0.00000  celldm(6)=    0.00000

     crystal axes: (cart. coord. in units of alat)
               a(1) = (  0.5000  0.5000  0.5000 )  
               a(2) = ( -0.5000  0.5000  0.5000 )  
               a(3) = ( -0.5000 -0.5000  0.5000 )  

     reciprocal axes: (cart. coord. in units 2 pi/alat)
               b(1) = (  1.0000  0.0000  1.0000 )  
               b(2) = ( -1.0000  1.0000  0.0000 )  
               b(3) = (  0.0000 -1.0000  1.0000 )  


     Atoms inside the unit cell: 

     Cartesian axes

     site n.  atom      mass           positions (alat units)
        1     Li   6.9410   tau(    1) = (    0.00000    0.00000    0.00000  )

     Computing dynamical matrix for 
                    q = (   0.0000000   0.0000000   0.0000000 )
 
     49 Sym.Ops. (with q -> -q+G )


     G cutoff =  518.6627  (  24835 G-vectors)     FFT grid: ( 40, 40, 40)
     G cutoff =  259.3314  (   8685 G-vectors)  smooth grid: ( 27, 27, 27)

     number of k points=   616  Marzari-Vanderbilt smearing, width (Ry)=  0.0200

     PseudoPot. # 1 for Li read from file:
     ../Li.pbe-s-gbrv14.UPF
     MD5 check sum: 7ca33c4f951f001da2db5c8738379802
     Pseudo is Ultrasoft, Zval =  3.0
     Generated by new atomic code, or converted to UPF format
     Using radial grid of  751 points,  5 beta functions with: 
                l(1) =   0
                l(2) =   0
                l(3) =   0
                l(4) =   1
                l(5) =   1
     Q(r) pseudized with 10 coefficients,  rinner =    1.150   1.150   1.150


     Mode symmetry, O_h (m-3m)  point group:


     Atomic displacements:
     There are   1 irreducible representations

     Representation     1      3 modes -T_1u G_15  G_4-  To be done



     Alpha used in Ewald sum =   2.8000
     PHONON       :     6.46s CPU        16.59s WALL



     Representation #  1 modes #   1  2  3

     Self-consistent Calculation
 
     Pert. #  1: Fermi energy shift (Ry) =    -1.7233E-26    -9.4040E-38
     Pert. #  2: Fermi energy shift (Ry) =     1.0340E-25     8.7770E-37
     Pert. #  3: Fermi energy shift (Ry) =     2.2403E-25     3.7616E-37

      iter #   1 total cpu time :    17.4 secs   av.it.:   5.2
      thresh= 1.000E-02 alpha_mix =  0.700 |ddv_scf|^2 =  1.093E-07
 
     Pert. #  1: Fermi energy shift (Ry) =    -1.9387E-26     1.6530E-39
     Pert. #  2: Fermi energy shift (Ry) =    -8.6165E-27     1.9592E-39
     Pert. #  3: Fermi energy shift (Ry) =    -1.9387E-26    -8.5713E-40

      iter #   2 total cpu time :    18.5 secs   av.it.:   9.4
      thresh= 3.307E-05 alpha_mix =  0.700 |ddv_scf|^2 =  6.759E-09
 
     Pert. #  1: Fermi energy shift (Ry) =     1.1632E-25    -3.5204E-40
     Pert. #  2: Fermi energy shift (Ry) =    -7.7548E-26     1.5306E-40
     Pert. #  3: Fermi energy shift (Ry) =     8.6165E-27     9.5662E-42

      iter #   3 total cpu time :    19.8 secs   av.it.:   9.6
      thresh= 8.222E-06 alpha_mix =  0.700 |ddv_scf|^2 =  4.563E-11
 
     Pert. #  1: Fermi energy shift (Ry) =    -5.6007E-26    -2.5829E-41
     Pert. #  2: Fermi energy shift (Ry) =     8.6165E-27     9.5662E-42
     Pert. #  3: Fermi energy shift (Ry) =     9.4781E-26     4.9744E-41

      iter #   4 total cpu time :    20.6 secs   av.it.:   9.4
      thresh= 6.755E-07 alpha_mix =  0.700 |ddv_scf|^2 =  1.145E-13
 
     Pert. #  1: Fermi energy shift (Ry) =     9.9089E-26    -2.8699E-42
     Pert. #  2: Fermi energy shift (Ry) =     0.0000E+00     1.9132E-42
     Pert. #  3: Fermi energy shift (Ry) =     3.0158E-26     1.6741E-42

      iter #   5 total cpu time :    21.6 secs   av.it.:   9.0
      thresh= 3.385E-08 alpha_mix =  0.700 |ddv_scf|^2 =  1.703E-15
 
     Pert. #  1: Fermi energy shift (Ry) =     1.0340E-25    -2.8699E-42
     Pert. #  2: Fermi energy shift (Ry) =    -8.6165E-27     1.9132E-42
     Pert. #  3: Fermi energy shift (Ry) =     7.7548E-26     1.6741E-42

      iter #   6 total cpu time :    30.3 secs   av.it.:   8.5
      thresh= 4.127E-09 alpha_mix =  0.700 |ddv_scf|^2 =  6.674E-19

     End of self-consistent calculation

     Convergence has been achieved 
 
     Number of q in the star =    1
     List of q in the star:
          1   0.000000000   0.000000000   0.000000000

     Diagonalizing the dynamical matrix

     q = (    0.000000000   0.000000000   0.000000000 ) 

 **************************************************************************
     freq (    1) =       0.270128 [THz] =       9.010515 [cm-1]
     freq (    2) =       0.270128 [THz] =       9.010515 [cm-1]
     freq (    3) =       0.270128 [THz] =       9.010515 [cm-1]
 **************************************************************************

     Mode symmetry, O_h (m-3m)  point group:

     freq (  1 -  3) =          9.0  [cm-1]   --> T_1u G_15  G_4- I  

     Calculation of q =    0.0000000  -0.1000000   0.1000000
 
     G-vector sticks info
     --------------------
     sticks:   dense  smooth     PW     G-vecs:    dense   smooth      PW
     Sum        1151     571    181                24835     8685    1553
 


     bravais-lattice index     =            3
     lattice parameter (alat)  =       6.5313  a.u.
     unit-cell volume          =     139.3078 (a.u.)^3
     number of atoms/cell      =            1
     number of atomic types    =            1
     number of electrons       =         3.00
     number of Kohn-Sham states=            6
     kinetic-energy cutoff     =      60.0000  Ry
     charge density cutoff     =     480.0000  Ry
     Exchange-correlation      =  SLA  PW   PBX  PBC ( 1  4  3  4 0 0)

     celldm(1)=   6.531332  celldm(2)=   0.000000  celldm(3)=   0.000000
     celldm(4)=   0.000000  celldm(5)=   0.000000  celldm(6)=   0.000000

     crystal axes: (cart. coord. in units of alat)
               a(1) = (   0.500000   0.500000   0.500000 )  
               a(2) = (  -0.500000   0.500000   0.500000 )  
               a(3) = (  -0.500000  -0.500000   0.500000 )  

     reciprocal axes: (cart. coord. in units 2 pi/alat)
               b(1) = (  1.000000  0.000000  1.000000 )  
               b(2) = ( -1.000000  1.000000  0.000000 )  
               b(3) = (  0.000000 -1.000000  1.000000 )  


     PseudoPot. # 1 for Li read from file:
     ../Li.pbe-s-gbrv14.UPF
     MD5 check sum: 7ca33c4f951f001da2db5c8738379802
     Pseudo is Ultrasoft, Zval =  3.0
     Generated by new atomic code, or converted to UPF format
     Using radial grid of  751 points,  5 beta functions with: 
                l(1) =   0
                l(2) =   0
                l(3) =   0
                l(4) =   1
                l(5) =   1
     Q(r) pseudized with 10 coefficients,  rinner =    1.150   1.150   1.150


     atomic species   valence    mass     pseudopotential
        Li             3.00     6.94100     Li( 1.00)

     48 Sym. Ops., with inversion, found



   Cartesian axes

     site n.     atom                  positions (alat units)
         1           Li  tau(   1) = (   0.0000000   0.0000000   0.0000000  )

     number of k points= 11760  Marzari-Vanderbilt smearing, width (Ry)=  0.0200

     Number of k-points >= 100: set verbosity='high' to print them.

     Dense  grid:    24835 G-vectors     FFT dimensions: (  40,  40,  40)

     Smooth grid:     8685 G-vectors     FFT dimensions: (  27,  27,  27)

     Largest allocated arrays     est. size (Mb)     dimensions
        Kohn-Sham Wavefunctions         0.10 Mb     (    1121,    6)
        NL pseudopotentials             0.15 Mb     (    1121,    9)
        Each V/rho on FFT grid          0.98 Mb     (   64000)
        Each G-vector array             0.19 Mb     (   24835)
        G-vector shells                 0.00 Mb     (     239)
     Largest temporary arrays     est. size (Mb)     dimensions
        Auxiliary wavefunctions         0.41 Mb     (    1121,   24)
        Each subspace H/S matrix        0.01 Mb     (      24,   24)
        Each <psi_i|beta_j> matrix      0.00 Mb     (       9,    6)

     The potential is recalculated from file :
     ./tmp/_ph0/li-bcc.save/charge-density.dat

     Starting wfc are    5 atomic +    1 random wfc

     Band Structure Calculation
     Davidson diagonalization with overlap

     ethr =  3.33E-10,  avg # of iterations = 17.4

     total cpu time spent up to now is       11.2 secs

     End of band structure calculation

     Number of k-points >= 100: set verbosity='high' to print the bands.

     the Fermi energy is     0.8956 ev

                                                                                

     bravais-lattice index     =            3
     lattice parameter (alat)  =       6.5313  a.u.
     unit-cell volume          =     139.3078 (a.u.)^3
     number of atoms/cell      =            1
     number of atomic types    =            1
     kinetic-energy cut-off    =      60.0000  Ry
     charge density cut-off    =     480.0000  Ry
     convergence threshold     =      1.0E-16
     beta                      =       0.7000
     number of iterations used =            4
     Exchange-correlation      =  SLA  PW   PBX  PBC ( 1  4  3  4 0 0)


     celldm(1)=    6.53133  celldm(2)=    0.00000  celldm(3)=    0.00000
     celldm(4)=    0.00000  celldm(5)=    0.00000  celldm(6)=    0.00000

     crystal axes: (cart. coord. in units of alat)
               a(1) = (  0.5000  0.5000  0.5000 )  
               a(2) = ( -0.5000  0.5000  0.5000 )  
               a(3) = ( -0.5000 -0.5000  0.5000 )  

     reciprocal axes: (cart. coord. in units 2 pi/alat)
               b(1) = (  1.0000  0.0000  1.0000 )  
               b(2) = ( -1.0000  1.0000  0.0000 )  
               b(3) = (  0.0000 -1.0000  1.0000 )  


     Atoms inside the unit cell: 

     Cartesian axes

     site n.  atom      mass           positions (alat units)
        1     Li   6.9410   tau(    1) = (    0.00000    0.00000    0.00000  )

     Computing dynamical matrix for 
                    q = (   0.0000000  -0.1000000   0.1000000 )
 
      4 Sym.Ops. (no q -> -q+G )


     G cutoff =  518.6627  (  24835 G-vectors)     FFT grid: ( 40, 40, 40)
     G cutoff =  259.3314  (   8685 G-vectors)  smooth grid: ( 27, 27, 27)

     number of k points= 11760  Marzari-Vanderbilt smearing, width (Ry)=  0.0200

     PseudoPot. # 1 for Li read from file:
     ../Li.pbe-s-gbrv14.UPF
     MD5 check sum: 7ca33c4f951f001da2db5c8738379802
     Pseudo is Ultrasoft, Zval =  3.0
     Generated by new atomic code, or converted to UPF format
     Using radial grid of  751 points,  5 beta functions with: 
                l(1) =   0
                l(2) =   0
                l(3) =   0
                l(4) =   1
                l(5) =   1
     Q(r) pseudized with 10 coefficients,  rinner =    1.150   1.150   1.150


     Mode symmetry, C_2v (mm2)  point group:


     Atomic displacements:
     There are   3 irreducible representations

     Representation     1      1 modes -A_1  D_1  S_1  To be done

     Representation     2      1 modes -B_1  D_3  S_3  To be done

     Representation     3      1 modes -B_2  D_4  S_4  To be done



     Alpha used in Ewald sum =   2.8000
     PHONON       :  0m52.14s CPU     1m10.09s WALL



     Representation #  1 mode #   1

     Self-consistent Calculation

      iter #   1 total cpu time :    70.7 secs   av.it.:   6.3
      thresh= 1.000E-02 alpha_mix =  0.700 |ddv_scf|^2 =  2.459E-01

      iter #   2 total cpu time :    73.6 secs   av.it.:   8.2
      thresh= 1.000E-02 alpha_mix =  0.700 |ddv_scf|^2 =  4.681E+02

      iter #   3 total cpu time :    82.2 secs   av.it.:   8.1
      thresh= 1.000E-02 alpha_mix =  0.700 |ddv_scf|^2 =  8.682E-03

      iter #   4 total cpu time :    86.8 secs   av.it.:   3.6
      thresh= 9.318E-03 alpha_mix =  0.700 |ddv_scf|^2 =  1.424E-07

      iter #   5 total cpu time :    94.1 secs   av.it.:   7.9
      thresh= 3.774E-05 alpha_mix =  0.700 |ddv_scf|^2 =  9.156E-09

      iter #   6 total cpu time :    96.0 secs   av.it.:   7.7
      thresh= 9.568E-06 alpha_mix =  0.700 |ddv_scf|^2 =  6.773E-08

      iter #   7 total cpu time :    96.5 secs   av.it.:   3.3
      thresh= 2.602E-05 alpha_mix =  0.700 |ddv_scf|^2 =  6.303E-10

      iter #   8 total cpu time :    97.1 secs   av.it.:   6.3
      thresh= 2.511E-06 alpha_mix =  0.700 |ddv_scf|^2 =  6.347E-12

      iter #   9 total cpu time :    97.8 secs   av.it.:   7.1
      thresh= 2.519E-07 alpha_mix =  0.700 |ddv_scf|^2 =  1.385E-14

      iter #  10 total cpu time :    98.4 secs   av.it.:   8.8
      thresh= 1.177E-08 alpha_mix =  0.700 |ddv_scf|^2 =  3.075E-15

      iter #  11 total cpu time :    98.9 secs   av.it.:   6.2
      thresh= 5.545E-09 alpha_mix =  0.700 |ddv_scf|^2 =  8.661E-17

     End of self-consistent calculation

     Convergence has been achieved 


     Representation #  2 mode #   2

     Self-consistent Calculation

      iter #   1 total cpu time :   100.4 secs   av.it.:   5.2
      thresh= 1.000E-02 alpha_mix =  0.700 |ddv_scf|^2 =  9.873E-07

      iter #   2 total cpu time :   101.1 secs   av.it.:   8.5
      thresh= 9.936E-05 alpha_mix =  0.700 |ddv_scf|^2 =  6.089E-08

      iter #   3 total cpu time :   113.2 secs   av.it.:   8.9
      thresh= 2.468E-05 alpha_mix =  0.700 |ddv_scf|^2 =  4.278E-10

      iter #   4 total cpu time :   115.1 secs   av.it.:   8.3
      thresh= 2.068E-06 alpha_mix =  0.700 |ddv_scf|^2 =  9.970E-13

      iter #   5 total cpu time :   116.2 secs   av.it.:   8.2
      thresh= 9.985E-08 alpha_mix =  0.700 |ddv_scf|^2 =  1.454E-14

      iter #   6 total cpu time :   119.1 secs   av.it.:   7.3
      thresh= 1.206E-08 alpha_mix =  0.700 |ddv_scf|^2 =  6.511E-18

     End of self-consistent calculation

     Convergence has been achieved 


     Representation #  3 mode #   3

     Self-consistent Calculation

      iter #   1 total cpu time :   121.3 secs   av.it.:   5.2
      thresh= 1.000E-02 alpha_mix =  0.700 |ddv_scf|^2 =  9.986E-07

      iter #   2 total cpu time :   122.7 secs   av.it.:   8.5
      thresh= 9.993E-05 alpha_mix =  0.700 |ddv_scf|^2 =  6.142E-08

      iter #   3 total cpu time :   123.5 secs   av.it.:   8.9
      thresh= 2.478E-05 alpha_mix =  0.700 |ddv_scf|^2 =  4.857E-10

      iter #   4 total cpu time :   124.1 secs   av.it.:   8.3
      thresh= 2.204E-06 alpha_mix =  0.700 |ddv_scf|^2 =  9.989E-13

      iter #   5 total cpu time :   125.6 secs   av.it.:   8.2
      thresh= 9.995E-08 alpha_mix =  0.700 |ddv_scf|^2 =  1.543E-14

      iter #   6 total cpu time :   136.8 secs   av.it.:   7.5
      thresh= 1.242E-08 alpha_mix =  0.700 |ddv_scf|^2 =  5.950E-18

     End of self-consistent calculation

     Convergence has been achieved 
 
     Number of q in the star =   12
     List of q in the star:
          1   0.000000000  -0.100000000   0.100000000
          2  -0.100000000   0.000000000   0.100000000
          3   0.100000000   0.000000000   0.100000000
          4   0.000000000   0.100000000   0.100000000
          5   0.100000000   0.100000000   0.000000000
          6  -0.100000000   0.100000000   0.000000000
          7   0.100000000  -0.100000000   0.000000000
          8  -0.100000000  -0.100000000   0.000000000
          9  -0.100000000   0.000000000  -0.100000000
         10   0.000000000   0.100000000  -0.100000000
         11   0.000000000  -0.100000000  -0.100000000
         12   0.100000000   0.000000000  -0.100000000

     Diagonalizing the dynamical matrix

     q = (    0.000000000  -0.100000000   0.100000000 ) 

 **************************************************************************
     freq (    1) =       0.506013 [THz] =      16.878762 [cm-1]
     freq (    2) =       1.789249 [THz] =      59.682926 [cm-1]
     freq (    3) =       2.683985 [THz] =      89.528086 [cm-1]
 **************************************************************************

     Mode symmetry, C_2v (mm2)  point group:

     freq (  1 -  1) =         16.9  [cm-1]   --> B_1  D_3  S_3      
     freq (  2 -  2) =         59.7  [cm-1]   --> B_2  D_4  S_4      
     freq (  3 -  3) =         89.5  [cm-1]   --> A_1  D_1  S_1      

     Calculation of q =    0.0000000  -0.2000000   0.2000000
 
     G-vector sticks info
     --------------------
     sticks:   dense  smooth     PW     G-vecs:    dense   smooth      PW
     Sum        1151     571    197                24835     8685    1721
 


     bravais-lattice index     =            3
     lattice parameter (alat)  =       6.5313  a.u.
     unit-cell volume          =     139.3078 (a.u.)^3
     number of atoms/cell      =            1
     number of atomic types    =            1
     number of electrons       =         3.00
     number of Kohn-Sham states=            6
     kinetic-energy cutoff     =      60.0000  Ry
     charge density cutoff     =     480.0000  Ry
     Exchange-correlation      =  SLA  PW   PBX  PBC ( 1  4  3  4 0 0)

     celldm(1)=   6.531332  celldm(2)=   0.000000  celldm(3)=   0.000000
     celldm(4)=   0.000000  celldm(5)=   0.000000  celldm(6)=   0.000000

     crystal axes: (cart. coord. in units of alat)
               a(1) = (   0.500000   0.500000   0.500000 )  
               a(2) = (  -0.500000   0.500000   0.500000 )  
               a(3) = (  -0.500000  -0.500000   0.500000 )  

     reciprocal axes: (cart. coord. in units 2 pi/alat)
               b(1) = (  1.000000  0.000000  1.000000 )  
               b(2) = ( -1.000000  1.000000  0.000000 )  
               b(3) = (  0.000000 -1.000000  1.000000 )  


     PseudoPot. # 1 for Li read from file:
     ../Li.pbe-s-gbrv14.UPF
     MD5 check sum: 7ca33c4f951f001da2db5c8738379802
     Pseudo is Ultrasoft, Zval =  3.0
     Generated by new atomic code, or converted to UPF format
     Using radial grid of  751 points,  5 beta functions with: 
                l(1) =   0
                l(2) =   0
                l(3) =   0
                l(4) =   1
                l(5) =   1
     Q(r) pseudized with 10 coefficients,  rinner =    1.150   1.150   1.150


     atomic species   valence    mass     pseudopotential
        Li             3.00     6.94100     Li( 1.00)

     48 Sym. Ops., with inversion, found



   Cartesian axes

     site n.     atom                  positions (alat units)
         1           Li  tau(   1) = (   0.0000000   0.0000000   0.0000000  )

     number of k points= 11760  Marzari-Vanderbilt smearing, width (Ry)=  0.0200

     Number of k-points >= 100: set verbosity='high' to print them.

     Dense  grid:    24835 G-vectors     FFT dimensions: (  40,  40,  40)

     Smooth grid:     8685 G-vectors     FFT dimensions: (  27,  27,  27)

     Largest allocated arrays     est. size (Mb)     dimensions
        Kohn-Sham Wavefunctions         0.10 Mb     (    1120,    6)
        NL pseudopotentials             0.15 Mb     (    1120,    9)
        Each V/rho on FFT grid          0.98 Mb     (   64000)
        Each G-vector array             0.19 Mb     (   24835)
        G-vector shells                 0.00 Mb     (     239)
     Largest temporary arrays     est. size (Mb)     dimensions
        Auxiliary wavefunctions         0.41 Mb     (    1120,   24)
        Each subspace H/S matrix        0.01 Mb     (      24,   24)
        Each <psi_i|beta_j> matrix      0.00 Mb     (       9,    6)

     The potential is recalculated from file :
     ./tmp/_ph0/li-bcc.save/charge-density.dat

     Starting wfc are    5 atomic +    1 random wfc

     Band Structure Calculation
     Davidson diagonalization with overlap

     ethr =  3.33E-10,  avg # of iterations = 17.4

     total cpu time spent up to now is       25.0 secs

     End of band structure calculation

     Number of k-points >= 100: set verbosity='high' to print the bands.

     the Fermi energy is     0.8956 ev

                                                                                

     bravais-lattice index     =            3
     lattice parameter (alat)  =       6.5313  a.u.
     unit-cell volume          =     139.3078 (a.u.)^3
     number of atoms/cell      =            1
     number of atomic types    =            1
     kinetic-energy cut-off    =      60.0000  Ry
     charge density cut-off    =     480.0000  Ry
     convergence threshold     =      1.0E-16
     beta                      =       0.7000
     number of iterations used =            4
     Exchange-correlation      =  SLA  PW   PBX  PBC ( 1  4  3  4 0 0)


     celldm(1)=    6.53133  celldm(2)=    0.00000  celldm(3)=    0.00000
     celldm(4)=    0.00000  celldm(5)=    0.00000  celldm(6)=    0.00000

     crystal axes: (cart. coord. in units of alat)
               a(1) = (  0.5000  0.5000  0.5000 )  
               a(2) = ( -0.5000  0.5000  0.5000 )  
               a(3) = ( -0.5000 -0.5000  0.5000 )  

     reciprocal axes: (cart. coord. in units 2 pi/alat)
               b(1) = (  1.0000  0.0000  1.0000 )  
               b(2) = ( -1.0000  1.0000  0.0000 )  
               b(3) = (  0.0000 -1.0000  1.0000 )  


     Atoms inside the unit cell: 

     Cartesian axes

     site n.  atom      mass           positions (alat units)
        1     Li   6.9410   tau(    1) = (    0.00000    0.00000    0.00000  )

     Computing dynamical matrix for 
                    q = (   0.0000000  -0.2000000   0.2000000 )
 
      4 Sym.Ops. (no q -> -q+G )


     G cutoff =  518.6627  (  24835 G-vectors)     FFT grid: ( 40, 40, 40)
     G cutoff =  259.3314  (   8685 G-vectors)  smooth grid: ( 27, 27, 27)

     number of k points= 11760  Marzari-Vanderbilt smearing, width (Ry)=  0.0200

     PseudoPot. # 1 for Li read from file:
     ../Li.pbe-s-gbrv14.UPF
     MD5 check sum: 7ca33c4f951f001da2db5c8738379802
     Pseudo is Ultrasoft, Zval =  3.0
     Generated by new atomic code, or converted to UPF format
     Using radial grid of  751 points,  5 beta functions with: 
                l(1) =   0
                l(2) =   0
                l(3) =   0
                l(4) =   1
                l(5) =   1
     Q(r) pseudized with 10 coefficients,  rinner =    1.150   1.150   1.150


     Mode symmetry, C_2v (mm2)  point group:


     Atomic displacements:
     There are   3 irreducible representations

     Representation     1      1 modes -A_1  D_1  S_1  To be done

     Representation     2      1 modes -B_1  D_3  S_3  To be done

     Representation     3      1 modes -B_2  D_4  S_4  To be done



     Alpha used in Ewald sum =   2.8000
     PHONON       :  2m11.54s CPU     2m35.33s WALL



     Representation #  1 mode #   1

     Self-consistent Calculation

      iter #   1 total cpu time :   155.9 secs   av.it.:   6.3
      thresh= 1.000E-02 alpha_mix =  0.700 |ddv_scf|^2 =  3.345E-03

      iter #   2 total cpu time :   158.8 secs   av.it.:   7.4
      thresh= 5.784E-03 alpha_mix =  0.700 |ddv_scf|^2 =  3.183E-01

      iter #   3 total cpu time :   161.1 secs   av.it.:   6.8
      thresh= 1.000E-02 alpha_mix =  0.700 |ddv_scf|^2 =  5.400E-08

      iter #   4 total cpu time :   164.5 secs   av.it.:   9.1
      thresh= 2.324E-05 alpha_mix =  0.700 |ddv_scf|^2 =  1.038E-08

      iter #   5 total cpu time :   167.2 secs   av.it.:   8.6
      thresh= 1.019E-05 alpha_mix =  0.700 |ddv_scf|^2 =  2.127E-10

      iter #   6 total cpu time :   168.3 secs   av.it.:   8.1
      thresh= 1.459E-06 alpha_mix =  0.700 |ddv_scf|^2 =  2.416E-13

      iter #   7 total cpu time :   169.0 secs   av.it.:   9.5
      thresh= 4.916E-08 alpha_mix =  0.700 |ddv_scf|^2 =  5.111E-12

      iter #   8 total cpu time :   177.7 secs   av.it.:   6.1
      thresh= 2.261E-07 alpha_mix =  0.700 |ddv_scf|^2 =  2.072E-13

      iter #   9 total cpu time :   183.4 secs   av.it.:   7.9
      thresh= 4.552E-08 alpha_mix =  0.700 |ddv_scf|^2 =  3.325E-14

      iter #  10 total cpu time :   187.6 secs   av.it.:   6.7
      thresh= 1.823E-08 alpha_mix =  0.700 |ddv_scf|^2 =  1.639E-17

     End of self-consistent calculation

     Convergence has been achieved 


     Representation #  2 mode #   2

     Self-consistent Calculation

      iter #   1 total cpu time :   201.9 secs   av.it.:   5.3
      thresh= 1.000E-02 alpha_mix =  0.700 |ddv_scf|^2 =  9.969E-07

      iter #   2 total cpu time :   203.3 secs   av.it.:   8.5
      thresh= 9.985E-05 alpha_mix =  0.700 |ddv_scf|^2 =  6.102E-08

      iter #   3 total cpu time :   206.1 secs   av.it.:   9.0
      thresh= 2.470E-05 alpha_mix =  0.700 |ddv_scf|^2 =  4.826E-10

      iter #   4 total cpu time :   208.2 secs   av.it.:   8.3
      thresh= 2.197E-06 alpha_mix =  0.700 |ddv_scf|^2 =  9.449E-13

      iter #   5 total cpu time :   209.8 secs   av.it.:   8.3
      thresh= 9.721E-08 alpha_mix =  0.700 |ddv_scf|^2 =  1.503E-14

      iter #   6 total cpu time :   210.6 secs   av.it.:   6.3
      thresh= 1.226E-08 alpha_mix =  0.700 |ddv_scf|^2 =  7.821E-18

     End of self-consistent calculation

     Convergence has been achieved 


     Representation #  3 mode #   3

     Self-consistent Calculation

      iter #   1 total cpu time :   213.2 secs   av.it.:   5.4
      thresh= 1.000E-02 alpha_mix =  0.700 |ddv_scf|^2 =  1.038E-06

      iter #   2 total cpu time :   220.5 secs   av.it.:   8.5
      thresh= 1.019E-04 alpha_mix =  0.700 |ddv_scf|^2 =  6.312E-08

      iter #   3 total cpu time :   234.0 secs   av.it.:   8.9
      thresh= 2.512E-05 alpha_mix =  0.700 |ddv_scf|^2 =  7.132E-10

      iter #   4 total cpu time :   235.7 secs   av.it.:   8.3
      thresh= 2.671E-06 alpha_mix =  0.700 |ddv_scf|^2 =  1.076E-12

      iter #   5 total cpu time :   236.5 secs   av.it.:   8.3
      thresh= 1.037E-07 alpha_mix =  0.700 |ddv_scf|^2 =  1.833E-14

      iter #   6 total cpu time :   237.1 secs   av.it.:   7.0
      thresh= 1.354E-08 alpha_mix =  0.700 |ddv_scf|^2 =  5.918E-18

     End of self-consistent calculation

     Convergence has been achieved 
 
     Number of q in the star =   12
     List of q in the star:
          1   0.000000000  -0.200000000   0.200000000
          2  -0.200000000   0.000000000   0.200000000
          3   0.200000000   0.000000000   0.200000000
          4   0.000000000   0.200000000   0.200000000
          5   0.200000000   0.200000000   0.000000000
          6  -0.200000000   0.200000000   0.000000000
          7   0.200000000  -0.200000000   0.000000000
          8  -0.200000000  -0.200000000   0.000000000
          9  -0.200000000   0.000000000  -0.200000000
         10   0.000000000   0.200000000  -0.200000000
         11   0.000000000  -0.200000000  -0.200000000
         12   0.200000000   0.000000000  -0.200000000

     Diagonalizing the dynamical matrix

     q = (    0.000000000  -0.200000000   0.200000000 ) 

 **************************************************************************
     freq (    1) =       0.938118 [THz] =      31.292248 [cm-1]
     freq (    2) =       3.375923 [THz] =     112.608657 [cm-1]
     freq (    3) =       5.485538 [THz] =     182.977866 [cm-1]
 **************************************************************************

     Mode symmetry, C_2v (mm2)  point group:

     freq (  1 -  1) =         31.3  [cm-1]   --> B_1  D_3  S_3      
     freq (  2 -  2) =        112.6  [cm-1]   --> B_2  D_4  S_4      
     freq (  3 -  3) =        183.0  [cm-1]   --> A_1  D_1  S_1      

     Calculation of q =    0.0000000  -0.3000000   0.3000000
 
     G-vector sticks info
     --------------------
     sticks:   dense  smooth     PW     G-vecs:    dense   smooth      PW
     Sum        1151     571    201                24835     8685    1745
 


     bravais-lattice index     =            3
     lattice parameter (alat)  =       6.5313  a.u.
     unit-cell volume          =     139.3078 (a.u.)^3
     number of atoms/cell      =            1
     number of atomic types    =            1
     number of electrons       =         3.00
     number of Kohn-Sham states=            6
     kinetic-energy cutoff     =      60.0000  Ry
     charge density cutoff     =     480.0000  Ry
     Exchange-correlation      =  SLA  PW   PBX  PBC ( 1  4  3  4 0 0)

     celldm(1)=   6.531332  celldm(2)=   0.000000  celldm(3)=   0.000000
     celldm(4)=   0.000000  celldm(5)=   0.000000  celldm(6)=   0.000000

     crystal axes: (cart. coord. in units of alat)
               a(1) = (   0.500000   0.500000   0.500000 )  
               a(2) = (  -0.500000   0.500000   0.500000 )  
               a(3) = (  -0.500000  -0.500000   0.500000 )  

     reciprocal axes: (cart. coord. in units 2 pi/alat)
               b(1) = (  1.000000  0.000000  1.000000 )  
               b(2) = ( -1.000000  1.000000  0.000000 )  
               b(3) = (  0.000000 -1.000000  1.000000 )  


     PseudoPot. # 1 for Li read from file:
     ../Li.pbe-s-gbrv14.UPF
     MD5 check sum: 7ca33c4f951f001da2db5c8738379802
     Pseudo is Ultrasoft, Zval =  3.0
     Generated by new atomic code, or converted to UPF format
     Using radial grid of  751 points,  5 beta functions with: 
                l(1) =   0
                l(2) =   0
                l(3) =   0
                l(4) =   1
                l(5) =   1
     Q(r) pseudized with 10 coefficients,  rinner =    1.150   1.150   1.150


     atomic species   valence    mass     pseudopotential
        Li             3.00     6.94100     Li( 1.00)

     48 Sym. Ops., with inversion, found



   Cartesian axes

     site n.     atom                  positions (alat units)
         1           Li  tau(   1) = (   0.0000000   0.0000000   0.0000000  )

     number of k points= 11760  Marzari-Vanderbilt smearing, width (Ry)=  0.0200

     Number of k-points >= 100: set verbosity='high' to print them.

     Dense  grid:    24835 G-vectors     FFT dimensions: (  40,  40,  40)

     Smooth grid:     8685 G-vectors     FFT dimensions: (  27,  27,  27)

     Largest allocated arrays     est. size (Mb)     dimensions
        Kohn-Sham Wavefunctions         0.10 Mb     (    1120,    6)
        NL pseudopotentials             0.15 Mb     (    1120,    9)
        Each V/rho on FFT grid          0.98 Mb     (   64000)
        Each G-vector array             0.19 Mb     (   24835)
        G-vector shells                 0.00 Mb     (     239)
     Largest temporary arrays     est. size (Mb)     dimensions
        Auxiliary wavefunctions         0.41 Mb     (    1120,   24)
        Each subspace H/S matrix        0.01 Mb     (      24,   24)
        Each <psi_i|beta_j> matrix      0.00 Mb     (       9,    6)

     The potential is recalculated from file :
     ./tmp/_ph0/li-bcc.save/charge-density.dat

     Starting wfc are    5 atomic +    1 random wfc

     Band Structure Calculation
     Davidson diagonalization with overlap

     ethr =  3.33E-10,  avg # of iterations = 17.4

     total cpu time spent up to now is       31.7 secs

     End of band structure calculation

     Number of k-points >= 100: set verbosity='high' to print the bands.

     the Fermi energy is     0.8956 ev

                                                                                

     bravais-lattice index     =            3
     lattice parameter (alat)  =       6.5313  a.u.
     unit-cell volume          =     139.3078 (a.u.)^3
     number of atoms/cell      =            1
     number of atomic types    =            1
     kinetic-energy cut-off    =      60.0000  Ry
     charge density cut-off    =     480.0000  Ry
     convergence threshold     =      1.0E-16
     beta                      =       0.7000
     number of iterations used =            4
     Exchange-correlation      =  SLA  PW   PBX  PBC ( 1  4  3  4 0 0)


     celldm(1)=    6.53133  celldm(2)=    0.00000  celldm(3)=    0.00000
     celldm(4)=    0.00000  celldm(5)=    0.00000  celldm(6)=    0.00000

     crystal axes: (cart. coord. in units of alat)
               a(1) = (  0.5000  0.5000  0.5000 )  
               a(2) = ( -0.5000  0.5000  0.5000 )  
               a(3) = ( -0.5000 -0.5000  0.5000 )  

     reciprocal axes: (cart. coord. in units 2 pi/alat)
               b(1) = (  1.0000  0.0000  1.0000 )  
               b(2) = ( -1.0000  1.0000  0.0000 )  
               b(3) = (  0.0000 -1.0000  1.0000 )  


     Atoms inside the unit cell: 

     Cartesian axes

     site n.  atom      mass           positions (alat units)
        1     Li   6.9410   tau(    1) = (    0.00000    0.00000    0.00000  )

     Computing dynamical matrix for 
                    q = (   0.0000000  -0.3000000   0.3000000 )
 
      4 Sym.Ops. (no q -> -q+G )


     G cutoff =  518.6627  (  24835 G-vectors)     FFT grid: ( 40, 40, 40)
     G cutoff =  259.3314  (   8685 G-vectors)  smooth grid: ( 27, 27, 27)

     number of k points= 11760  Marzari-Vanderbilt smearing, width (Ry)=  0.0200

     PseudoPot. # 1 for Li read from file:
     ../Li.pbe-s-gbrv14.UPF
     MD5 check sum: 7ca33c4f951f001da2db5c8738379802
     Pseudo is Ultrasoft, Zval =  3.0
     Generated by new atomic code, or converted to UPF format
     Using radial grid of  751 points,  5 beta functions with: 
                l(1) =   0
                l(2) =   0
                l(3) =   0
                l(4) =   1
                l(5) =   1
     Q(r) pseudized with 10 coefficients,  rinner =    1.150   1.150   1.150


     Mode symmetry, C_2v (mm2)  point group:


     Atomic displacements:
     There are   3 irreducible representations

     Representation     1      1 modes -A_1  D_1  S_1  To be done

     Representation     2      1 modes -B_1  D_3  S_3  To be done

     Representation     3      1 modes -B_2  D_4  S_4  To be done



     Alpha used in Ewald sum =   2.8000
     PHONON       :  3m33.24s CPU     4m 9.54s WALL



     Representation #  1 mode #   1

     Self-consistent Calculation

      iter #   1 total cpu time :   250.1 secs   av.it.:   6.3
      thresh= 1.000E-02 alpha_mix =  0.700 |ddv_scf|^2 =  2.400E-04

      iter #   2 total cpu time :   252.5 secs   av.it.:   8.0
      thresh= 1.549E-03 alpha_mix =  0.700 |ddv_scf|^2 =  3.088E-03

      iter #   3 total cpu time :   257.5 secs   av.it.:   6.4
      thresh= 5.557E-03 alpha_mix =  0.700 |ddv_scf|^2 =  7.820E-08

      iter #   4 total cpu time :   263.3 secs   av.it.:   8.8
      thresh= 2.796E-05 alpha_mix =  0.700 |ddv_scf|^2 =  2.629E-09

      iter #   5 total cpu time :   274.6 secs   av.it.:   8.8
      thresh= 5.128E-06 alpha_mix =  0.700 |ddv_scf|^2 =  1.375E-11

      iter #   6 total cpu time :   275.9 secs   av.it.:   8.9
      thresh= 3.708E-07 alpha_mix =  0.700 |ddv_scf|^2 =  3.209E-13

      iter #   7 total cpu time :   276.9 secs   av.it.:   9.3
      thresh= 5.665E-08 alpha_mix =  0.700 |ddv_scf|^2 =  8.322E-16

      iter #   8 total cpu time :   278.3 secs   av.it.:   9.1
      thresh= 2.885E-09 alpha_mix =  0.700 |ddv_scf|^2 =  2.215E-16

      iter #   9 total cpu time :   281.4 secs   av.it.:   8.2
      thresh= 1.488E-09 alpha_mix =  0.700 |ddv_scf|^2 =  1.606E-16

      iter #  10 total cpu time :   290.7 secs   av.it.:   7.3
      thresh= 1.267E-09 alpha_mix =  0.700 |ddv_scf|^2 =  1.647E-19

     End of self-consistent calculation

     Convergence has been achieved 


     Representation #  2 mode #   2

     Self-consistent Calculation

      iter #   1 total cpu time :   303.5 secs   av.it.:   5.4
      thresh= 1.000E-02 alpha_mix =  0.700 |ddv_scf|^2 =  1.010E-06

      iter #   2 total cpu time :   305.9 secs   av.it.:   8.5
      thresh= 1.005E-04 alpha_mix =  0.700 |ddv_scf|^2 =  6.128E-08

      iter #   3 total cpu time :   313.3 secs   av.it.:   9.0
      thresh= 2.475E-05 alpha_mix =  0.700 |ddv_scf|^2 =  5.742E-10

      iter #   4 total cpu time :   314.2 secs   av.it.:   8.3
      thresh= 2.396E-06 alpha_mix =  0.700 |ddv_scf|^2 =  9.083E-13

      iter #   5 total cpu time :   314.8 secs   av.it.:   8.4
      thresh= 9.530E-08 alpha_mix =  0.700 |ddv_scf|^2 =  1.664E-14

      iter #   6 total cpu time :   315.4 secs   av.it.:   7.4
      thresh= 1.290E-08 alpha_mix =  0.700 |ddv_scf|^2 =  9.407E-18

     End of self-consistent calculation

     Convergence has been achieved 


     Representation #  3 mode #   3

     Self-consistent Calculation

      iter #   1 total cpu time :   317.0 secs   av.it.:   5.5
      thresh= 1.000E-02 alpha_mix =  0.700 |ddv_scf|^2 =  1.089E-06

      iter #   2 total cpu time :   317.7 secs   av.it.:   8.6
      thresh= 1.044E-04 alpha_mix =  0.700 |ddv_scf|^2 =  6.543E-08

      iter #   3 total cpu time :   318.5 secs   av.it.:   8.9
      thresh= 2.558E-05 alpha_mix =  0.700 |ddv_scf|^2 =  1.055E-09

      iter #   4 total cpu time :   319.2 secs   av.it.:   8.2
      thresh= 3.249E-06 alpha_mix =  0.700 |ddv_scf|^2 =  1.231E-12

      iter #   5 total cpu time :   320.8 secs   av.it.:   8.5
      thresh= 1.109E-07 alpha_mix =  0.700 |ddv_scf|^2 =  2.148E-14

      iter #   6 total cpu time :   322.6 secs   av.it.:   7.6
      thresh= 1.465E-08 alpha_mix =  0.700 |ddv_scf|^2 =  5.518E-18

     End of self-consistent calculation

     Convergence has been achieved 
 
     Number of q in the star =   12
     List of q in the star:
          1   0.000000000  -0.300000000   0.300000000
          2  -0.300000000   0.000000000   0.300000000
          3   0.300000000   0.000000000   0.300000000
          4   0.000000000   0.300000000   0.300000000
          5   0.300000000   0.300000000   0.000000000
          6  -0.300000000   0.300000000   0.000000000
          7   0.300000000  -0.300000000   0.000000000
          8  -0.300000000  -0.300000000   0.000000000
          9  -0.300000000   0.000000000  -0.300000000
         10   0.000000000   0.300000000  -0.300000000
         11   0.000000000  -0.300000000  -0.300000000
         12   0.300000000   0.000000000  -0.300000000

     Diagonalizing the dynamical matrix

     q = (    0.000000000  -0.300000000   0.300000000 ) 

 **************************************************************************
     freq (    1) =       1.291092 [THz] =      43.066180 [cm-1]
     freq (    2) =       4.615979 [THz] =     153.972474 [cm-1]
     freq (    3) =       7.703804 [THz] =     256.971254 [cm-1]
 **************************************************************************

     Mode symmetry, C_2v (mm2)  point group:

     freq (  1 -  1) =         43.1  [cm-1]   --> B_1  D_3  S_3      
     freq (  2 -  2) =        154.0  [cm-1]   --> B_2  D_4  S_4      
     freq (  3 -  3) =        257.0  [cm-1]   --> A_1  D_1  S_1      

     Calculation of q =    0.0000000  -0.4000000   0.4000000
 
     G-vector sticks info
     --------------------
     sticks:   dense  smooth     PW     G-vecs:    dense   smooth      PW
     Sum        1151     571    205                24835     8685    1865
 


     bravais-lattice index     =            3
     lattice parameter (alat)  =       6.5313  a.u.
     unit-cell volume          =     139.3078 (a.u.)^3
     number of atoms/cell      =            1
     number of atomic types    =            1
     number of electrons       =         3.00
     number of Kohn-Sham states=            6
     kinetic-energy cutoff     =      60.0000  Ry
     charge density cutoff     =     480.0000  Ry
     Exchange-correlation      =  SLA  PW   PBX  PBC ( 1  4  3  4 0 0)

     celldm(1)=   6.531332  celldm(2)=   0.000000  celldm(3)=   0.000000
     celldm(4)=   0.000000  celldm(5)=   0.000000  celldm(6)=   0.000000

     crystal axes: (cart. coord. in units of alat)
               a(1) = (   0.500000   0.500000   0.500000 )  
               a(2) = (  -0.500000   0.500000   0.500000 )  
               a(3) = (  -0.500000  -0.500000   0.500000 )  

     reciprocal axes: (cart. coord. in units 2 pi/alat)
               b(1) = (  1.000000  0.000000  1.000000 )  
               b(2) = ( -1.000000  1.000000  0.000000 )  
               b(3) = (  0.000000 -1.000000  1.000000 )  


     PseudoPot. # 1 for Li read from file:
     ../Li.pbe-s-gbrv14.UPF
     MD5 check sum: 7ca33c4f951f001da2db5c8738379802
     Pseudo is Ultrasoft, Zval =  3.0
     Generated by new atomic code, or converted to UPF format
     Using radial grid of  751 points,  5 beta functions with: 
                l(1) =   0
                l(2) =   0
                l(3) =   0
                l(4) =   1
                l(5) =   1
     Q(r) pseudized with 10 coefficients,  rinner =    1.150   1.150   1.150


     atomic species   valence    mass     pseudopotential
        Li             3.00     6.94100     Li( 1.00)

     48 Sym. Ops., with inversion, found



   Cartesian axes

     site n.     atom                  positions (alat units)
         1           Li  tau(   1) = (   0.0000000   0.0000000   0.0000000  )

     number of k points= 11760  Marzari-Vanderbilt smearing, width (Ry)=  0.0200

     Number of k-points >= 100: set verbosity='high' to print them.

     Dense  grid:    24835 G-vectors     FFT dimensions: (  40,  40,  40)

     Smooth grid:     8685 G-vectors     FFT dimensions: (  27,  27,  27)

     Largest allocated arrays     est. size (Mb)     dimensions
        Kohn-Sham Wavefunctions         0.10 Mb     (    1121,    6)
        NL pseudopotentials             0.15 Mb     (    1121,    9)
        Each V/rho on FFT grid          0.98 Mb     (   64000)
        Each G-vector array             0.19 Mb     (   24835)
        G-vector shells                 0.00 Mb     (     239)
     Largest temporary arrays     est. size (Mb)     dimensions
        Auxiliary wavefunctions         0.41 Mb     (    1121,   24)
        Each subspace H/S matrix        0.01 Mb     (      24,   24)
        Each <psi_i|beta_j> matrix      0.00 Mb     (       9,    6)

     The potential is recalculated from file :
     ./tmp/_ph0/li-bcc.save/charge-density.dat

     Starting wfc are    5 atomic +    1 random wfc

     Band Structure Calculation
     Davidson diagonalization with overlap

     ethr =  3.33E-10,  avg # of iterations = 17.4

     total cpu time spent up to now is       44.8 secs

     End of band structure calculation

     Number of k-points >= 100: set verbosity='high' to print the bands.

     the Fermi energy is     0.8956 ev

                                                                                

     bravais-lattice index     =            3
     lattice parameter (alat)  =       6.5313  a.u.
     unit-cell volume          =     139.3078 (a.u.)^3
     number of atoms/cell      =            1
     number of atomic types    =            1
     kinetic-energy cut-off    =      60.0000  Ry
     charge density cut-off    =     480.0000  Ry
     convergence threshold     =      1.0E-16
     beta                      =       0.7000
     number of iterations used =            4
     Exchange-correlation      =  SLA  PW   PBX  PBC ( 1  4  3  4 0 0)


     celldm(1)=    6.53133  celldm(2)=    0.00000  celldm(3)=    0.00000
     celldm(4)=    0.00000  celldm(5)=    0.00000  celldm(6)=    0.00000

     crystal axes: (cart. coord. in units of alat)
               a(1) = (  0.5000  0.5000  0.5000 )  
               a(2) = ( -0.5000  0.5000  0.5000 )  
               a(3) = ( -0.5000 -0.5000  0.5000 )  

     reciprocal axes: (cart. coord. in units 2 pi/alat)
               b(1) = (  1.0000  0.0000  1.0000 )  
               b(2) = ( -1.0000  1.0000  0.0000 )  
               b(3) = (  0.0000 -1.0000  1.0000 )  


     Atoms inside the unit cell: 

     Cartesian axes

     site n.  atom      mass           positions (alat units)
        1     Li   6.9410   tau(    1) = (    0.00000    0.00000    0.00000  )

     Computing dynamical matrix for 
                    q = (   0.0000000  -0.4000000   0.4000000 )
 
      4 Sym.Ops. (no q -> -q+G )


     G cutoff =  518.6627  (  24835 G-vectors)     FFT grid: ( 40, 40, 40)
     G cutoff =  259.3314  (   8685 G-vectors)  smooth grid: ( 27, 27, 27)

     number of k points= 11760  Marzari-Vanderbilt smearing, width (Ry)=  0.0200

     PseudoPot. # 1 for Li read from file:
     ../Li.pbe-s-gbrv14.UPF
     MD5 check sum: 7ca33c4f951f001da2db5c8738379802
     Pseudo is Ultrasoft, Zval =  3.0
     Generated by new atomic code, or converted to UPF format
     Using radial grid of  751 points,  5 beta functions with: 
                l(1) =   0
                l(2) =   0
                l(3) =   0
                l(4) =   1
                l(5) =   1
     Q(r) pseudized with 10 coefficients,  rinner =    1.150   1.150   1.150


     Mode symmetry, C_2v (mm2)  point group:


     Atomic displacements:
     There are   3 irreducible representations

     Representation     1      1 modes -A_1  D_1  S_1  To be done

     Representation     2      1 modes -B_1  D_3  S_3  To be done

     Representation     3      1 modes -B_2  D_4  S_4  To be done



     Alpha used in Ewald sum =   2.8000
     PHONON       :  4m53.17s CPU     5m41.59s WALL



     Representation #  1 mode #   1

     Self-consistent Calculation

      iter #   1 total cpu time :   342.2 secs   av.it.:   6.3
      thresh= 1.000E-02 alpha_mix =  0.700 |ddv_scf|^2 =  3.560E-05

      iter #   2 total cpu time :   343.1 secs   av.it.:   8.5
      thresh= 5.966E-04 alpha_mix =  0.700 |ddv_scf|^2 =  7.798E-05

      iter #   3 total cpu time :   345.0 secs   av.it.:   7.2
      thresh= 8.831E-04 alpha_mix =  0.700 |ddv_scf|^2 =  6.321E-08

      iter #   4 total cpu time :   353.2 secs   av.it.:   8.7
      thresh= 2.514E-05 alpha_mix =  0.700 |ddv_scf|^2 =  3.491E-09

      iter #   5 total cpu time :   357.6 secs   av.it.:   8.7
      thresh= 5.908E-06 alpha_mix =  0.700 |ddv_scf|^2 =  4.140E-12

      iter #   6 total cpu time :   359.9 secs   av.it.:   8.9
      thresh= 2.035E-07 alpha_mix =  0.700 |ddv_scf|^2 =  1.990E-13

      iter #   7 total cpu time :   362.5 secs   av.it.:   8.9
      thresh= 4.461E-08 alpha_mix =  0.700 |ddv_scf|^2 =  1.099E-15

      iter #   8 total cpu time :   365.1 secs   av.it.:   9.4
      thresh= 3.314E-09 alpha_mix =  0.700 |ddv_scf|^2 =  1.944E-16

      iter #   9 total cpu time :   369.9 secs   av.it.:   8.1
      thresh= 1.394E-09 alpha_mix =  0.700 |ddv_scf|^2 =  3.839E-17

     End of self-consistent calculation

     Convergence has been achieved 


     Representation #  2 mode #   2

     Self-consistent Calculation

      iter #   1 total cpu time :   379.1 secs   av.it.:   5.5
      thresh= 1.000E-02 alpha_mix =  0.700 |ddv_scf|^2 =  1.022E-06

      iter #   2 total cpu time :   387.4 secs   av.it.:   8.5
      thresh= 1.011E-04 alpha_mix =  0.700 |ddv_scf|^2 =  6.151E-08

      iter #   3 total cpu time :   394.0 secs   av.it.:   9.0
      thresh= 2.480E-05 alpha_mix =  0.700 |ddv_scf|^2 =  6.677E-10

      iter #   4 total cpu time :   396.4 secs   av.it.:   8.1
      thresh= 2.584E-06 alpha_mix =  0.700 |ddv_scf|^2 =  8.715E-13

      iter #   5 total cpu time :   397.4 secs   av.it.:   8.5
      thresh= 9.335E-08 alpha_mix =  0.700 |ddv_scf|^2 =  1.766E-14

      iter #   6 total cpu time :   399.8 secs   av.it.:   7.7
      thresh= 1.329E-08 alpha_mix =  0.700 |ddv_scf|^2 =  1.006E-17

     End of self-consistent calculation

     Convergence has been achieved 


     Representation #  3 mode #   3

     Self-consistent Calculation

      iter #   1 total cpu time :   403.8 secs   av.it.:   5.7
      thresh= 1.000E-02 alpha_mix =  0.700 |ddv_scf|^2 =  1.133E-06

      iter #   2 total cpu time :   406.1 secs   av.it.:   8.5
      thresh= 1.064E-04 alpha_mix =  0.700 |ddv_scf|^2 =  6.745E-08

      iter #   3 total cpu time :   406.9 secs   av.it.:   8.9
      thresh= 2.597E-05 alpha_mix =  0.700 |ddv_scf|^2 =  1.383E-09

      iter #   4 total cpu time :   407.6 secs   av.it.:   8.1
      thresh= 3.718E-06 alpha_mix =  0.700 |ddv_scf|^2 =  1.380E-12

      iter #   5 total cpu time :   409.4 secs   av.it.:   8.4
      thresh= 1.175E-07 alpha_mix =  0.700 |ddv_scf|^2 =  2.140E-14

      iter #   6 total cpu time :   411.9 secs   av.it.:   7.8
      thresh= 1.463E-08 alpha_mix =  0.700 |ddv_scf|^2 =  4.514E-18

     End of self-consistent calculation

     Convergence has been achieved 
 
     Number of q in the star =   12
     List of q in the star:
          1   0.000000000  -0.400000000   0.400000000
          2  -0.400000000   0.000000000   0.400000000
          3   0.400000000   0.000000000   0.400000000
          4   0.000000000   0.400000000   0.400000000
          5   0.400000000   0.400000000   0.000000000
          6  -0.400000000   0.400000000   0.000000000
          7   0.400000000  -0.400000000   0.000000000
          8  -0.400000000  -0.400000000   0.000000000
          9  -0.400000000   0.000000000  -0.400000000
         10   0.000000000   0.400000000  -0.400000000
         11   0.000000000  -0.400000000  -0.400000000
         12   0.400000000   0.000000000  -0.400000000

     Diagonalizing the dynamical matrix

     q = (    0.000000000  -0.400000000   0.400000000 ) 

 **************************************************************************
     freq (    1) =       1.555338 [THz] =      51.880482 [cm-1]
     freq (    2) =       5.416340 [THz] =     180.669672 [cm-1]
     freq (    3) =       8.995509 [THz] =     300.057869 [cm-1]
 **************************************************************************

     Mode symmetry, C_2v (mm2)  point group:

     freq (  1 -  1) =         51.9  [cm-1]   --> B_1  D_3  S_3      
     freq (  2 -  2) =        180.7  [cm-1]   --> B_2  D_4  S_4      
     freq (  3 -  3) =        300.1  [cm-1]   --> A_1  D_1  S_1      

     Calculation of q =    0.0000000   0.5000000  -0.5000000
 
     G-vector sticks info
     --------------------
     sticks:   dense  smooth     PW     G-vecs:    dense   smooth      PW
     Sum        1151     571    213                24835     8685    1961
 


     bravais-lattice index     =            3
     lattice parameter (alat)  =       6.5313  a.u.
     unit-cell volume          =     139.3078 (a.u.)^3
     number of atoms/cell      =            1
     number of atomic types    =            1
     number of electrons       =         3.00
     number of Kohn-Sham states=            6
     kinetic-energy cutoff     =      60.0000  Ry
     charge density cutoff     =     480.0000  Ry
     Exchange-correlation      =  SLA  PW   PBX  PBC ( 1  4  3  4 0 0)

     celldm(1)=   6.531332  celldm(2)=   0.000000  celldm(3)=   0.000000
     celldm(4)=   0.000000  celldm(5)=   0.000000  celldm(6)=   0.000000

     crystal axes: (cart. coord. in units of alat)
               a(1) = (   0.500000   0.500000   0.500000 )  
               a(2) = (  -0.500000   0.500000   0.500000 )  
               a(3) = (  -0.500000  -0.500000   0.500000 )  

     reciprocal axes: (cart. coord. in units 2 pi/alat)
               b(1) = (  1.000000  0.000000  1.000000 )  
               b(2) = ( -1.000000  1.000000  0.000000 )  
               b(3) = (  0.000000 -1.000000  1.000000 )  


     PseudoPot. # 1 for Li read from file:
     ../Li.pbe-s-gbrv14.UPF
     MD5 check sum: 7ca33c4f951f001da2db5c8738379802
     Pseudo is Ultrasoft, Zval =  3.0
     Generated by new atomic code, or converted to UPF format
     Using radial grid of  751 points,  5 beta functions with: 
                l(1) =   0
                l(2) =   0
                l(3) =   0
                l(4) =   1
                l(5) =   1
     Q(r) pseudized with 10 coefficients,  rinner =    1.150   1.150   1.150


     atomic species   valence    mass     pseudopotential
        Li             3.00     6.94100     Li( 1.00)

     48 Sym. Ops., with inversion, found



   Cartesian axes

     site n.     atom                  positions (alat units)
         1           Li  tau(   1) = (   0.0000000   0.0000000   0.0000000  )

     number of k points=  6090  Marzari-Vanderbilt smearing, width (Ry)=  0.0200

     Number of k-points >= 100: set verbosity='high' to print them.

     Dense  grid:    24835 G-vectors     FFT dimensions: (  40,  40,  40)

     Smooth grid:     8685 G-vectors     FFT dimensions: (  27,  27,  27)

     Largest allocated arrays     est. size (Mb)     dimensions
        Kohn-Sham Wavefunctions         0.10 Mb     (    1120,    6)
        NL pseudopotentials             0.15 Mb     (    1120,    9)
        Each V/rho on FFT grid          0.98 Mb     (   64000)
        Each G-vector array             0.19 Mb     (   24835)
        G-vector shells                 0.00 Mb     (     239)
     Largest temporary arrays     est. size (Mb)     dimensions
        Auxiliary wavefunctions         0.41 Mb     (    1120,   24)
        Each subspace H/S matrix        0.01 Mb     (      24,   24)
        Each <psi_i|beta_j> matrix      0.00 Mb     (       9,    6)

     The potential is recalculated from file :
     ./tmp/_ph0/li-bcc.save/charge-density.dat

     Starting wfc are    5 atomic +    1 random wfc

     Band Structure Calculation
     Davidson diagonalization with overlap

     ethr =  3.33E-10,  avg # of iterations = 17.4

     total cpu time spent up to now is       48.5 secs

     End of band structure calculation

     Number of k-points >= 100: set verbosity='high' to print the bands.

     the Fermi energy is     0.8956 ev

                                                                                

     bravais-lattice index     =            3
     lattice parameter (alat)  =       6.5313  a.u.
     unit-cell volume          =     139.3078 (a.u.)^3
     number of atoms/cell      =            1
     number of atomic types    =            1
     kinetic-energy cut-off    =      60.0000  Ry
     charge density cut-off    =     480.0000  Ry
     convergence threshold     =      1.0E-16
     beta                      =       0.7000
     number of iterations used =            4
     Exchange-correlation      =  SLA  PW   PBX  PBC ( 1  4  3  4 0 0)


     celldm(1)=    6.53133  celldm(2)=    0.00000  celldm(3)=    0.00000
     celldm(4)=    0.00000  celldm(5)=    0.00000  celldm(6)=    0.00000

     crystal axes: (cart. coord. in units of alat)
               a(1) = (  0.5000  0.5000  0.5000 )  
               a(2) = ( -0.5000  0.5000  0.5000 )  
               a(3) = ( -0.5000 -0.5000  0.5000 )  

     reciprocal axes: (cart. coord. in units 2 pi/alat)
               b(1) = (  1.0000  0.0000  1.0000 )  
               b(2) = ( -1.0000  1.0000  0.0000 )  
               b(3) = (  0.0000 -1.0000  1.0000 )  


     Atoms inside the unit cell: 

     Cartesian axes

     site n.  atom      mass           positions (alat units)
        1     Li   6.9410   tau(    1) = (    0.00000    0.00000    0.00000  )

     Computing dynamical matrix for 
                    q = (   0.0000000   0.5000000  -0.5000000 )
 
      9 Sym.Ops. (with q -> -q+G )


     G cutoff =  518.6627  (  24835 G-vectors)     FFT grid: ( 40, 40, 40)
     G cutoff =  259.3314  (   8685 G-vectors)  smooth grid: ( 27, 27, 27)

     number of k points=  6090  Marzari-Vanderbilt smearing, width (Ry)=  0.0200

     PseudoPot. # 1 for Li read from file:
     ../Li.pbe-s-gbrv14.UPF
     MD5 check sum: 7ca33c4f951f001da2db5c8738379802
     Pseudo is Ultrasoft, Zval =  3.0
     Generated by new atomic code, or converted to UPF format
     Using radial grid of  751 points,  5 beta functions with: 
                l(1) =   0
                l(2) =   0
                l(3) =   0
                l(4) =   1
                l(5) =   1
     Q(r) pseudized with 10 coefficients,  rinner =    1.150   1.150   1.150


     Mode symmetry, D_2h (mmm)  point group:


     Atomic displacements:
     There are   3 irreducible representations

     Representation     1      1 modes -B_1u  To be done

     Representation     2      1 modes -B_2u  To be done

     Representation     3      1 modes -B_3u  To be done



     Alpha used in Ewald sum =   2.8000
     PHONON       :  6m13.65s CPU     7m12.09s WALL



     Representation #  1 mode #   1

     Self-consistent Calculation

      iter #   1 total cpu time :   432.5 secs   av.it.:   5.7
      thresh= 1.000E-02 alpha_mix =  0.700 |ddv_scf|^2 =  1.150E-06

      iter #   2 total cpu time :   434.9 secs   av.it.:   8.5
      thresh= 1.072E-04 alpha_mix =  0.700 |ddv_scf|^2 =  6.825E-08

      iter #   3 total cpu time :   441.2 secs   av.it.:   8.8
      thresh= 2.612E-05 alpha_mix =  0.700 |ddv_scf|^2 =  1.520E-09

      iter #   4 total cpu time :   448.6 secs   av.it.:   8.0
      thresh= 3.898E-06 alpha_mix =  0.700 |ddv_scf|^2 =  1.445E-12

      iter #   5 total cpu time :   457.8 secs   av.it.:   8.4
      thresh= 1.202E-07 alpha_mix =  0.700 |ddv_scf|^2 =  2.126E-14

      iter #   6 total cpu time :   458.6 secs   av.it.:   7.8
      thresh= 1.458E-08 alpha_mix =  0.700 |ddv_scf|^2 =  3.999E-18

     End of self-consistent calculation

     Convergence has been achieved 


     Representation #  2 mode #   2

     Self-consistent Calculation

      iter #   1 total cpu time :   459.7 secs   av.it.:   5.5
      thresh= 1.000E-02 alpha_mix =  0.700 |ddv_scf|^2 =  1.027E-06

      iter #   2 total cpu time :   461.7 secs   av.it.:   8.6
      thresh= 1.013E-04 alpha_mix =  0.700 |ddv_scf|^2 =  6.160E-08

      iter #   3 total cpu time :   468.2 secs   av.it.:   9.0
      thresh= 2.482E-05 alpha_mix =  0.700 |ddv_scf|^2 =  7.079E-10

      iter #   4 total cpu time :   470.8 secs   av.it.:   8.0
      thresh= 2.661E-06 alpha_mix =  0.700 |ddv_scf|^2 =  8.533E-13

      iter #   5 total cpu time :   482.5 secs   av.it.:   8.4
      thresh= 9.238E-08 alpha_mix =  0.700 |ddv_scf|^2 =  1.781E-14

      iter #   6 total cpu time :   485.8 secs   av.it.:   7.7
      thresh= 1.334E-08 alpha_mix =  0.700 |ddv_scf|^2 =  9.956E-18

     End of self-consistent calculation

     Convergence has been achieved 


     Representation #  3 mode #   3

     Self-consistent Calculation

      iter #   1 total cpu time :   496.1 secs   av.it.:   6.2
      thresh= 1.000E-02 alpha_mix =  0.700 |ddv_scf|^2 =  1.389E-05

      iter #   2 total cpu time :   497.6 secs   av.it.:   8.4
      thresh= 3.727E-04 alpha_mix =  0.700 |ddv_scf|^2 =  4.983E-06

      iter #   3 total cpu time :   498.5 secs   av.it.:   7.8
      thresh= 2.232E-04 alpha_mix =  0.700 |ddv_scf|^2 =  1.870E-08

      iter #   4 total cpu time :   499.1 secs   av.it.:   8.7
      thresh= 1.368E-05 alpha_mix =  0.700 |ddv_scf|^2 =  1.015E-11

      iter #   5 total cpu time :   502.1 secs   av.it.:   8.4
      thresh= 3.186E-07 alpha_mix =  0.700 |ddv_scf|^2 =  5.834E-13

      iter #   6 total cpu time :   504.8 secs   av.it.:   8.5
      thresh= 7.638E-08 alpha_mix =  0.700 |ddv_scf|^2 =  3.495E-15

      iter #   7 total cpu time :   507.4 secs   av.it.:   8.6
      thresh= 5.912E-09 alpha_mix =  0.700 |ddv_scf|^2 =  3.952E-18

     End of self-consistent calculation

     Convergence has been achieved 
 
     Number of q in the star =    6
     List of q in the star:
          1   0.000000000   0.500000000  -0.500000000
          2  -0.500000000  -0.500000000   0.000000000
          3   0.500000000  -0.500000000   0.000000000
          4   0.500000000   0.000000000   0.500000000
          5   0.500000000   0.000000000  -0.500000000
          6   0.000000000  -0.500000000  -0.500000000

     Diagonalizing the dynamical matrix

     q = (    0.000000000   0.500000000  -0.500000000 ) 

 **************************************************************************
     freq (    1) =       1.659867 [THz] =      55.367211 [cm-1]
     freq (    2) =       5.696449 [THz] =     190.013078 [cm-1]
     freq (    3) =       9.418249 [THz] =     314.158971 [cm-1]
 **************************************************************************

     Mode symmetry, D_2h (mmm)  point group:

     freq (  1 -  1) =         55.4  [cm-1]   --> B_2u               
     freq (  2 -  2) =        190.0  [cm-1]   --> B_1u               
     freq (  3 -  3) =        314.2  [cm-1]   --> B_3u               

     Calculation of q =   -0.1000000  -0.1000000   0.2000000
 
     G-vector sticks info
     --------------------
     sticks:   dense  smooth     PW     G-vecs:    dense   smooth      PW
     Sum        1151     571    181                24835     8685    1601
 


     bravais-lattice index     =            3
     lattice parameter (alat)  =       6.5313  a.u.
     unit-cell volume          =     139.3078 (a.u.)^3
     number of atoms/cell      =            1
     number of atomic types    =            1
     number of electrons       =         3.00
     number of Kohn-Sham states=            6
     kinetic-energy cutoff     =      60.0000  Ry
     charge density cutoff     =     480.0000  Ry
     Exchange-correlation      =  SLA  PW   PBX  PBC ( 1  4  3  4 0 0)

     celldm(1)=   6.531332  celldm(2)=   0.000000  celldm(3)=   0.000000
     celldm(4)=   0.000000  celldm(5)=   0.000000  celldm(6)=   0.000000

     crystal axes: (cart. coord. in units of alat)
               a(1) = (   0.500000   0.500000   0.500000 )  
               a(2) = (  -0.500000   0.500000   0.500000 )  
               a(3) = (  -0.500000  -0.500000   0.500000 )  

     reciprocal axes: (cart. coord. in units 2 pi/alat)
               b(1) = (  1.000000  0.000000  1.000000 )  
               b(2) = ( -1.000000  1.000000  0.000000 )  
               b(3) = (  0.000000 -1.000000  1.000000 )  


     PseudoPot. # 1 for Li read from file:
     ../Li.pbe-s-gbrv14.UPF
     MD5 check sum: 7ca33c4f951f001da2db5c8738379802
     Pseudo is Ultrasoft, Zval =  3.0
     Generated by new atomic code, or converted to UPF format
     Using radial grid of  751 points,  5 beta functions with: 
                l(1) =   0
                l(2) =   0
                l(3) =   0
                l(4) =   1
                l(5) =   1
     Q(r) pseudized with 10 coefficients,  rinner =    1.150   1.150   1.150


     atomic species   valence    mass     pseudopotential
        Li             3.00     6.94100     Li( 1.00)

     48 Sym. Ops., with inversion, found



   Cartesian axes

     site n.     atom                  positions (alat units)
         1           Li  tau(   1) = (   0.0000000   0.0000000   0.0000000  )

     number of k points= 22736  Marzari-Vanderbilt smearing, width (Ry)=  0.0200

     Number of k-points >= 100: set verbosity='high' to print them.

     Dense  grid:    24835 G-vectors     FFT dimensions: (  40,  40,  40)

     Smooth grid:     8685 G-vectors     FFT dimensions: (  27,  27,  27)

     Largest allocated arrays     est. size (Mb)     dimensions
        Kohn-Sham Wavefunctions         0.10 Mb     (    1121,    6)
        NL pseudopotentials             0.15 Mb     (    1121,    9)
        Each V/rho on FFT grid          0.98 Mb     (   64000)
        Each G-vector array             0.19 Mb     (   24835)
        G-vector shells                 0.00 Mb     (     239)
     Largest temporary arrays     est. size (Mb)     dimensions
        Auxiliary wavefunctions         0.41 Mb     (    1121,   24)
        Each subspace H/S matrix        0.01 Mb     (      24,   24)
        Each <psi_i|beta_j> matrix      0.00 Mb     (       9,    6)

     The potential is recalculated from file :
     ./tmp/_ph0/li-bcc.save/charge-density.dat

     Starting wfc are    5 atomic +    1 random wfc

     Band Structure Calculation
     Davidson diagonalization with overlap

     ethr =  3.33E-10,  avg # of iterations = 17.5

     total cpu time spent up to now is       59.9 secs

     End of band structure calculation

     Number of k-points >= 100: set verbosity='high' to print the bands.

     the Fermi energy is     0.8956 ev

                                                                                

     bravais-lattice index     =            3
     lattice parameter (alat)  =       6.5313  a.u.
     unit-cell volume          =     139.3078 (a.u.)^3
     number of atoms/cell      =            1
     number of atomic types    =            1
     kinetic-energy cut-off    =      60.0000  Ry
     charge density cut-off    =     480.0000  Ry
     convergence threshold     =      1.0E-16
     beta                      =       0.7000
     number of iterations used =            4
     Exchange-correlation      =  SLA  PW   PBX  PBC ( 1  4  3  4 0 0)


     celldm(1)=    6.53133  celldm(2)=    0.00000  celldm(3)=    0.00000
     celldm(4)=    0.00000  celldm(5)=    0.00000  celldm(6)=    0.00000

     crystal axes: (cart. coord. in units of alat)
               a(1) = (  0.5000  0.5000  0.5000 )  
               a(2) = ( -0.5000  0.5000  0.5000 )  
               a(3) = ( -0.5000 -0.5000  0.5000 )  

     reciprocal axes: (cart. coord. in units 2 pi/alat)
               b(1) = (  1.0000  0.0000  1.0000 )  
               b(2) = ( -1.0000  1.0000  0.0000 )  
               b(3) = (  0.0000 -1.0000  1.0000 )  


     Atoms inside the unit cell: 

     Cartesian axes

     site n.  atom      mass           positions (alat units)
        1     Li   6.9410   tau(    1) = (    0.00000    0.00000    0.00000  )

     Computing dynamical matrix for 
                    q = (  -0.1000000  -0.1000000   0.2000000 )
 
      2 Sym.Ops. (no q -> -q+G )


     G cutoff =  518.6627  (  24835 G-vectors)     FFT grid: ( 40, 40, 40)
     G cutoff =  259.3314  (   8685 G-vectors)  smooth grid: ( 27, 27, 27)

     number of k points= 22736  Marzari-Vanderbilt smearing, width (Ry)=  0.0200

     PseudoPot. # 1 for Li read from file:
     ../Li.pbe-s-gbrv14.UPF
     MD5 check sum: 7ca33c4f951f001da2db5c8738379802
     Pseudo is Ultrasoft, Zval =  3.0
     Generated by new atomic code, or converted to UPF format
     Using radial grid of  751 points,  5 beta functions with: 
                l(1) =   0
                l(2) =   0
                l(3) =   0
                l(4) =   1
                l(5) =   1
     Q(r) pseudized with 10 coefficients,  rinner =    1.150   1.150   1.150


     Mode symmetry, C_s (m)     point group:


     Atomic displacements:
     There are   3 irreducible representations

     Representation     1      1 modes -A'  To be done

     Representation     2      1 modes -A'  To be done

     Representation     3      1 modes -A''  To be done



     Alpha used in Ewald sum =   2.8000
     PHONON       :  7m28.08s CPU     8m51.89s WALL



     Representation #  1 mode #   1

     Self-consistent Calculation

      iter #   1 total cpu time :   532.9 secs   av.it.:   6.0
      thresh= 1.000E-02 alpha_mix =  0.700 |ddv_scf|^2 =  8.390E-04

      iter #   2 total cpu time :   542.6 secs   av.it.:   7.4
      thresh= 2.897E-03 alpha_mix =  0.700 |ddv_scf|^2 =  1.554E-01

      iter #   3 total cpu time :   547.6 secs   av.it.:   5.9
      thresh= 1.000E-02 alpha_mix =  0.700 |ddv_scf|^2 =  1.315E-07

      iter #   4 total cpu time :   558.7 secs   av.it.:   8.9
      thresh= 3.626E-05 alpha_mix =  0.700 |ddv_scf|^2 =  4.314E-09

      iter #   5 total cpu time :   561.1 secs   av.it.:   9.0
      thresh= 6.568E-06 alpha_mix =  0.700 |ddv_scf|^2 =  8.306E-11

      iter #   6 total cpu time :   562.6 secs   av.it.:   8.6
      thresh= 9.114E-07 alpha_mix =  0.700 |ddv_scf|^2 =  1.419E-09

      iter #   7 total cpu time :   563.5 secs   av.it.:   5.0
      thresh= 3.768E-06 alpha_mix =  0.700 |ddv_scf|^2 =  1.494E-11

      iter #   8 total cpu time :   564.5 secs   av.it.:   6.7
      thresh= 3.865E-07 alpha_mix =  0.700 |ddv_scf|^2 =  3.457E-13

      iter #   9 total cpu time :   571.8 secs   av.it.:   6.4
      thresh= 5.880E-08 alpha_mix =  0.700 |ddv_scf|^2 =  1.783E-15

      iter #  10 total cpu time :   578.6 secs   av.it.:   8.1
      thresh= 4.222E-09 alpha_mix =  0.700 |ddv_scf|^2 =  5.086E-18

     End of self-consistent calculation

     Convergence has been achieved 


     Representation #  2 mode #   2

     Self-consistent Calculation

      iter #   1 total cpu time :   581.1 secs   av.it.:   6.3
      thresh= 1.000E-02 alpha_mix =  0.700 |ddv_scf|^2 =  7.595E-03

      iter #   2 total cpu time :   582.6 secs   av.it.:   7.2
      thresh= 8.715E-03 alpha_mix =  0.700 |ddv_scf|^2 =  1.408E+00

      iter #   3 total cpu time :   592.5 secs   av.it.:   7.0
      thresh= 1.000E-02 alpha_mix =  0.700 |ddv_scf|^2 =  8.950E-07

      iter #   4 total cpu time :   603.7 secs   av.it.:   8.0
      thresh= 9.460E-05 alpha_mix =  0.700 |ddv_scf|^2 =  1.825E-08

      iter #   5 total cpu time :   607.3 secs   av.it.:   8.6
      thresh= 1.351E-05 alpha_mix =  0.700 |ddv_scf|^2 =  2.315E-10

      iter #   6 total cpu time :   609.3 secs   av.it.:   8.2
      thresh= 1.521E-06 alpha_mix =  0.700 |ddv_scf|^2 =  6.923E-10

      iter #   7 total cpu time :   618.3 secs   av.it.:   5.2
      thresh= 2.631E-06 alpha_mix =  0.700 |ddv_scf|^2 =  9.146E-12

      iter #   8 total cpu time :   619.4 secs   av.it.:   7.6
      thresh= 3.024E-07 alpha_mix =  0.700 |ddv_scf|^2 =  5.409E-14

      iter #   9 total cpu time :   621.0 secs   av.it.:   8.6
      thresh= 2.326E-08 alpha_mix =  0.700 |ddv_scf|^2 =  6.474E-14

      iter #  10 total cpu time :   622.3 secs   av.it.:   6.6
      thresh= 2.544E-08 alpha_mix =  0.700 |ddv_scf|^2 =  1.586E-17

     End of self-consistent calculation

     Convergence has been achieved 


     Representation #  3 mode #   3

     Self-consistent Calculation

      iter #   1 total cpu time :   625.6 secs   av.it.:   5.4
      thresh= 1.000E-02 alpha_mix =  0.700 |ddv_scf|^2 =  1.027E-06

      iter #   2 total cpu time :   629.0 secs   av.it.:   8.5
      thresh= 1.014E-04 alpha_mix =  0.700 |ddv_scf|^2 =  6.225E-08

      iter #   3 total cpu time :   631.9 secs   av.it.:   8.9
      thresh= 2.495E-05 alpha_mix =  0.700 |ddv_scf|^2 =  7.012E-10

      iter #   4 total cpu time :   635.0 secs   av.it.:   8.2
      thresh= 2.648E-06 alpha_mix =  0.700 |ddv_scf|^2 =  1.188E-12

      iter #   5 total cpu time :   639.8 secs   av.it.:   8.2
      thresh= 1.090E-07 alpha_mix =  0.700 |ddv_scf|^2 =  1.575E-14

      iter #   6 total cpu time :   649.0 secs   av.it.:   7.8
      thresh= 1.255E-08 alpha_mix =  0.700 |ddv_scf|^2 =  1.676E-17

     End of self-consistent calculation

     Convergence has been achieved 
 
     Number of q in the star =   24
     List of q in the star:
          1  -0.100000000  -0.100000000   0.200000000
          2  -0.100000000  -0.200000000   0.100000000
          3   0.100000000  -0.200000000   0.100000000
          4   0.100000000   0.200000000  -0.100000000
          5   0.100000000   0.100000000  -0.200000000
          6  -0.100000000   0.200000000  -0.100000000
          7  -0.100000000   0.100000000  -0.200000000
          8   0.200000000   0.100000000  -0.100000000
          9  -0.200000000   0.100000000   0.100000000
         10   0.200000000  -0.100000000   0.100000000
         11  -0.200000000  -0.100000000  -0.100000000
         12  -0.100000000  -0.100000000  -0.200000000
         13  -0.100000000   0.100000000   0.200000000
         14  -0.100000000   0.200000000   0.100000000
         15  -0.100000000  -0.200000000  -0.100000000
         16   0.100000000   0.100000000   0.200000000
         17   0.100000000  -0.200000000  -0.100000000
         18   0.200000000  -0.100000000  -0.100000000
         19   0.200000000   0.100000000   0.100000000
         20  -0.200000000   0.100000000  -0.100000000
         21  -0.200000000  -0.100000000   0.100000000
         22   0.100000000  -0.100000000  -0.200000000
         23   0.100000000  -0.100000000   0.200000000
         24   0.100000000   0.200000000   0.100000000

     Diagonalizing the dynamical matrix

     q = (   -0.100000000  -0.100000000   0.200000000 ) 

 **************************************************************************
     freq (    1) =       1.634172 [THz] =      54.510113 [cm-1]
     freq (    2) =       2.788441 [THz] =      93.012374 [cm-1]
     freq (    3) =       4.639484 [THz] =     154.756514 [cm-1]
 **************************************************************************

     Mode symmetry, C_s (m)     point group:

     freq (  1 -  1) =         54.5  [cm-1]   --> A'                 
     freq (  2 -  2) =         93.0  [cm-1]   --> A''                
     freq (  3 -  3) =        154.8  [cm-1]   --> A'                 

     Calculation of q =   -0.1000000  -0.2000000   0.3000000
 
     G-vector sticks info
     --------------------
     sticks:   dense  smooth     PW     G-vecs:    dense   smooth      PW
     Sum        1151     571    201                24835     8685    1745
 


     bravais-lattice index     =            3
     lattice parameter (alat)  =       6.5313  a.u.
     unit-cell volume          =     139.3078 (a.u.)^3
     number of atoms/cell      =            1
     number of atomic types    =            1
     number of electrons       =         3.00
     number of Kohn-Sham states=            6
     kinetic-energy cutoff     =      60.0000  Ry
     charge density cutoff     =     480.0000  Ry
     Exchange-correlation      =  SLA  PW   PBX  PBC ( 1  4  3  4 0 0)

     celldm(1)=   6.531332  celldm(2)=   0.000000  celldm(3)=   0.000000
     celldm(4)=   0.000000  celldm(5)=   0.000000  celldm(6)=   0.000000

     crystal axes: (cart. coord. in units of alat)
               a(1) = (   0.500000   0.500000   0.500000 )  
               a(2) = (  -0.500000   0.500000   0.500000 )  
               a(3) = (  -0.500000  -0.500000   0.500000 )  

     reciprocal axes: (cart. coord. in units 2 pi/alat)
               b(1) = (  1.000000  0.000000  1.000000 )  
               b(2) = ( -1.000000  1.000000  0.000000 )  
               b(3) = (  0.000000 -1.000000  1.000000 )  


     PseudoPot. # 1 for Li read from file:
     ../Li.pbe-s-gbrv14.UPF
     MD5 check sum: 7ca33c4f951f001da2db5c8738379802
     Pseudo is Ultrasoft, Zval =  3.0
     Generated by new atomic code, or converted to UPF format
     Using radial grid of  751 points,  5 beta functions with: 
                l(1) =   0
                l(2) =   0
                l(3) =   0
                l(4) =   1
                l(5) =   1
     Q(r) pseudized with 10 coefficients,  rinner =    1.150   1.150   1.150


     atomic species   valence    mass     pseudopotential
        Li             3.00     6.94100     Li( 1.00)

     48 Sym. Ops., with inversion, found



   Cartesian axes

     site n.     atom                  positions (alat units)
         1           Li  tau(   1) = (   0.0000000   0.0000000   0.0000000  )

     number of k points= 43904  Marzari-Vanderbilt smearing, width (Ry)=  0.0200

     Number of k-points >= 100: set verbosity='high' to print them.

     Dense  grid:    24835 G-vectors     FFT dimensions: (  40,  40,  40)

     Smooth grid:     8685 G-vectors     FFT dimensions: (  27,  27,  27)

     Largest allocated arrays     est. size (Mb)     dimensions
        Kohn-Sham Wavefunctions         0.10 Mb     (    1120,    6)
        NL pseudopotentials             0.15 Mb     (    1120,    9)
        Each V/rho on FFT grid          0.98 Mb     (   64000)
        Each G-vector array             0.19 Mb     (   24835)
        G-vector shells                 0.00 Mb     (     239)
     Largest temporary arrays     est. size (Mb)     dimensions
        Auxiliary wavefunctions         0.41 Mb     (    1120,   24)
        Each subspace H/S matrix        0.01 Mb     (      24,   24)
        Each <psi_i|beta_j> matrix      0.00 Mb     (       9,    6)

     The potential is recalculated from file :
     ./tmp/_ph0/li-bcc.save/charge-density.dat

     Starting wfc are    5 atomic +    1 random wfc

     Band Structure Calculation
     Davidson diagonalization with overlap

     ethr =  3.33E-10,  avg # of iterations = 17.4

     total cpu time spent up to now is       80.7 secs

     End of band structure calculation

[...]
        1     Li   6.9410   tau(    1) = (    0.00000    0.00000    0.00000  )

     Computing dynamical matrix for 
                    q = (   0.0000000   0.9000000  -0.1000000 )
 
      4 Sym.Ops. (no q -> -q+G )


     G cutoff =  518.6627  (  24835 G-vectors)     FFT grid: ( 40, 40, 40)
     G cutoff =  259.3314  (   8685 G-vectors)  smooth grid: ( 27, 27, 27)

     number of k points= 11760  Marzari-Vanderbilt smearing, width (Ry)=  0.0200

     PseudoPot. # 1 for Li read from file:
     ../Li.pbe-s-gbrv14.UPF
     MD5 check sum: 7ca33c4f951f001da2db5c8738379802
     Pseudo is Ultrasoft, Zval =  3.0
     Generated by new atomic code, or converted to UPF format
     Using radial grid of  751 points,  5 beta functions with: 
                l(1) =   0
                l(2) =   0
                l(3) =   0
                l(4) =   1
                l(5) =   1
     Q(r) pseudized with 10 coefficients,  rinner =    1.150   1.150   1.150


     Mode symmetry, C_2v (mm2)  point group:


     Atomic displacements:
     There are   3 irreducible representations

     Representation     1      1 modes -A_1  D_1  S_1  To be done

     Representation     2      1 modes -B_1  D_3  S_3  To be done

     Representation     3      1 modes -B_2  D_4  S_4  To be done



     Alpha used in Ewald sum =   2.8000
     PHONON       : 19m38.79s CPU    22m50.99s WALL



     Representation #  1 mode #   1

     Self-consistent Calculation

      iter #   1 total cpu time :  1371.6 secs   av.it.:   6.2
      thresh= 1.000E-02 alpha_mix =  0.700 |ddv_scf|^2 =  2.081E-06

      iter #   2 total cpu time :  1372.8 secs   av.it.:   8.8
      thresh= 1.442E-04 alpha_mix =  0.700 |ddv_scf|^2 =  9.148E-08

      iter #   3 total cpu time :  1380.6 secs   av.it.:   8.7
      thresh= 3.025E-05 alpha_mix =  0.700 |ddv_scf|^2 =  6.345E-09

      iter #   4 total cpu time :  1382.0 secs   av.it.:   8.7
      thresh= 7.966E-06 alpha_mix =  0.700 |ddv_scf|^2 =  6.463E-11

      iter #   5 total cpu time :  1383.7 secs   av.it.:   8.9
      thresh= 8.039E-07 alpha_mix =  0.700 |ddv_scf|^2 =  1.866E-13

      iter #   6 total cpu time :  1384.7 secs   av.it.:   9.6
      thresh= 4.320E-08 alpha_mix =  0.700 |ddv_scf|^2 =  2.402E-15

      iter #   7 total cpu time :  1386.1 secs   av.it.:   9.4
      thresh= 4.901E-09 alpha_mix =  0.700 |ddv_scf|^2 =  1.122E-16

      iter #   8 total cpu time :  1387.7 secs   av.it.:   9.0
      thresh= 1.059E-09 alpha_mix =  0.700 |ddv_scf|^2 =  2.853E-19

     End of self-consistent calculation

     Convergence has been achieved 


     Representation #  2 mode #   2

     Self-consistent Calculation

      iter #   1 total cpu time :  1389.7 secs   av.it.:   6.1
      thresh= 1.000E-02 alpha_mix =  0.700 |ddv_scf|^2 =  2.486E-06

      iter #   2 total cpu time :  1394.0 secs   av.it.:   8.7
      thresh= 1.577E-04 alpha_mix =  0.700 |ddv_scf|^2 =  1.028E-07

      iter #   3 total cpu time :  1398.0 secs   av.it.:   8.4
      thresh= 3.207E-05 alpha_mix =  0.700 |ddv_scf|^2 =  7.160E-09

      iter #   4 total cpu time :  1399.9 secs   av.it.:   8.5
      thresh= 8.462E-06 alpha_mix =  0.700 |ddv_scf|^2 =  7.027E-11

      iter #   5 total cpu time :  1401.3 secs   av.it.:   8.6
      thresh= 8.383E-07 alpha_mix =  0.700 |ddv_scf|^2 =  6.533E-14

      iter #   6 total cpu time :  1401.9 secs   av.it.:   8.4
      thresh= 2.556E-08 alpha_mix =  0.700 |ddv_scf|^2 =  6.689E-16

      iter #   7 total cpu time :  1402.6 secs   av.it.:   8.3
      thresh= 2.586E-09 alpha_mix =  0.700 |ddv_scf|^2 =  8.532E-18

     End of self-consistent calculation

     Convergence has been achieved 


     Representation #  3 mode #   3

     Self-consistent Calculation

      iter #   1 total cpu time :  1404.4 secs   av.it.:   6.0
      thresh= 1.000E-02 alpha_mix =  0.700 |ddv_scf|^2 =  1.846E-06

      iter #   2 total cpu time :  1407.9 secs   av.it.:   8.6
      thresh= 1.359E-04 alpha_mix =  0.700 |ddv_scf|^2 =  7.249E-08

      iter #   3 total cpu time :  1408.6 secs   av.it.:   8.5
      thresh= 2.692E-05 alpha_mix =  0.700 |ddv_scf|^2 =  5.067E-09

      iter #   4 total cpu time :  1409.3 secs   av.it.:   8.1
      thresh= 7.118E-06 alpha_mix =  0.700 |ddv_scf|^2 =  1.463E-12

      iter #   5 total cpu time :  1410.0 secs   av.it.:   8.4
      thresh= 1.210E-07 alpha_mix =  0.700 |ddv_scf|^2 =  1.312E-14

      iter #   6 total cpu time :  1410.8 secs   av.it.:   8.2
      thresh= 1.146E-08 alpha_mix =  0.700 |ddv_scf|^2 =  2.598E-16

      iter #   7 total cpu time :  1411.4 secs   av.it.:   8.4
      thresh= 1.612E-09 alpha_mix =  0.700 |ddv_scf|^2 =  2.309E-19

     End of self-consistent calculation

     Convergence has been achieved 
 
     Number of q in the star =   12
     List of q in the star:
          1   0.000000000   0.900000000  -0.100000000
          2  -0.900000000   0.000000000  -0.100000000
          3   0.000000000  -0.900000000  -0.100000000
          4   0.900000000   0.000000000  -0.100000000
          5  -0.100000000  -0.900000000   0.000000000
          6   0.100000000  -0.900000000   0.000000000
          7  -0.100000000   0.900000000   0.000000000
          8   0.100000000   0.900000000   0.000000000
          9   0.900000000   0.000000000   0.100000000
         10   0.000000000   0.100000000  -0.900000000
         11   0.000000000  -0.100000000  -0.900000000
         12   0.100000000   0.000000000  -0.900000000

     Diagonalizing the dynamical matrix

     q = (    0.000000000   0.900000000  -0.100000000 ) 

 **************************************************************************
     freq (    1) =       9.067847 [THz] =     302.470828 [cm-1]
     freq (    2) =       9.492158 [THz] =     316.624294 [cm-1]
     freq (    3) =       9.527568 [THz] =     317.805465 [cm-1]
 **************************************************************************

     Mode symmetry, C_2v (mm2)  point group:

     freq (  1 -  1) =        302.5  [cm-1]   --> A_1  D_1  S_1      
     freq (  2 -  2) =        316.6  [cm-1]   --> B_1  D_3  S_3      
     freq (  3 -  3) =        317.8  [cm-1]   --> B_2  D_4  S_4      

     Calculation of q =    0.0000000   0.0000000  -1.0000000
 
     G-vector sticks info
     --------------------
     sticks:   dense  smooth     PW     G-vecs:    dense   smooth      PW
     Sum        1151     571    213                24835     8685    1961
 


     bravais-lattice index     =            3
     lattice parameter (alat)  =       6.5313  a.u.
     unit-cell volume          =     139.3078 (a.u.)^3
     number of atoms/cell      =            1
     number of atomic types    =            1
     number of electrons       =         3.00
     number of Kohn-Sham states=            6
     kinetic-energy cutoff     =      60.0000  Ry
     charge density cutoff     =     480.0000  Ry
     Exchange-correlation      =  SLA  PW   PBX  PBC ( 1  4  3  4 0 0)

     celldm(1)=   6.531332  celldm(2)=   0.000000  celldm(3)=   0.000000
     celldm(4)=   0.000000  celldm(5)=   0.000000  celldm(6)=   0.000000

     crystal axes: (cart. coord. in units of alat)
               a(1) = (   0.500000   0.500000   0.500000 )  
               a(2) = (  -0.500000   0.500000   0.500000 )  
               a(3) = (  -0.500000  -0.500000   0.500000 )  

     reciprocal axes: (cart. coord. in units 2 pi/alat)
               b(1) = (  1.000000  0.000000  1.000000 )  
               b(2) = ( -1.000000  1.000000  0.000000 )  
               b(3) = (  0.000000 -1.000000  1.000000 )  


     PseudoPot. # 1 for Li read from file:
     ../Li.pbe-s-gbrv14.UPF
     MD5 check sum: 7ca33c4f951f001da2db5c8738379802
     Pseudo is Ultrasoft, Zval =  3.0
     Generated by new atomic code, or converted to UPF format
     Using radial grid of  751 points,  5 beta functions with: 
                l(1) =   0
                l(2) =   0
                l(3) =   0
                l(4) =   1
                l(5) =   1
     Q(r) pseudized with 10 coefficients,  rinner =    1.150   1.150   1.150


     atomic species   valence    mass     pseudopotential
        Li             3.00     6.94100     Li( 1.00)

     48 Sym. Ops., with inversion, found



   Cartesian axes

     site n.     atom                  positions (alat units)
         1           Li  tau(   1) = (   0.0000000   0.0000000   0.0000000  )

     number of k points=  1232  Marzari-Vanderbilt smearing, width (Ry)=  0.0200

     Number of k-points >= 100: set verbosity='high' to print them.

     Dense  grid:    24835 G-vectors     FFT dimensions: (  40,  40,  40)

     Smooth grid:     8685 G-vectors     FFT dimensions: (  27,  27,  27)

     Largest allocated arrays     est. size (Mb)     dimensions
        Kohn-Sham Wavefunctions         0.10 Mb     (    1120,    6)
        NL pseudopotentials             0.15 Mb     (    1120,    9)
        Each V/rho on FFT grid          0.98 Mb     (   64000)
        Each G-vector array             0.19 Mb     (   24835)
        G-vector shells                 0.00 Mb     (     239)
     Largest temporary arrays     est. size (Mb)     dimensions
        Auxiliary wavefunctions         0.41 Mb     (    1120,   24)
        Each subspace H/S matrix        0.01 Mb     (      24,   24)
        Each <psi_i|beta_j> matrix      0.00 Mb     (       9,    6)

     The potential is recalculated from file :
     ./tmp/_ph0/li-bcc.save/charge-density.dat

     Starting wfc are    5 atomic +    1 random wfc

     Band Structure Calculation
     Davidson diagonalization with overlap

     ethr =  3.33E-10,  avg # of iterations = 17.4

     total cpu time spent up to now is      230.0 secs

     End of band structure calculation

     Number of k-points >= 100: set verbosity='high' to print the bands.

     the Fermi energy is     0.8956 ev

                                                                                

     bravais-lattice index     =            3
     lattice parameter (alat)  =       6.5313  a.u.
     unit-cell volume          =     139.3078 (a.u.)^3
     number of atoms/cell      =            1
     number of atomic types    =            1
     kinetic-energy cut-off    =      60.0000  Ry
     charge density cut-off    =     480.0000  Ry
     convergence threshold     =      1.0E-16
     beta                      =       0.7000
     number of iterations used =            4
     Exchange-correlation      =  SLA  PW   PBX  PBC ( 1  4  3  4 0 0)


     celldm(1)=    6.53133  celldm(2)=    0.00000  celldm(3)=    0.00000
     celldm(4)=    0.00000  celldm(5)=    0.00000  celldm(6)=    0.00000

     crystal axes: (cart. coord. in units of alat)
               a(1) = (  0.5000  0.5000  0.5000 )  
               a(2) = ( -0.5000  0.5000  0.5000 )  
               a(3) = ( -0.5000 -0.5000  0.5000 )  

     reciprocal axes: (cart. coord. in units 2 pi/alat)
               b(1) = (  1.0000  0.0000  1.0000 )  
               b(2) = ( -1.0000  1.0000  0.0000 )  
               b(3) = (  0.0000 -1.0000  1.0000 )  


     Atoms inside the unit cell: 

     Cartesian axes

     site n.  atom      mass           positions (alat units)
        1     Li   6.9410   tau(    1) = (    0.00000    0.00000    0.00000  )

     Computing dynamical matrix for 
                    q = (   0.0000000   0.0000000  -1.0000000 )
 
     49 Sym.Ops. (with q -> -q+G )


     G cutoff =  518.6627  (  24835 G-vectors)     FFT grid: ( 40, 40, 40)
     G cutoff =  259.3314  (   8685 G-vectors)  smooth grid: ( 27, 27, 27)

     number of k points=  1232  Marzari-Vanderbilt smearing, width (Ry)=  0.0200

     PseudoPot. # 1 for Li read from file:
     ../Li.pbe-s-gbrv14.UPF
     MD5 check sum: 7ca33c4f951f001da2db5c8738379802
     Pseudo is Ultrasoft, Zval =  3.0
     Generated by new atomic code, or converted to UPF format
     Using radial grid of  751 points,  5 beta functions with: 
                l(1) =   0
                l(2) =   0
                l(3) =   0
                l(4) =   1
                l(5) =   1
     Q(r) pseudized with 10 coefficients,  rinner =    1.150   1.150   1.150


     Mode symmetry, O_h (m-3m)  point group:


     Atomic displacements:
     There are   1 irreducible representations

     Representation     1      3 modes -T_1u G_15  G_4-  To be done



     Alpha used in Ewald sum =   2.8000
     PHONON       : 20m18.26s CPU    23m38.01s WALL



     Representation #  1 modes #   1  2  3

     Self-consistent Calculation

      iter #   1 total cpu time :  1418.8 secs   av.it.:   6.1
      thresh= 1.000E-02 alpha_mix =  0.700 |ddv_scf|^2 =  2.156E-07

      iter #   2 total cpu time :  1421.6 secs   av.it.:   9.5
      thresh= 4.643E-05 alpha_mix =  0.700 |ddv_scf|^2 =  8.192E-09

      iter #   3 total cpu time :  1431.8 secs   av.it.:   9.5
      thresh= 9.051E-06 alpha_mix =  0.700 |ddv_scf|^2 =  6.051E-10

      iter #   4 total cpu time :  1444.9 secs   av.it.:   8.9
      thresh= 2.460E-06 alpha_mix =  0.700 |ddv_scf|^2 =  1.485E-13

      iter #   5 total cpu time :  1447.7 secs   av.it.:   9.2
      thresh= 3.854E-08 alpha_mix =  0.700 |ddv_scf|^2 =  1.235E-15

      iter #   6 total cpu time :  1450.0 secs   av.it.:   9.1
      thresh= 3.515E-09 alpha_mix =  0.700 |ddv_scf|^2 =  2.496E-17

     End of self-consistent calculation

     Convergence has been achieved 
 
     Number of q in the star =    1
     List of q in the star:
          1   0.000000000   0.000000000  -1.000000000

     Diagonalizing the dynamical matrix

     q = (    0.000000000   0.000000000  -1.000000000 ) 

 **************************************************************************
     freq (    1) =       9.767606 [THz] =     325.812259 [cm-1]
     freq (    2) =       9.767606 [THz] =     325.812259 [cm-1]
     freq (    3) =       9.767606 [THz] =     325.812259 [cm-1]
 **************************************************************************

     Mode symmetry, O_h (m-3m)  point group:

     freq (  1 -  3) =        325.8  [cm-1]   --> T_1u G_15  G_4-    
 
     init_run     :     55.35s CPU     57.20s WALL (      18 calls)
     electrons    :    133.73s CPU    143.01s WALL (      18 calls)

     Called by init_run:
     wfcinit      :      0.00s CPU      0.12s WALL (      18 calls)
     potinit      :     51.74s CPU     52.01s WALL (      18 calls)

     Called by electrons:
     c_bands      :    133.65s CPU    142.93s WALL (      18 calls)
     v_of_rho     :      0.79s CPU      0.80s WALL (      19 calls)
     newd         :      0.34s CPU      0.35s WALL (      19 calls)

     Called by c_bands:
     init_us_2    :      3.27s CPU      3.37s WALL (   16506 calls)
     cegterg      :     72.25s CPU     72.87s WALL (    1386 calls)

     Called by sum_band:

     Called by *egterg:
     h_psi        :     68.15s CPU     68.64s WALL (   22452 calls)
     s_psi        :      8.84s CPU      8.94s WALL (  269786 calls)
     g_psi        :      0.52s CPU      0.53s WALL (   20028 calls)
     cdiaghg      :      2.76s CPU      2.86s WALL (   21066 calls)

     Called by h_psi:
     add_vuspsi   :      5.83s CPU      5.98s WALL (  139885 calls)

     General routines
     calbec       :      6.21s CPU      6.37s WALL (  297305 calls)
     fft          :     11.75s CPU     11.62s WALL (    6548 calls)
     ffts         :      1.39s CPU      1.52s WALL (    2653 calls)
     fftw         :    258.40s CPU    261.27s WALL (  704902 calls)
     interpolate  :      0.08s CPU      0.10s WALL (      36 calls)
     davcio       :      0.12s CPU      0.36s WALL (    3114 calls)
 
     Parallel routines
     fft_scatter  :     15.15s CPU     15.56s WALL (  714103 calls)
 
     PHONON       : 21m 4.17s CPU    24m26.37s WALL

     INITIALIZATION: 
     phq_setup    :      1.88s CPU      7.29s WALL (      18 calls)
     phq_init     :     38.50s CPU     45.34s WALL (      18 calls)
 
     phq_init     :     38.50s CPU     45.34s WALL (      18 calls)
     init_vloc    :      0.02s CPU      0.03s WALL (      19 calls)
     init_us_1    :      2.50s CPU      2.51s WALL (      19 calls)
     newd         :      0.34s CPU      0.35s WALL (      19 calls)
     dvanqq       :      2.14s CPU      2.15s WALL (      18 calls)
     drho         :     33.07s CPU     33.26s WALL (      18 calls)
 
     DYNAMICAL MATRIX:
     dynmat0      :      0.62s CPU      3.01s WALL (      18 calls)
     phqscf       :    954.68s CPU   1106.19s WALL (      18 calls)
     dynmatrix    :     40.31s CPU     43.75s WALL (      18 calls)
 
     phqscf       :    954.68s CPU   1106.19s WALL (      18 calls)
     solve_linter :    953.58s CPU   1096.33s WALL (      46 calls)
     drhodv       :      0.88s CPU      0.96s WALL (      46 calls)
 
     dynmat0      :      0.62s CPU      3.01s WALL (      18 calls)
     dynmat_us    :      0.46s CPU      0.47s WALL (      18 calls)
     d2ionq       :      0.06s CPU      0.07s WALL (      18 calls)
 
     dynmat_us    :      0.46s CPU      0.47s WALL (      18 calls)
     addusdynmat  :      0.00s CPU      0.00s WALL (      18 calls)
 
     phqscf       :    954.68s CPU   1106.19s WALL (      18 calls)
     solve_linter :    953.58s CPU   1096.33s WALL (      46 calls)
 
     solve_linter :    953.58s CPU   1096.33s WALL (      46 calls)
     dvqpsi_us    :      8.62s CPU      8.92s WALL (    1557 calls)
     ortho        :      1.98s CPU      2.13s WALL (   12468 calls)
     cgsolve      :    202.18s CPU    204.41s WALL (   12468 calls)
     incdrhoscf   :     22.11s CPU     22.20s WALL (   12468 calls)
     addusddens   :      9.88s CPU      9.92s WALL (     402 calls)
     vpsifft      :     17.76s CPU     18.06s WALL (   10911 calls)
     dv_of_drho   :     15.78s CPU     15.90s WALL (     407 calls)
     mix_pot      :      2.20s CPU      2.18s WALL (     356 calls)
     psymdvscf    :      7.08s CPU      7.15s WALL (     304 calls)
     newdq        :      9.40s CPU      9.42s WALL (     356 calls)
     adddvscf     :      0.65s CPU      0.69s WALL (   10911 calls)
     drhodvus     :      0.12s CPU      0.12s WALL (      46 calls)
 
     dvqpsi_us    :      8.62s CPU      8.92s WALL (    1557 calls)
     dvqpsi_us_on :      0.46s CPU      0.52s WALL (    1557 calls)
 
     cgsolve      :    202.18s CPU    204.41s WALL (   12468 calls)
     ch_psi       :    199.40s CPU    201.60s WALL (  117433 calls)
 
     ch_psi       :    199.40s CPU    201.60s WALL (  117433 calls)
     h_psiq       :    189.63s CPU    192.08s WALL (  117433 calls)
     last         :      8.80s CPU      8.67s WALL (  117433 calls)
 
     h_psiq       :    189.63s CPU    192.08s WALL (  117433 calls)
     firstfft     :     93.85s CPU     94.89s WALL (  214825 calls)
     secondfft    :     78.30s CPU     79.37s WALL (  214825 calls)
     add_vuspsi   :      5.83s CPU      5.98s WALL (  139885 calls)
 
     incdrhoscf   :     22.11s CPU     22.20s WALL (   12468 calls)
     addusdbec    :      0.79s CPU      0.73s WALL (   14025 calls)
 
     drhodvus     :      0.12s CPU      0.12s WALL (      46 calls)
 
      General routines
     calbec       :      6.21s CPU      6.37s WALL (  297305 calls)
     fft          :     11.75s CPU     11.62s WALL (    6548 calls)
     ffts         :      1.39s CPU      1.52s WALL (    2653 calls)
     fftw         :    258.40s CPU    261.27s WALL (  704902 calls)
     cinterpolate :      2.24s CPU      2.27s WALL (     868 calls)
     davcio       :      0.12s CPU      0.36s WALL (    3114 calls)
     write_rec    :      1.23s CPU    146.16s WALL (     402 calls)
 
 
     PHONON       : 21m 4.17s CPU    24m26.38s WALL

 
   This run was terminated on:  13:18:20   1Jun2016            

=------------------------------------------------------------------------------=
   JOB DONE.
=------------------------------------------------------------------------------=
Application 21887869 resources: utime ~396667s, stime ~2303s, Rss ~117736, inblocks ~140358657, outblocks ~428711869
