
     Program MATDYN v.5.4.0 starts on  3Jun2016 at 17:26:22 

     This program is part of the open-source Quantum ESPRESSO suite
     for quantum simulation of materials; please cite
         "P. Giannozzi et al., J. Phys.:Condens. Matter 21 395502 (2009);
          URL http://www.quantum-espresso.org", 
     in publications or presentations arising from this work. More details at
     http://www.quantum-espresso.org/quote

     Parallel version (MPI), running on     2 processors
     R & G space division:  proc/nbgrp/npool/nimage =       2
 mass for atomic type   1 not given; uses mass from file bcc-li.10x.fc                                                                                                                                                                                                                                                   
Norm of the difference between old and new effective charges:    0.00000000000000000000
Norm of the difference between old and new force-constants:   0.00000233603670819360
     Message from routine matdyn:
     Z* not found in file bcc-li.10x.fc, TO-LO splitting at q=0 will be absent!
     A direction for q was not specified:TO-LO splitting will be absent

     MATDYN       :    15.64s CPU        15.52s WALL


   This run was terminated on:  17:26:38   3Jun2016            

=------------------------------------------------------------------------------=
   JOB DONE.
=------------------------------------------------------------------------------=

     Program MATDYN v.5.4.0 starts on 15Sep2016 at 10:50:54 

     This program is part of the open-source Quantum ESPRESSO suite
     for quantum simulation of materials; please cite
         "P. Giannozzi et al., J. Phys.:Condens. Matter 21 395502 (2009);
          URL http://www.quantum-espresso.org", 
     in publications or presentations arising from this work. More details at
     http://www.quantum-espresso.org/quote

     Parallel version (MPI), running on     2 processors
     R & G space division:  proc/nbgrp/npool/nimage =       2
 mass for atomic type   1 not given; uses mass from file bcc-li.10x.fc                                                                                                                                                                                                                                                   
Norm of the difference between old and new effective charges:    0.00000000000000000000
Norm of the difference between old and new force-constants:   0.00000233603670819360
     Message from routine matdyn:
     Z* not found in file bcc-li.10x.fc, TO-LO splitting at q=0 will be absent!
     A direction for q was not specified:TO-LO splitting will be absent

     MATDYN       :  1m38.83s CPU     1m43.87s WALL


   This run was terminated on:  10:52:38  15Sep2016            

=------------------------------------------------------------------------------=
   JOB DONE.
=------------------------------------------------------------------------------=

     Program MATDYN v.5.4.0 starts on 15Sep2016 at 11:29:35 

     This program is part of the open-source Quantum ESPRESSO suite
     for quantum simulation of materials; please cite
         "P. Giannozzi et al., J. Phys.:Condens. Matter 21 395502 (2009);
          URL http://www.quantum-espresso.org", 
     in publications or presentations arising from this work. More details at
     http://www.quantum-espresso.org/quote

     Parallel version (MPI), running on     2 processors
     R & G space division:  proc/nbgrp/npool/nimage =       2
 mass for atomic type   1 not given; uses mass from file bcc-li.10x.fc                                                                                                                                                                                                                                                   
Norm of the difference between old and new effective charges:    0.00000000000000000000
Norm of the difference between old and new force-constants:   0.00000233603670819360
     Message from routine matdyn:
     Z* not found in file bcc-li.10x.fc, TO-LO splitting at q=0 will be absent!
     A direction for q was not specified:TO-LO splitting will be absent

     MATDYN       :  1m27.23s CPU     1m27.10s WALL


   This run was terminated on:  11:31: 2  15Sep2016            

=------------------------------------------------------------------------------=
   JOB DONE.
=------------------------------------------------------------------------------=
