
     Program PHONON v.6.1 (svn rev. 13369) starts on 21Dec2017 at 11:47:38 

     This program is part of the open-source Quantum ESPRESSO suite
     for quantum simulation of materials; please cite
         "P. Giannozzi et al., J. Phys.:Condens. Matter 21 395502 (2009);
          URL http://www.quantum-espresso.org", 
     in publications or presentations arising from this work. More details at
     http://www.quantum-espresso.org/quote

     Parallel version (MPI), running on     4 processors
     R & G space division:  proc/nbgrp/npool/nimage =       4

     Reading data from directory:
     ./na.bcc.save

   Info: using nr1, nr2, nr3 values from input

   Info: using nr1, nr2, nr3 values from input

     IMPORTANT: XC functional enforced from input :
     Exchange-correlation      = SLA  PW   PBE  PBE ( 1  4  3  4 0 0)
     Any further DFT definition will be discarded
     Please, verify this is what you really want


     Parallelization info
     --------------------
     sticks:   dense  smooth     PW     G-vecs:    dense   smooth      PW
     Min         200      99     32                 3590     1270     239
     Max         201     100     33                 3593     1273     242
     Sum         801     399    129                14363     5089     959



     Dynamical matrices for ( 8, 8, 8)  uniform grid of q-points
     (  29q-points):
       N         xq(1)         xq(2)         xq(3) 
       1   0.000000000   0.000000000   0.000000000
       2   0.000000000  -0.125000000   0.125000000
       3   0.000000000  -0.250000000   0.250000000
       4   0.000000000  -0.375000000   0.375000000
       5   0.000000000   0.500000000  -0.500000000
       6  -0.125000000  -0.125000000   0.250000000
       7  -0.125000000  -0.250000000   0.375000000
       8  -0.125000000   0.625000000  -0.500000000
       9  -0.250000000   0.750000000  -0.500000000
      10  -0.250000000   0.625000000  -0.375000000
      11   0.000000000   0.000000000   0.250000000
      12   0.000000000  -0.125000000   0.375000000
      13   0.000000000  -0.250000000   0.500000000
      14   0.000000000   0.625000000  -0.375000000
      15  -0.125000000  -0.125000000   0.500000000
      16  -0.125000000   0.750000000  -0.375000000
      17  -0.250000000   0.250000000   0.250000000
      18  -0.250000000   0.750000000  -0.250000000
      19   0.625000000  -0.625000000   0.250000000
      20   0.500000000  -0.500000000   0.250000000
      21   0.500000000  -0.625000000   0.375000000
      22   0.000000000   0.000000000   0.500000000
      23   0.000000000  -0.125000000   0.625000000
      24   0.000000000   0.750000000  -0.250000000
      25  -0.125000000   0.875000000  -0.250000000
      26   0.500000000  -0.500000000   0.500000000
      27   0.000000000   0.000000000   0.750000000
      28   0.000000000   0.875000000  -0.125000000
      29   0.000000000   0.000000000  -1.000000000

     Calculation of q =    0.0000000   0.0000000   0.0000000

                                                                                

     bravais-lattice index     =            3
     lattice parameter (alat)  =       6.6814  a.u.
     unit-cell volume          =     149.1323 (a.u.)^3
     number of atoms/cell      =            1
     number of atomic types    =            1
     kinetic-energy cut-off    =      40.0000  Ry
     charge density cut-off    =     320.0000  Ry
     convergence threshold     =      1.0E-12
     beta                      =       0.7000
     number of iterations used =            4
     Exchange-correlation      = SLA  PW   PBE  PBE ( 1  4  3  4 0 0)


     celldm(1)=    6.68140  celldm(2)=    0.00000  celldm(3)=    0.00000
     celldm(4)=    0.00000  celldm(5)=    0.00000  celldm(6)=    0.00000

     crystal axes: (cart. coord. in units of alat)
               a(1) = (  0.5000  0.5000  0.5000 )  
               a(2) = ( -0.5000  0.5000  0.5000 )  
               a(3) = ( -0.5000 -0.5000  0.5000 )  

     reciprocal axes: (cart. coord. in units 2 pi/alat)
               b(1) = (  1.0000  0.0000  1.0000 )  
               b(2) = ( -1.0000  1.0000  0.0000 )  
               b(3) = (  0.0000 -1.0000  1.0000 )  


     Atoms inside the unit cell: 

     Cartesian axes

     site n.  atom      mass           positions (alat units)
        1     Na  22.9900   tau(    1) = (    0.00000    0.00000    0.00000  )

     Computing dynamical matrix for 
                    q = (   0.0000000   0.0000000   0.0000000 )

     49 Sym.Ops. (with q -> -q+G )


     G cutoff =  361.8467  (   3593 G-vectors)     FFT grid: ( 36, 36, 36)
     G cutoff =  180.9234  (   1273 G-vectors)  smooth grid: ( 24, 24, 24)

     number of k points=   100  Marzari-Vanderbilt smearing, width (Ry)=  0.0200

     PseudoPot. # 1 for Na read from file:
     /home/s1333534/quantum_espresso/qe-6.1/pseudo/Na_pbe_v1.uspp.F.UPF
     MD5 check sum: 76a99c7e9422403d3e93cbc85ab7bccb
     Pseudo is Ultrasoft, Zval =  9.0
     Generated by new atomic code, or converted to UPF format
     Using radial grid of  819 points,  5 beta functions with: 
                l(1) =   0
                l(2) =   0
                l(3) =   1
                l(4) =   1
                l(5) =   2
     Q(r) pseudized with  8 coefficients,  rinner =    1.250   1.250   1.250
                                                       1.250   1.250

     Mode symmetry, O_h (m-3m)  point group:


     Atomic displacements:
     There are   1 irreducible representations

     Representation     1      3 modes -T_1u G_15  G_4-  To be done



     Alpha used in Ewald sum =   2.8000
     PHONON       :     0.89s CPU         0.92s WALL



     Representation #  1 modes #   1  2  3

     Self-consistent Calculation

     Pert. #  1: Fermi energy shift (Ry) =    -6.0660E-24     4.5061E-38
     Pert. #  2: Fermi energy shift (Ry) =     1.1184E-23     2.0473E-37
     Pert. #  3: Fermi energy shift (Ry) =     8.1684E-24     3.1836E-38

      iter #   1 total cpu time :     2.7 secs   av.it.:   5.4
      thresh= 1.000E-02 alpha_mix =  0.700 |ddv_scf|^2 =  2.771E-06

     Pert. #  1: Fermi energy shift (Ry) =     8.2718E-25     3.3673E-40
     Pert. #  2: Fermi energy shift (Ry) =    -3.7912E-25     3.2142E-40
     Pert. #  3: Fermi energy shift (Ry) =    -1.5165E-24    -7.2703E-40

      iter #   2 total cpu time :     4.7 secs   av.it.:   8.3
      thresh= 1.665E-04 alpha_mix =  0.700 |ddv_scf|^2 =  5.595E-08

     Pert. #  1: Fermi energy shift (Ry) =    -1.8956E-25     1.3775E-40
     Pert. #  2: Fermi energy shift (Ry) =     6.8932E-25     3.0612E-41
     Pert. #  3: Fermi energy shift (Ry) =     6.0315E-26     8.4183E-41

      iter #   3 total cpu time :     6.7 secs   av.it.:   8.4
      thresh= 2.365E-05 alpha_mix =  0.700 |ddv_scf|^2 =  5.016E-10

     Pert. #  1: Fermi energy shift (Ry) =     1.7233E-25     7.6530E-42
     Pert. #  2: Fermi energy shift (Ry) =    -8.0133E-25    -1.7984E-40
     Pert. #  3: Fermi energy shift (Ry) =     3.6189E-25     1.7219E-41

      iter #   4 total cpu time :     8.7 secs   av.it.:   7.9
      thresh= 2.240E-06 alpha_mix =  0.700 |ddv_scf|^2 =  1.415E-12

     Pert. #  1: Fermi energy shift (Ry) =    -3.7912E-25     0.0000E+00
     Pert. #  2: Fermi energy shift (Ry) =     1.7233E-26    -4.5918E-41
     Pert. #  3: Fermi energy shift (Ry) =     5.7730E-25    -3.0612E-41

      iter #   5 total cpu time :    10.7 secs   av.it.:   8.2
      thresh= 1.190E-07 alpha_mix =  0.700 |ddv_scf|^2 =  9.985E-15

     End of self-consistent calculation

     Convergence has been achieved 

     Number of q in the star =    1
     List of q in the star:
          1   0.000000000   0.000000000   0.000000000

     Diagonalizing the dynamical matrix

     q = (    0.000000000   0.000000000   0.000000000 ) 

 **************************************************************************
     freq (    1) =       0.453524 [THz] =      15.127926 [cm-1]
     freq (    2) =       0.453524 [THz] =      15.127926 [cm-1]
     freq (    3) =       0.453524 [THz] =      15.127926 [cm-1]
 **************************************************************************

     Mode symmetry, O_h (m-3m)  point group:

     freq (  1 -  3) =         15.1  [cm-1]   --> T_1u G_15  G_4- I  

     Calculation of q =    0.0000000  -0.1250000   0.1250000

   Info: using nr1, nr2, nr3 values from input

   Info: using nr1, nr2, nr3 values from input

     Parallelization info
     --------------------
     sticks:   dense  smooth     PW     G-vecs:    dense   smooth      PW
     Min         200      99     32                 3590     1270     239
     Max         201     100     33                 3593     1273     242
     Sum         801     399    129                14363     5089     959



     bravais-lattice index     =            3
     lattice parameter (alat)  =       6.6814  a.u.
     unit-cell volume          =     149.1323 (a.u.)^3
     number of atoms/cell      =            1
     number of atomic types    =            1
     number of electrons       =         9.00
     number of Kohn-Sham states=            9
     kinetic-energy cutoff     =      40.0000  Ry
     charge density cutoff     =     320.0000  Ry
     Exchange-correlation      = SLA  PW   PBE  PBE ( 1  4  3  4 0 0)

     celldm(1)=   6.681396  celldm(2)=   0.000000  celldm(3)=   0.000000
     celldm(4)=   0.000000  celldm(5)=   0.000000  celldm(6)=   0.000000

     crystal axes: (cart. coord. in units of alat)
               a(1) = (   0.500000   0.500000   0.500000 )  
               a(2) = (  -0.500000   0.500000   0.500000 )  
               a(3) = (  -0.500000  -0.500000   0.500000 )  

     reciprocal axes: (cart. coord. in units 2 pi/alat)
               b(1) = (  1.000000  0.000000  1.000000 )  
               b(2) = ( -1.000000  1.000000  0.000000 )  
               b(3) = (  0.000000 -1.000000  1.000000 )  


     PseudoPot. # 1 for Na read from file:
     /home/s1333534/quantum_espresso/qe-6.1/pseudo/Na_pbe_v1.uspp.F.UPF
     MD5 check sum: 76a99c7e9422403d3e93cbc85ab7bccb
     Pseudo is Ultrasoft, Zval =  9.0
     Generated by new atomic code, or converted to UPF format
     Using radial grid of  819 points,  5 beta functions with: 
                l(1) =   0
                l(2) =   0
                l(3) =   1
                l(4) =   1
                l(5) =   2
     Q(r) pseudized with  8 coefficients,  rinner =    1.250   1.250   1.250
                                                       1.250   1.250

     atomic species   valence    mass     pseudopotential
        Na             9.00    22.99000     Na( 1.00)

     48 Sym. Ops., with inversion, found



   Cartesian axes

     site n.     atom                  positions (alat units)
         1           Na  tau(   1) = (   0.0000000   0.0000000   0.0000000  )

     number of k points=  1568  Marzari-Vanderbilt smearing, width (Ry)=  0.0200

     Number of k-points >= 100: set verbosity='high' to print them.

     Dense  grid:    14363 G-vectors     FFT dimensions: (  36,  36,  36)

     Smooth grid:     5089 G-vectors     FFT dimensions: (  24,  24,  24)

     Estimated max dynamical RAM per process >       1.47MB

     Estimated total allocated dynamical RAM >       5.88MB

     The potential is recalculated from file :
     ./_ph0/na.bcc.save/charge-density.dat

     Starting wfc are    5 atomic +    4 random wfc

     Band Structure Calculation
     Davidson diagonalization with overlap

     ethr =  1.11E-10,  avg # of iterations = 17.9

     total cpu time spent up to now is       26.1 secs

     End of band structure calculation

     Number of k-points >= 100: set verbosity='high' to print the bands.

     the Fermi energy is     4.5134 ev

     Writing output data file na.bcc.save

                                                                                

     bravais-lattice index     =            3
     lattice parameter (alat)  =       6.6814  a.u.
     unit-cell volume          =     149.1323 (a.u.)^3
     number of atoms/cell      =            1
     number of atomic types    =            1
     kinetic-energy cut-off    =      40.0000  Ry
     charge density cut-off    =     320.0000  Ry
     convergence threshold     =      1.0E-12
     beta                      =       0.7000
     number of iterations used =            4
     Exchange-correlation      = SLA  PW   PBE  PBE ( 1  4  3  4 0 0)


     celldm(1)=    6.68140  celldm(2)=    0.00000  celldm(3)=    0.00000
     celldm(4)=    0.00000  celldm(5)=    0.00000  celldm(6)=    0.00000

     crystal axes: (cart. coord. in units of alat)
               a(1) = (  0.5000  0.5000  0.5000 )  
               a(2) = ( -0.5000  0.5000  0.5000 )  
               a(3) = ( -0.5000 -0.5000  0.5000 )  

     reciprocal axes: (cart. coord. in units 2 pi/alat)
               b(1) = (  1.0000  0.0000  1.0000 )  
               b(2) = ( -1.0000  1.0000  0.0000 )  
               b(3) = (  0.0000 -1.0000  1.0000 )  


     Atoms inside the unit cell: 

     Cartesian axes

     site n.  atom      mass           positions (alat units)
        1     Na  22.9900   tau(    1) = (    0.00000    0.00000    0.00000  )

     Computing dynamical matrix for 
                    q = (   0.0000000  -0.1250000   0.1250000 )

      4 Sym.Ops. (no q -> -q+G )


     G cutoff =  361.8467  (   3593 G-vectors)     FFT grid: ( 36, 36, 36)
     G cutoff =  180.9234  (   1273 G-vectors)  smooth grid: ( 24, 24, 24)

     number of k points=  1568  Marzari-Vanderbilt smearing, width (Ry)=  0.0200

     PseudoPot. # 1 for Na read from file:
     /home/s1333534/quantum_espresso/qe-6.1/pseudo/Na_pbe_v1.uspp.F.UPF
     MD5 check sum: 76a99c7e9422403d3e93cbc85ab7bccb
     Pseudo is Ultrasoft, Zval =  9.0
     Generated by new atomic code, or converted to UPF format
     Using radial grid of  819 points,  5 beta functions with: 
                l(1) =   0
                l(2) =   0
                l(3) =   1
                l(4) =   1
                l(5) =   2
     Q(r) pseudized with  8 coefficients,  rinner =    1.250   1.250   1.250
                                                       1.250   1.250

     Mode symmetry, C_2v (mm2)  point group:


     Atomic displacements:
     There are   3 irreducible representations

     Representation     1      1 modes -A_1  D_1  S_1  To be done

     Representation     2      1 modes -B_1  D_3  S_3  To be done

     Representation     3      1 modes -B_2  D_4  S_4  To be done



     Alpha used in Ewald sum =   2.8000
     PHONON       :    38.75s CPU        40.11s WALL



     Representation #  1 mode #   1

     Self-consistent Calculation

      iter #   1 total cpu time :    44.2 secs   av.it.:   5.6
      thresh= 1.000E-02 alpha_mix =  0.700 |ddv_scf|^2 =  3.644E-01

      iter #   2 total cpu time :    48.4 secs   av.it.:   7.2
      thresh= 1.000E-02 alpha_mix =  0.700 |ddv_scf|^2 =  1.320E+02

      iter #   3 total cpu time :    52.6 secs   av.it.:   7.1
      thresh= 1.000E-02 alpha_mix =  0.700 |ddv_scf|^2 =  2.314E-04

      iter #   4 total cpu time :    56.0 secs   av.it.:   5.4
      thresh= 1.521E-03 alpha_mix =  0.700 |ddv_scf|^2 =  6.944E-07

      iter #   5 total cpu time :    60.1 secs   av.it.:   6.9
      thresh= 8.333E-05 alpha_mix =  0.700 |ddv_scf|^2 =  1.188E-08

      iter #   6 total cpu time :    64.1 secs   av.it.:   6.8
      thresh= 1.090E-05 alpha_mix =  0.700 |ddv_scf|^2 =  5.864E-07

      iter #   7 total cpu time :    67.0 secs   av.it.:   4.2
      thresh= 7.657E-05 alpha_mix =  0.700 |ddv_scf|^2 =  1.842E-10

      iter #   8 total cpu time :    71.4 secs   av.it.:   7.5
      thresh= 1.357E-06 alpha_mix =  0.700 |ddv_scf|^2 =  4.975E-11

      iter #   9 total cpu time :    75.4 secs   av.it.:   6.8
      thresh= 7.053E-07 alpha_mix =  0.700 |ddv_scf|^2 =  3.385E-13

     End of self-consistent calculation

     Convergence has been achieved 


     Representation #  2 mode #   2

     Self-consistent Calculation

      iter #   1 total cpu time :    80.0 secs   av.it.:   5.4
      thresh= 1.000E-02 alpha_mix =  0.700 |ddv_scf|^2 =  2.511E-05

      iter #   2 total cpu time :    84.3 secs   av.it.:   7.3
      thresh= 5.011E-04 alpha_mix =  0.700 |ddv_scf|^2 =  4.995E-07

      iter #   3 total cpu time :    88.6 secs   av.it.:   7.5
      thresh= 7.068E-05 alpha_mix =  0.700 |ddv_scf|^2 =  4.831E-09

      iter #   4 total cpu time :    92.8 secs   av.it.:   7.2
      thresh= 6.951E-06 alpha_mix =  0.700 |ddv_scf|^2 =  1.358E-11

      iter #   5 total cpu time :    97.1 secs   av.it.:   7.3
      thresh= 3.685E-07 alpha_mix =  0.700 |ddv_scf|^2 =  8.553E-14

     End of self-consistent calculation

     Convergence has been achieved 


     Representation #  3 mode #   3

     Self-consistent Calculation

      iter #   1 total cpu time :   101.2 secs   av.it.:   5.4
      thresh= 1.000E-02 alpha_mix =  0.700 |ddv_scf|^2 =  2.568E-05

      iter #   2 total cpu time :   105.5 secs   av.it.:   7.3
      thresh= 5.067E-04 alpha_mix =  0.700 |ddv_scf|^2 =  4.968E-07

      iter #   3 total cpu time :   109.8 secs   av.it.:   7.5
      thresh= 7.048E-05 alpha_mix =  0.700 |ddv_scf|^2 =  5.771E-09

      iter #   4 total cpu time :   114.1 secs   av.it.:   7.2
      thresh= 7.597E-06 alpha_mix =  0.700 |ddv_scf|^2 =  1.676E-11

      iter #   5 total cpu time :   118.3 secs   av.it.:   7.3
      thresh= 4.093E-07 alpha_mix =  0.700 |ddv_scf|^2 =  8.362E-14

     End of self-consistent calculation

     Convergence has been achieved 

     Number of q in the star =   12
     List of q in the star:
          1   0.000000000  -0.125000000   0.125000000
          2   0.125000000   0.000000000   0.125000000
          3  -0.125000000   0.000000000   0.125000000
          4   0.000000000   0.125000000   0.125000000
          5   0.125000000  -0.125000000   0.000000000
          6  -0.125000000   0.000000000  -0.125000000
          7   0.125000000   0.000000000  -0.125000000
          8   0.000000000  -0.125000000  -0.125000000
          9  -0.125000000  -0.125000000   0.000000000
         10  -0.125000000   0.125000000   0.000000000
         11   0.125000000   0.125000000   0.000000000
         12   0.000000000   0.125000000  -0.125000000

     Diagonalizing the dynamical matrix

     q = (    0.000000000  -0.125000000   0.125000000 ) 

 **************************************************************************
     freq (    1) =       1.317416 [THz] =      43.944252 [cm-1]
     freq (    2) =       1.714537 [THz] =      57.190809 [cm-1]
     freq (    3) =       3.055054 [THz] =     101.905638 [cm-1]
 **************************************************************************

     Mode symmetry, C_2v (mm2)  point group:

     freq (  1 -  1) =         43.9  [cm-1]   --> B_1  D_3  S_3      
     freq (  2 -  2) =         57.2  [cm-1]   --> B_2  D_4  S_4      
     freq (  3 -  3) =        101.9  [cm-1]   --> A_1  D_1  S_1      

     Calculation of q =    0.0000000  -0.2500000   0.2500000

   Info: using nr1, nr2, nr3 values from input

   Info: using nr1, nr2, nr3 values from input

     Parallelization info
     --------------------
     sticks:   dense  smooth     PW     G-vecs:    dense   smooth      PW
     Min         200      99     34                 3590     1270     265
     Max         201     100     35                 3593     1273     266
     Sum         801     399    139                14363     5089    1061



     bravais-lattice index     =            3
     lattice parameter (alat)  =       6.6814  a.u.
     unit-cell volume          =     149.1323 (a.u.)^3
     number of atoms/cell      =            1
     number of atomic types    =            1
     number of electrons       =         9.00
     number of Kohn-Sham states=            9
     kinetic-energy cutoff     =      40.0000  Ry
     charge density cutoff     =     320.0000  Ry
     Exchange-correlation      = SLA  PW   PBE  PBE ( 1  4  3  4 0 0)

     celldm(1)=   6.681396  celldm(2)=   0.000000  celldm(3)=   0.000000
     celldm(4)=   0.000000  celldm(5)=   0.000000  celldm(6)=   0.000000

     crystal axes: (cart. coord. in units of alat)
               a(1) = (   0.500000   0.500000   0.500000 )  
               a(2) = (  -0.500000   0.500000   0.500000 )  
               a(3) = (  -0.500000  -0.500000   0.500000 )  

     reciprocal axes: (cart. coord. in units 2 pi/alat)
               b(1) = (  1.000000  0.000000  1.000000 )  
               b(2) = ( -1.000000  1.000000  0.000000 )  
               b(3) = (  0.000000 -1.000000  1.000000 )  


     PseudoPot. # 1 for Na read from file:
     /home/s1333534/quantum_espresso/qe-6.1/pseudo/Na_pbe_v1.uspp.F.UPF
     MD5 check sum: 76a99c7e9422403d3e93cbc85ab7bccb
     Pseudo is Ultrasoft, Zval =  9.0
     Generated by new atomic code, or converted to UPF format
     Using radial grid of  819 points,  5 beta functions with: 
                l(1) =   0
                l(2) =   0
                l(3) =   1
                l(4) =   1
                l(5) =   2
     Q(r) pseudized with  8 coefficients,  rinner =    1.250   1.250   1.250
                                                       1.250   1.250

     atomic species   valence    mass     pseudopotential
        Na             9.00    22.99000     Na( 1.00)

     48 Sym. Ops., with inversion, found



   Cartesian axes

     site n.     atom                  positions (alat units)
         1           Na  tau(   1) = (   0.0000000   0.0000000   0.0000000  )

     number of k points=  1568  Marzari-Vanderbilt smearing, width (Ry)=  0.0200

     Number of k-points >= 100: set verbosity='high' to print them.

     Dense  grid:    14363 G-vectors     FFT dimensions: (  36,  36,  36)

     Smooth grid:     5089 G-vectors     FFT dimensions: (  24,  24,  24)

     Estimated max dynamical RAM per process >       1.47MB

     Estimated total allocated dynamical RAM >       5.88MB

     The potential is recalculated from file :
     ./_ph0/na.bcc.save/charge-density.dat

     Starting wfc are    5 atomic +    4 random wfc

     Band Structure Calculation
     Davidson diagonalization with overlap

     ethr =  1.11E-10,  avg # of iterations = 17.8

     total cpu time spent up to now is       53.2 secs

     End of band structure calculation

     Number of k-points >= 100: set verbosity='high' to print the bands.

     the Fermi energy is     4.5134 ev

     Writing output data file na.bcc.save

                                                                                

     bravais-lattice index     =            3
     lattice parameter (alat)  =       6.6814  a.u.
     unit-cell volume          =     149.1323 (a.u.)^3
     number of atoms/cell      =            1
     number of atomic types    =            1
     kinetic-energy cut-off    =      40.0000  Ry
     charge density cut-off    =     320.0000  Ry
     convergence threshold     =      1.0E-12
     beta                      =       0.7000
     number of iterations used =            4
     Exchange-correlation      = SLA  PW   PBE  PBE ( 1  4  3  4 0 0)


     celldm(1)=    6.68140  celldm(2)=    0.00000  celldm(3)=    0.00000
     celldm(4)=    0.00000  celldm(5)=    0.00000  celldm(6)=    0.00000

     crystal axes: (cart. coord. in units of alat)
               a(1) = (  0.5000  0.5000  0.5000 )  
               a(2) = ( -0.5000  0.5000  0.5000 )  
               a(3) = ( -0.5000 -0.5000  0.5000 )  

     reciprocal axes: (cart. coord. in units 2 pi/alat)
               b(1) = (  1.0000  0.0000  1.0000 )  
               b(2) = ( -1.0000  1.0000  0.0000 )  
               b(3) = (  0.0000 -1.0000  1.0000 )  


     Atoms inside the unit cell: 

     Cartesian axes

     site n.  atom      mass           positions (alat units)
        1     Na  22.9900   tau(    1) = (    0.00000    0.00000    0.00000  )

     Computing dynamical matrix for 
                    q = (   0.0000000  -0.2500000   0.2500000 )

      4 Sym.Ops. (no q -> -q+G )


     G cutoff =  361.8467  (   3593 G-vectors)     FFT grid: ( 36, 36, 36)
     G cutoff =  180.9234  (   1273 G-vectors)  smooth grid: ( 24, 24, 24)

     number of k points=  1568  Marzari-Vanderbilt smearing, width (Ry)=  0.0200

     PseudoPot. # 1 for Na read from file:
     /home/s1333534/quantum_espresso/qe-6.1/pseudo/Na_pbe_v1.uspp.F.UPF
     MD5 check sum: 76a99c7e9422403d3e93cbc85ab7bccb
     Pseudo is Ultrasoft, Zval =  9.0
     Generated by new atomic code, or converted to UPF format
     Using radial grid of  819 points,  5 beta functions with: 
                l(1) =   0
                l(2) =   0
                l(3) =   1
                l(4) =   1
                l(5) =   2
     Q(r) pseudized with  8 coefficients,  rinner =    1.250   1.250   1.250
                                                       1.250   1.250

     Mode symmetry, C_2v (mm2)  point group:


     Atomic displacements:
     There are   3 irreducible representations

     Representation     1      1 modes -A_1  D_1  S_1  To be done

     Representation     2      1 modes -B_1  D_3  S_3  To be done

     Representation     3      1 modes -B_2  D_4  S_4  To be done



     Alpha used in Ewald sum =   2.8000
     PHONON       :  2m20.77s CPU     2m27.76s WALL



     Representation #  1 mode #   1

     Self-consistent Calculation

      iter #   1 total cpu time :   151.9 secs   av.it.:   5.7
      thresh= 1.000E-02 alpha_mix =  0.700 |ddv_scf|^2 =  5.978E-03

      iter #   2 total cpu time :   155.7 secs   av.it.:   6.3
      thresh= 7.732E-03 alpha_mix =  0.700 |ddv_scf|^2 =  1.046E-01

      iter #   3 total cpu time :   159.6 secs   av.it.:   6.0
      thresh= 1.000E-02 alpha_mix =  0.700 |ddv_scf|^2 =  5.059E-06

      iter #   4 total cpu time :   163.8 secs   av.it.:   7.2
      thresh= 2.249E-04 alpha_mix =  0.700 |ddv_scf|^2 =  2.711E-08

      iter #   5 total cpu time :   168.3 secs   av.it.:   7.8
      thresh= 1.646E-05 alpha_mix =  0.700 |ddv_scf|^2 =  3.811E-09

      iter #   6 total cpu time :   172.7 secs   av.it.:   7.6
      thresh= 6.173E-06 alpha_mix =  0.700 |ddv_scf|^2 =  5.256E-11

      iter #   7 total cpu time :   177.0 secs   av.it.:   7.5
      thresh= 7.250E-07 alpha_mix =  0.700 |ddv_scf|^2 =  3.249E-12

      iter #   8 total cpu time :   182.0 secs   av.it.:   7.2
      thresh= 1.803E-07 alpha_mix =  0.700 |ddv_scf|^2 =  1.061E-11

      iter #   9 total cpu time :   185.9 secs   av.it.:   6.3
      thresh= 3.258E-07 alpha_mix =  0.700 |ddv_scf|^2 =  1.233E-12

      iter #  10 total cpu time :   190.0 secs   av.it.:   6.9
      thresh= 1.111E-07 alpha_mix =  0.700 |ddv_scf|^2 =  5.639E-14

     End of self-consistent calculation

     Convergence has been achieved 


     Representation #  2 mode #   2

     Self-consistent Calculation

      iter #   1 total cpu time :   194.1 secs   av.it.:   5.5
      thresh= 1.000E-02 alpha_mix =  0.700 |ddv_scf|^2 =  2.562E-05

      iter #   2 total cpu time :   198.4 secs   av.it.:   7.3
      thresh= 5.062E-04 alpha_mix =  0.700 |ddv_scf|^2 =  4.861E-07

      iter #   3 total cpu time :   202.8 secs   av.it.:   7.6
      thresh= 6.972E-05 alpha_mix =  0.700 |ddv_scf|^2 =  5.868E-09

      iter #   4 total cpu time :   207.1 secs   av.it.:   7.3
      thresh= 7.660E-06 alpha_mix =  0.700 |ddv_scf|^2 =  1.618E-11

      iter #   5 total cpu time :   211.4 secs   av.it.:   7.4
      thresh= 4.022E-07 alpha_mix =  0.700 |ddv_scf|^2 =  7.309E-14

     End of self-consistent calculation

     Convergence has been achieved 


     Representation #  3 mode #   3

     Self-consistent Calculation

      iter #   1 total cpu time :   215.6 secs   av.it.:   5.5
      thresh= 1.000E-02 alpha_mix =  0.700 |ddv_scf|^2 =  2.758E-05

      iter #   2 total cpu time :   219.9 secs   av.it.:   7.4
      thresh= 5.252E-04 alpha_mix =  0.700 |ddv_scf|^2 =  4.771E-07

      iter #   3 total cpu time :   224.3 secs   av.it.:   7.6
      thresh= 6.908E-05 alpha_mix =  0.700 |ddv_scf|^2 =  9.319E-09

      iter #   4 total cpu time :   228.6 secs   av.it.:   7.3
      thresh= 9.653E-06 alpha_mix =  0.700 |ddv_scf|^2 =  2.850E-11

      iter #   5 total cpu time :   232.9 secs   av.it.:   7.4
      thresh= 5.339E-07 alpha_mix =  0.700 |ddv_scf|^2 =  7.150E-14

     End of self-consistent calculation

     Convergence has been achieved 

     Number of q in the star =   12
     List of q in the star:
          1   0.000000000  -0.250000000   0.250000000
          2   0.250000000   0.000000000   0.250000000
          3  -0.250000000   0.000000000   0.250000000
          4   0.000000000   0.250000000   0.250000000
          5   0.250000000  -0.250000000   0.000000000
          6  -0.250000000   0.000000000  -0.250000000
          7   0.250000000   0.000000000  -0.250000000
          8   0.000000000  -0.250000000  -0.250000000
          9  -0.250000000  -0.250000000   0.000000000
         10  -0.250000000   0.250000000   0.000000000
         11   0.250000000   0.250000000   0.000000000
         12   0.000000000   0.250000000  -0.250000000

     Diagonalizing the dynamical matrix

     q = (    0.000000000  -0.250000000   0.250000000 ) 

 **************************************************************************
     freq (    1) =       1.707873 [THz] =      56.968521 [cm-1]
     freq (    2) =       2.740070 [THz] =      91.398904 [cm-1]
     freq (    3) =       5.345136 [THz] =     178.294531 [cm-1]
 **************************************************************************

     Mode symmetry, C_2v (mm2)  point group:

     freq (  1 -  1) =         57.0  [cm-1]   --> B_1  D_3  S_3      
     freq (  2 -  2) =         91.4  [cm-1]   --> B_2  D_4  S_4      
     freq (  3 -  3) =        178.3  [cm-1]   --> A_1  D_1  S_1      

     Calculation of q =    0.0000000  -0.3750000   0.3750000

   Info: using nr1, nr2, nr3 values from input

   Info: using nr1, nr2, nr3 values from input

     Parallelization info
     --------------------
     sticks:   dense  smooth     PW     G-vecs:    dense   smooth      PW
     Min         200      99     37                 3590     1270     289
     Max         201     100     38                 3593     1273     290
     Sum         801     399    151                14363     5089    1157



     bravais-lattice index     =            3
     lattice parameter (alat)  =       6.6814  a.u.
     unit-cell volume          =     149.1323 (a.u.)^3
     number of atoms/cell      =            1
     number of atomic types    =            1
     number of electrons       =         9.00
     number of Kohn-Sham states=            9
     kinetic-energy cutoff     =      40.0000  Ry
     charge density cutoff     =     320.0000  Ry
     Exchange-correlation      = SLA  PW   PBE  PBE ( 1  4  3  4 0 0)

     celldm(1)=   6.681396  celldm(2)=   0.000000  celldm(3)=   0.000000
     celldm(4)=   0.000000  celldm(5)=   0.000000  celldm(6)=   0.000000

     crystal axes: (cart. coord. in units of alat)
               a(1) = (   0.500000   0.500000   0.500000 )  
               a(2) = (  -0.500000   0.500000   0.500000 )  
               a(3) = (  -0.500000  -0.500000   0.500000 )  

     reciprocal axes: (cart. coord. in units 2 pi/alat)
               b(1) = (  1.000000  0.000000  1.000000 )  
               b(2) = ( -1.000000  1.000000  0.000000 )  
               b(3) = (  0.000000 -1.000000  1.000000 )  


     PseudoPot. # 1 for Na read from file:
     /home/s1333534/quantum_espresso/qe-6.1/pseudo/Na_pbe_v1.uspp.F.UPF
     MD5 check sum: 76a99c7e9422403d3e93cbc85ab7bccb
     Pseudo is Ultrasoft, Zval =  9.0
     Generated by new atomic code, or converted to UPF format
     Using radial grid of  819 points,  5 beta functions with: 
                l(1) =   0
                l(2) =   0
                l(3) =   1
                l(4) =   1
                l(5) =   2
     Q(r) pseudized with  8 coefficients,  rinner =    1.250   1.250   1.250
                                                       1.250   1.250

     atomic species   valence    mass     pseudopotential
        Na             9.00    22.99000     Na( 1.00)

     48 Sym. Ops., with inversion, found



   Cartesian axes

     site n.     atom                  positions (alat units)
         1           Na  tau(   1) = (   0.0000000   0.0000000   0.0000000  )

     number of k points=  1568  Marzari-Vanderbilt smearing, width (Ry)=  0.0200

     Number of k-points >= 100: set verbosity='high' to print them.

     Dense  grid:    14363 G-vectors     FFT dimensions: (  36,  36,  36)

     Smooth grid:     5089 G-vectors     FFT dimensions: (  24,  24,  24)

     Estimated max dynamical RAM per process >       1.47MB

     Estimated total allocated dynamical RAM >       5.88MB

     The potential is recalculated from file :
     ./_ph0/na.bcc.save/charge-density.dat

     Starting wfc are    5 atomic +    4 random wfc

     Band Structure Calculation
     Davidson diagonalization with overlap

     ethr =  1.11E-10,  avg # of iterations = 17.8

     total cpu time spent up to now is       80.4 secs

     End of band structure calculation

     Number of k-points >= 100: set verbosity='high' to print the bands.

     the Fermi energy is     4.5134 ev

     Writing output data file na.bcc.save

                                                                                

     bravais-lattice index     =            3
     lattice parameter (alat)  =       6.6814  a.u.
     unit-cell volume          =     149.1323 (a.u.)^3
     number of atoms/cell      =            1
     number of atomic types    =            1
     kinetic-energy cut-off    =      40.0000  Ry
     charge density cut-off    =     320.0000  Ry
     convergence threshold     =      1.0E-12
     beta                      =       0.7000
     number of iterations used =            4
     Exchange-correlation      = SLA  PW   PBE  PBE ( 1  4  3  4 0 0)


     celldm(1)=    6.68140  celldm(2)=    0.00000  celldm(3)=    0.00000
     celldm(4)=    0.00000  celldm(5)=    0.00000  celldm(6)=    0.00000

     crystal axes: (cart. coord. in units of alat)
               a(1) = (  0.5000  0.5000  0.5000 )  
               a(2) = ( -0.5000  0.5000  0.5000 )  
               a(3) = ( -0.5000 -0.5000  0.5000 )  

     reciprocal axes: (cart. coord. in units 2 pi/alat)
               b(1) = (  1.0000  0.0000  1.0000 )  
               b(2) = ( -1.0000  1.0000  0.0000 )  
               b(3) = (  0.0000 -1.0000  1.0000 )  


     Atoms inside the unit cell: 

     Cartesian axes

     site n.  atom      mass           positions (alat units)
        1     Na  22.9900   tau(    1) = (    0.00000    0.00000    0.00000  )

     Computing dynamical matrix for 
                    q = (   0.0000000  -0.3750000   0.3750000 )

      4 Sym.Ops. (no q -> -q+G )


     G cutoff =  361.8467  (   3593 G-vectors)     FFT grid: ( 36, 36, 36)
     G cutoff =  180.9234  (   1273 G-vectors)  smooth grid: ( 24, 24, 24)

     number of k points=  1568  Marzari-Vanderbilt smearing, width (Ry)=  0.0200

     PseudoPot. # 1 for Na read from file:
     /home/s1333534/quantum_espresso/qe-6.1/pseudo/Na_pbe_v1.uspp.F.UPF
     MD5 check sum: 76a99c7e9422403d3e93cbc85ab7bccb
     Pseudo is Ultrasoft, Zval =  9.0
     Generated by new atomic code, or converted to UPF format
     Using radial grid of  819 points,  5 beta functions with: 
                l(1) =   0
                l(2) =   0
                l(3) =   1
                l(4) =   1
                l(5) =   2
     Q(r) pseudized with  8 coefficients,  rinner =    1.250   1.250   1.250
                                                       1.250   1.250

     Mode symmetry, C_2v (mm2)  point group:


     Atomic displacements:
     There are   3 irreducible representations

     Representation     1      1 modes -A_1  D_1  S_1  To be done

     Representation     2      1 modes -B_1  D_3  S_3  To be done

     Representation     3      1 modes -B_2  D_4  S_4  To be done



     Alpha used in Ewald sum =   2.8000
     PHONON       :  4m 9.93s CPU     4m22.64s WALL



     Representation #  1 mode #   1

     Self-consistent Calculation

      iter #   1 total cpu time :   266.8 secs   av.it.:   5.8
      thresh= 1.000E-02 alpha_mix =  0.700 |ddv_scf|^2 =  6.735E-04

      iter #   2 total cpu time :   270.9 secs   av.it.:   6.6
      thresh= 2.595E-03 alpha_mix =  0.700 |ddv_scf|^2 =  1.666E-03

      iter #   3 total cpu time :   274.7 secs   av.it.:   6.2
      thresh= 4.082E-03 alpha_mix =  0.700 |ddv_scf|^2 =  6.368E-07

      iter #   4 total cpu time :   279.2 secs   av.it.:   7.7
      thresh= 7.980E-05 alpha_mix =  0.700 |ddv_scf|^2 =  2.121E-08

      iter #   5 total cpu time :   283.8 secs   av.it.:   8.1
      thresh= 1.456E-05 alpha_mix =  0.700 |ddv_scf|^2 =  1.224E-09

      iter #   6 total cpu time :   288.3 secs   av.it.:   7.8
      thresh= 3.498E-06 alpha_mix =  0.700 |ddv_scf|^2 =  2.478E-11

      iter #   7 total cpu time :   292.6 secs   av.it.:   7.4
      thresh= 4.978E-07 alpha_mix =  0.700 |ddv_scf|^2 =  1.461E-12

      iter #   8 total cpu time :   298.7 secs   av.it.:   7.7
      thresh= 1.209E-07 alpha_mix =  0.700 |ddv_scf|^2 =  4.787E-15

     End of self-consistent calculation

     Convergence has been achieved 


     Representation #  2 mode #   2

     Self-consistent Calculation

      iter #   1 total cpu time :   303.0 secs   av.it.:   5.5
      thresh= 1.000E-02 alpha_mix =  0.700 |ddv_scf|^2 =  2.625E-05

      iter #   2 total cpu time :   307.3 secs   av.it.:   7.4
      thresh= 5.123E-04 alpha_mix =  0.700 |ddv_scf|^2 =  4.680E-07

      iter #   3 total cpu time :   311.8 secs   av.it.:   7.6
      thresh= 6.841E-05 alpha_mix =  0.700 |ddv_scf|^2 =  7.470E-09

      iter #   4 total cpu time :   316.0 secs   av.it.:   7.2
      thresh= 8.643E-06 alpha_mix =  0.700 |ddv_scf|^2 =  1.968E-11

      iter #   5 total cpu time :   320.4 secs   av.it.:   7.5
      thresh= 4.436E-07 alpha_mix =  0.700 |ddv_scf|^2 =  5.845E-14

     End of self-consistent calculation

     Convergence has been achieved 


     Representation #  3 mode #   3

     Self-consistent Calculation

      iter #   1 total cpu time :   324.6 secs   av.it.:   5.5
      thresh= 1.000E-02 alpha_mix =  0.700 |ddv_scf|^2 =  2.968E-05

      iter #   2 total cpu time :   329.0 secs   av.it.:   7.4
      thresh= 5.448E-04 alpha_mix =  0.700 |ddv_scf|^2 =  4.544E-07

      iter #   3 total cpu time :   333.5 secs   av.it.:   7.6
      thresh= 6.741E-05 alpha_mix =  0.700 |ddv_scf|^2 =  1.397E-08

      iter #   4 total cpu time :   337.7 secs   av.it.:   7.3
      thresh= 1.182E-05 alpha_mix =  0.700 |ddv_scf|^2 =  4.441E-11

      iter #   5 total cpu time :   342.1 secs   av.it.:   7.4
      thresh= 6.664E-07 alpha_mix =  0.700 |ddv_scf|^2 =  6.403E-14

     End of self-consistent calculation

     Convergence has been achieved 

     Number of q in the star =   12
     List of q in the star:
          1   0.000000000  -0.375000000   0.375000000
          2   0.375000000   0.000000000   0.375000000
          3  -0.375000000   0.000000000   0.375000000
          4   0.000000000   0.375000000   0.375000000
          5   0.375000000  -0.375000000   0.000000000
          6  -0.375000000   0.000000000  -0.375000000
          7   0.375000000   0.000000000  -0.375000000
          8   0.000000000  -0.375000000  -0.375000000
          9  -0.375000000  -0.375000000   0.000000000
         10  -0.375000000   0.375000000   0.000000000
         11   0.375000000   0.375000000   0.000000000
         12   0.000000000   0.375000000  -0.375000000

     Diagonalizing the dynamical matrix

     q = (    0.000000000  -0.375000000   0.375000000 ) 

 **************************************************************************
     freq (    1) =       1.768366 [THz] =      58.986341 [cm-1]
     freq (    2) =       3.419001 [THz] =     114.045602 [cm-1]
     freq (    3) =       6.943026 [THz] =     231.594425 [cm-1]
 **************************************************************************

     Mode symmetry, C_2v (mm2)  point group:

     freq (  1 -  1) =         59.0  [cm-1]   --> B_1  D_3  S_3      
     freq (  2 -  2) =        114.0  [cm-1]   --> B_2  D_4  S_4      
     freq (  3 -  3) =        231.6  [cm-1]   --> A_1  D_1  S_1      

     Calculation of q =    0.0000000   0.5000000  -0.5000000

   Info: using nr1, nr2, nr3 values from input

   Info: using nr1, nr2, nr3 values from input

     Parallelization info
     --------------------
     sticks:   dense  smooth     PW     G-vecs:    dense   smooth      PW
     Min         200      99     38                 3590     1270     301
     Max         201     100     39                 3593     1273     302
     Sum         801     399    155                14363     5089    1205



     bravais-lattice index     =            3
     lattice parameter (alat)  =       6.6814  a.u.
     unit-cell volume          =     149.1323 (a.u.)^3
     number of atoms/cell      =            1
     number of atomic types    =            1
     number of electrons       =         9.00
     number of Kohn-Sham states=            9
     kinetic-energy cutoff     =      40.0000  Ry
     charge density cutoff     =     320.0000  Ry
     Exchange-correlation      = SLA  PW   PBE  PBE ( 1  4  3  4 0 0)

     celldm(1)=   6.681396  celldm(2)=   0.000000  celldm(3)=   0.000000
     celldm(4)=   0.000000  celldm(5)=   0.000000  celldm(6)=   0.000000

     crystal axes: (cart. coord. in units of alat)
               a(1) = (   0.500000   0.500000   0.500000 )  
               a(2) = (  -0.500000   0.500000   0.500000 )  
               a(3) = (  -0.500000  -0.500000   0.500000 )  

     reciprocal axes: (cart. coord. in units 2 pi/alat)
               b(1) = (  1.000000  0.000000  1.000000 )  
               b(2) = ( -1.000000  1.000000  0.000000 )  
               b(3) = (  0.000000 -1.000000  1.000000 )  


     PseudoPot. # 1 for Na read from file:
     /home/s1333534/quantum_espresso/qe-6.1/pseudo/Na_pbe_v1.uspp.F.UPF
     MD5 check sum: 76a99c7e9422403d3e93cbc85ab7bccb
     Pseudo is Ultrasoft, Zval =  9.0
     Generated by new atomic code, or converted to UPF format
     Using radial grid of  819 points,  5 beta functions with: 
                l(1) =   0
                l(2) =   0
                l(3) =   1
                l(4) =   1
                l(5) =   2
     Q(r) pseudized with  8 coefficients,  rinner =    1.250   1.250   1.250
                                                       1.250   1.250

     atomic species   valence    mass     pseudopotential
        Na             9.00    22.99000     Na( 1.00)

     48 Sym. Ops., with inversion, found



   Cartesian axes

     site n.     atom                  positions (alat units)
         1           Na  tau(   1) = (   0.0000000   0.0000000   0.0000000  )

     number of k points=   840  Marzari-Vanderbilt smearing, width (Ry)=  0.0200

     Number of k-points >= 100: set verbosity='high' to print them.

     Dense  grid:    14363 G-vectors     FFT dimensions: (  36,  36,  36)

     Smooth grid:     5089 G-vectors     FFT dimensions: (  24,  24,  24)

     Estimated max dynamical RAM per process >       1.47MB

     Estimated total allocated dynamical RAM >       5.88MB

     The potential is recalculated from file :
     ./_ph0/na.bcc.save/charge-density.dat

     Starting wfc are    5 atomic +    4 random wfc

     Band Structure Calculation
     Davidson diagonalization with overlap

     ethr =  1.11E-10,  avg # of iterations = 17.8

     total cpu time spent up to now is       95.6 secs

     End of band structure calculation

     Number of k-points >= 100: set verbosity='high' to print the bands.

     the Fermi energy is     4.5134 ev

     Writing output data file na.bcc.save

                                                                                

     bravais-lattice index     =            3
     lattice parameter (alat)  =       6.6814  a.u.
     unit-cell volume          =     149.1323 (a.u.)^3
     number of atoms/cell      =            1
     number of atomic types    =            1
     kinetic-energy cut-off    =      40.0000  Ry
     charge density cut-off    =     320.0000  Ry
     convergence threshold     =      1.0E-12
     beta                      =       0.7000
     number of iterations used =            4
     Exchange-correlation      = SLA  PW   PBE  PBE ( 1  4  3  4 0 0)


     celldm(1)=    6.68140  celldm(2)=    0.00000  celldm(3)=    0.00000
     celldm(4)=    0.00000  celldm(5)=    0.00000  celldm(6)=    0.00000

     crystal axes: (cart. coord. in units of alat)
               a(1) = (  0.5000  0.5000  0.5000 )  
               a(2) = ( -0.5000  0.5000  0.5000 )  
               a(3) = ( -0.5000 -0.5000  0.5000 )  

     reciprocal axes: (cart. coord. in units 2 pi/alat)
               b(1) = (  1.0000  0.0000  1.0000 )  
               b(2) = ( -1.0000  1.0000  0.0000 )  
               b(3) = (  0.0000 -1.0000  1.0000 )  


     Atoms inside the unit cell: 

     Cartesian axes

     site n.  atom      mass           positions (alat units)
        1     Na  22.9900   tau(    1) = (    0.00000    0.00000    0.00000  )

     Computing dynamical matrix for 
                    q = (   0.0000000   0.5000000  -0.5000000 )

      9 Sym.Ops. (with q -> -q+G )


     G cutoff =  361.8467  (   3593 G-vectors)     FFT grid: ( 36, 36, 36)
     G cutoff =  180.9234  (   1273 G-vectors)  smooth grid: ( 24, 24, 24)

     number of k points=   840  Marzari-Vanderbilt smearing, width (Ry)=  0.0200

     PseudoPot. # 1 for Na read from file:
     /home/s1333534/quantum_espresso/qe-6.1/pseudo/Na_pbe_v1.uspp.F.UPF
     MD5 check sum: 76a99c7e9422403d3e93cbc85ab7bccb
     Pseudo is Ultrasoft, Zval =  9.0
     Generated by new atomic code, or converted to UPF format
     Using radial grid of  819 points,  5 beta functions with: 
                l(1) =   0
                l(2) =   0
                l(3) =   1
                l(4) =   1
                l(5) =   2
     Q(r) pseudized with  8 coefficients,  rinner =    1.250   1.250   1.250
                                                       1.250   1.250

     Mode symmetry, D_2h (mmm)  point group:


     Atomic displacements:
     There are   3 irreducible representations

     Representation     1      1 modes -B_1u  To be done

     Representation     2      1 modes -B_2u  To be done

     Representation     3      1 modes -B_3u  To be done



     Alpha used in Ewald sum =   2.8000
     PHONON       :  5m39.43s CPU     5m58.16s WALL



     Representation #  1 mode #   1

     Self-consistent Calculation

      iter #   1 total cpu time :   360.3 secs   av.it.:   5.5
      thresh= 1.000E-02 alpha_mix =  0.700 |ddv_scf|^2 =  3.060E-05

      iter #   2 total cpu time :   362.7 secs   av.it.:   7.3
      thresh= 5.531E-04 alpha_mix =  0.700 |ddv_scf|^2 =  4.451E-07

      iter #   3 total cpu time :   365.1 secs   av.it.:   7.5
      thresh= 6.672E-05 alpha_mix =  0.700 |ddv_scf|^2 =  1.619E-08

      iter #   4 total cpu time :   367.3 secs   av.it.:   7.1
      thresh= 1.272E-05 alpha_mix =  0.700 |ddv_scf|^2 =  5.179E-11

      iter #   5 total cpu time :   369.7 secs   av.it.:   7.3
      thresh= 7.197E-07 alpha_mix =  0.700 |ddv_scf|^2 =  6.193E-14

     End of self-consistent calculation

     Convergence has been achieved 


     Representation #  2 mode #   2

     Self-consistent Calculation

      iter #   1 total cpu time :   371.9 secs   av.it.:   5.5
      thresh= 1.000E-02 alpha_mix =  0.700 |ddv_scf|^2 =  2.654E-05

      iter #   2 total cpu time :   374.3 secs   av.it.:   7.3
      thresh= 5.152E-04 alpha_mix =  0.700 |ddv_scf|^2 =  4.596E-07

      iter #   3 total cpu time :   376.7 secs   av.it.:   7.5
      thresh= 6.780E-05 alpha_mix =  0.700 |ddv_scf|^2 =  8.280E-09

      iter #   4 total cpu time :   378.9 secs   av.it.:   7.0
      thresh= 9.100E-06 alpha_mix =  0.700 |ddv_scf|^2 =  2.108E-11

      iter #   5 total cpu time :   381.3 secs   av.it.:   7.4
      thresh= 4.592E-07 alpha_mix =  0.700 |ddv_scf|^2 =  5.204E-14

     End of self-consistent calculation

     Convergence has been achieved 


     Representation #  3 mode #   3

     Self-consistent Calculation

      iter #   1 total cpu time :   383.6 secs   av.it.:   5.7
      thresh= 1.000E-02 alpha_mix =  0.700 |ddv_scf|^2 =  2.534E-04

      iter #   2 total cpu time :   385.8 secs   av.it.:   6.6
      thresh= 1.592E-03 alpha_mix =  0.700 |ddv_scf|^2 =  1.096E-04

      iter #   3 total cpu time :   387.9 secs   av.it.:   6.5
      thresh= 1.047E-03 alpha_mix =  0.700 |ddv_scf|^2 =  1.479E-07

      iter #   4 total cpu time :   390.3 secs   av.it.:   7.5
      thresh= 3.846E-05 alpha_mix =  0.700 |ddv_scf|^2 =  4.463E-10

      iter #   5 total cpu time :   392.4 secs   av.it.:   6.2
      thresh= 2.113E-06 alpha_mix =  0.700 |ddv_scf|^2 =  1.043E-11

      iter #   6 total cpu time :   394.6 secs   av.it.:   6.6
      thresh= 3.229E-07 alpha_mix =  0.700 |ddv_scf|^2 =  2.023E-14

     End of self-consistent calculation

     Convergence has been achieved 

     Number of q in the star =    6
     List of q in the star:
          1   0.000000000   0.500000000  -0.500000000
          2  -0.500000000   0.500000000   0.000000000
          3   0.500000000   0.000000000   0.500000000
          4   0.500000000   0.000000000  -0.500000000
          5   0.000000000   0.500000000   0.500000000
          6   0.500000000   0.500000000   0.000000000

     Diagonalizing the dynamical matrix

     q = (    0.000000000   0.500000000  -0.500000000 ) 

 **************************************************************************
     freq (    1) =       1.615576 [THz] =      53.889799 [cm-1]
     freq (    2) =       3.608397 [THz] =     120.363155 [cm-1]
     freq (    3) =       7.531577 [THz] =     251.226383 [cm-1]
 **************************************************************************

     Mode symmetry, D_2h (mmm)  point group:

     freq (  1 -  1) =         53.9  [cm-1]   --> B_2u               
     freq (  2 -  2) =        120.4  [cm-1]   --> B_1u               
     freq (  3 -  3) =        251.2  [cm-1]   --> B_3u               

     Calculation of q =   -0.1250000  -0.1250000   0.2500000

   Info: using nr1, nr2, nr3 values from input

   Info: using nr1, nr2, nr3 values from input

     Parallelization info
     --------------------
     sticks:   dense  smooth     PW     G-vecs:    dense   smooth      PW
     Min         200      99     34                 3590     1270     263
     Max         201     100     35                 3593     1273     265
     Sum         801     399    137                14363     5089    1055



     bravais-lattice index     =            3
     lattice parameter (alat)  =       6.6814  a.u.
     unit-cell volume          =     149.1323 (a.u.)^3
     number of atoms/cell      =            1
     number of atomic types    =            1
     number of electrons       =         9.00
     number of Kohn-Sham states=            9
     kinetic-energy cutoff     =      40.0000  Ry
     charge density cutoff     =     320.0000  Ry
     Exchange-correlation      = SLA  PW   PBE  PBE ( 1  4  3  4 0 0)

     celldm(1)=   6.681396  celldm(2)=   0.000000  celldm(3)=   0.000000
     celldm(4)=   0.000000  celldm(5)=   0.000000  celldm(6)=   0.000000

     crystal axes: (cart. coord. in units of alat)
               a(1) = (   0.500000   0.500000   0.500000 )  
               a(2) = (  -0.500000   0.500000   0.500000 )  
               a(3) = (  -0.500000  -0.500000   0.500000 )  

     reciprocal axes: (cart. coord. in units 2 pi/alat)
               b(1) = (  1.000000  0.000000  1.000000 )  
               b(2) = ( -1.000000  1.000000  0.000000 )  
               b(3) = (  0.000000 -1.000000  1.000000 )  


     PseudoPot. # 1 for Na read from file:
     /home/s1333534/quantum_espresso/qe-6.1/pseudo/Na_pbe_v1.uspp.F.UPF
     MD5 check sum: 76a99c7e9422403d3e93cbc85ab7bccb
     Pseudo is Ultrasoft, Zval =  9.0
     Generated by new atomic code, or converted to UPF format
     Using radial grid of  819 points,  5 beta functions with: 
                l(1) =   0
                l(2) =   0
                l(3) =   1
                l(4) =   1
                l(5) =   2
     Q(r) pseudized with  8 coefficients,  rinner =    1.250   1.250   1.250
                                                       1.250   1.250

     atomic species   valence    mass     pseudopotential
        Na             9.00    22.99000     Na( 1.00)

     48 Sym. Ops., with inversion, found



   Cartesian axes

     site n.     atom                  positions (alat units)
         1           Na  tau(   1) = (   0.0000000   0.0000000   0.0000000  )

     number of k points=  2940  Marzari-Vanderbilt smearing, width (Ry)=  0.0200

     Number of k-points >= 100: set verbosity='high' to print them.

     Dense  grid:    14363 G-vectors     FFT dimensions: (  36,  36,  36)

     Smooth grid:     5089 G-vectors     FFT dimensions: (  24,  24,  24)

     Estimated max dynamical RAM per process >       1.47MB

     Estimated total allocated dynamical RAM >       5.88MB

     The potential is recalculated from file :
     ./_ph0/na.bcc.save/charge-density.dat

     Starting wfc are    5 atomic +    4 random wfc

     Band Structure Calculation
     Davidson diagonalization with overlap

     ethr =  1.11E-10,  avg # of iterations = 17.8

     total cpu time spent up to now is      144.8 secs

     End of band structure calculation

     Number of k-points >= 100: set verbosity='high' to print the bands.

     the Fermi energy is     4.5134 ev

     Writing output data file na.bcc.save

                                                                                

     bravais-lattice index     =            3
     lattice parameter (alat)  =       6.6814  a.u.
     unit-cell volume          =     149.1323 (a.u.)^3
     number of atoms/cell      =            1
     number of atomic types    =            1
     kinetic-energy cut-off    =      40.0000  Ry
     charge density cut-off    =     320.0000  Ry
     convergence threshold     =      1.0E-12
     beta                      =       0.7000
     number of iterations used =            4
     Exchange-correlation      = SLA  PW   PBE  PBE ( 1  4  3  4 0 0)


     celldm(1)=    6.68140  celldm(2)=    0.00000  celldm(3)=    0.00000
     celldm(4)=    0.00000  celldm(5)=    0.00000  celldm(6)=    0.00000

     crystal axes: (cart. coord. in units of alat)
               a(1) = (  0.5000  0.5000  0.5000 )  
               a(2) = ( -0.5000  0.5000  0.5000 )  
               a(3) = ( -0.5000 -0.5000  0.5000 )  

     reciprocal axes: (cart. coord. in units 2 pi/alat)
               b(1) = (  1.0000  0.0000  1.0000 )  
               b(2) = ( -1.0000  1.0000  0.0000 )  
               b(3) = (  0.0000 -1.0000  1.0000 )  


     Atoms inside the unit cell: 

     Cartesian axes

     site n.  atom      mass           positions (alat units)
        1     Na  22.9900   tau(    1) = (    0.00000    0.00000    0.00000  )

     Computing dynamical matrix for 
                    q = (  -0.1250000  -0.1250000   0.2500000 )

      2 Sym.Ops. (no q -> -q+G )


     G cutoff =  361.8467  (   3593 G-vectors)     FFT grid: ( 36, 36, 36)
     G cutoff =  180.9234  (   1273 G-vectors)  smooth grid: ( 24, 24, 24)

     number of k points=  2940  Marzari-Vanderbilt smearing, width (Ry)=  0.0200

     PseudoPot. # 1 for Na read from file:
     /home/s1333534/quantum_espresso/qe-6.1/pseudo/Na_pbe_v1.uspp.F.UPF
     MD5 check sum: 76a99c7e9422403d3e93cbc85ab7bccb
     Pseudo is Ultrasoft, Zval =  9.0
     Generated by new atomic code, or converted to UPF format
     Using radial grid of  819 points,  5 beta functions with: 
                l(1) =   0
                l(2) =   0
                l(3) =   1
                l(4) =   1
                l(5) =   2
     Q(r) pseudized with  8 coefficients,  rinner =    1.250   1.250   1.250
                                                       1.250   1.250

     Mode symmetry, C_s (m)     point group:


     Atomic displacements:
     There are   3 irreducible representations

     Representation     1      1 modes -A'  To be done

     Representation     2      1 modes -A'  To be done

     Representation     3      1 modes -A''  To be done



     Alpha used in Ewald sum =   2.8000
     PHONON       :  7m 6.87s CPU     7m29.23s WALL



     Representation #  1 mode #   1

     Self-consistent Calculation

      iter #   1 total cpu time :   456.9 secs   av.it.:   5.7
      thresh= 1.000E-02 alpha_mix =  0.700 |ddv_scf|^2 =  1.487E-03

      iter #   2 total cpu time :   464.3 secs   av.it.:   6.7
      thresh= 3.856E-03 alpha_mix =  0.700 |ddv_scf|^2 =  5.270E-02

      iter #   3 total cpu time :   470.6 secs   av.it.:   5.2
      thresh= 1.000E-02 alpha_mix =  0.700 |ddv_scf|^2 =  7.067E-07

      iter #   4 total cpu time :   478.9 secs   av.it.:   7.7
      thresh= 8.407E-05 alpha_mix =  0.700 |ddv_scf|^2 =  7.985E-09

      iter #   5 total cpu time :   488.5 secs   av.it.:   7.8
      thresh= 8.936E-06 alpha_mix =  0.700 |ddv_scf|^2 =  1.087E-09

      iter #   6 total cpu time :   496.7 secs   av.it.:   7.6
      thresh= 3.297E-06 alpha_mix =  0.700 |ddv_scf|^2 =  6.029E-10

      iter #   7 total cpu time :   503.9 secs   av.it.:   6.4
      thresh= 2.455E-06 alpha_mix =  0.700 |ddv_scf|^2 =  1.166E-09

      iter #   8 total cpu time :   510.9 secs   av.it.:   6.2
      thresh= 3.414E-06 alpha_mix =  0.700 |ddv_scf|^2 =  1.148E-11

      iter #   9 total cpu time :   519.5 secs   av.it.:   7.3
      thresh= 3.388E-07 alpha_mix =  0.700 |ddv_scf|^2 =  1.034E-11

      iter #  10 total cpu time :   526.9 secs   av.it.:   6.7
      thresh= 3.215E-07 alpha_mix =  0.700 |ddv_scf|^2 =  2.968E-14

     End of self-consistent calculation

     Convergence has been achieved 


     Representation #  2 mode #   2

     Self-consistent Calculation

      iter #   1 total cpu time :   534.8 secs   av.it.:   5.8
      thresh= 1.000E-02 alpha_mix =  0.700 |ddv_scf|^2 =  1.318E-02

      iter #   2 total cpu time :   542.0 secs   av.it.:   6.3
      thresh= 1.000E-02 alpha_mix =  0.700 |ddv_scf|^2 =  4.743E-01

      iter #   3 total cpu time :   549.4 secs   av.it.:   6.3
      thresh= 1.000E-02 alpha_mix =  0.700 |ddv_scf|^2 =  7.000E-06

      iter #   4 total cpu time :   557.3 secs   av.it.:   7.3
      thresh= 2.646E-04 alpha_mix =  0.700 |ddv_scf|^2 =  8.948E-08

      iter #   5 total cpu time :   565.5 secs   av.it.:   7.6
      thresh= 2.991E-05 alpha_mix =  0.700 |ddv_scf|^2 =  4.740E-09

      iter #   6 total cpu time :   573.6 secs   av.it.:   7.6
      thresh= 6.885E-06 alpha_mix =  0.700 |ddv_scf|^2 =  5.592E-10

      iter #   7 total cpu time :   581.4 secs   av.it.:   7.1
      thresh= 2.365E-06 alpha_mix =  0.700 |ddv_scf|^2 =  7.098E-09

      iter #   8 total cpu time :   587.8 secs   av.it.:   5.5
      thresh= 8.425E-06 alpha_mix =  0.700 |ddv_scf|^2 =  5.505E-12

      iter #   9 total cpu time :   595.3 secs   av.it.:   6.8
      thresh= 2.346E-07 alpha_mix =  0.700 |ddv_scf|^2 =  5.309E-14

     End of self-consistent calculation

     Convergence has been achieved 


     Representation #  3 mode #   3

     Self-consistent Calculation

      iter #   1 total cpu time :   603.0 secs   av.it.:   5.5
      thresh= 1.000E-02 alpha_mix =  0.700 |ddv_scf|^2 =  2.756E-05

      iter #   2 total cpu time :   611.5 secs   av.it.:   7.4
      thresh= 5.250E-04 alpha_mix =  0.700 |ddv_scf|^2 =  4.604E-07

      iter #   3 total cpu time :   619.7 secs   av.it.:   7.6
      thresh= 6.785E-05 alpha_mix =  0.700 |ddv_scf|^2 =  1.000E-08

      iter #   4 total cpu time :   627.7 secs   av.it.:   7.4
      thresh= 1.000E-05 alpha_mix =  0.700 |ddv_scf|^2 =  4.595E-11

      iter #   5 total cpu time :   636.2 secs   av.it.:   7.5
      thresh= 6.778E-07 alpha_mix =  0.700 |ddv_scf|^2 =  6.363E-14

     End of self-consistent calculation

     Convergence has been achieved 

     Number of q in the star =   24
     List of q in the star:
          1  -0.125000000  -0.125000000   0.250000000
          2  -0.125000000  -0.250000000   0.125000000
          3   0.125000000  -0.250000000   0.125000000
          4  -0.125000000   0.125000000  -0.250000000
          5  -0.125000000   0.250000000  -0.125000000
          6   0.125000000   0.125000000  -0.250000000
          7   0.125000000   0.250000000  -0.125000000
          8   0.125000000  -0.250000000  -0.125000000
          9  -0.250000000   0.125000000  -0.125000000
         10   0.250000000   0.125000000   0.125000000
         11   0.125000000   0.125000000   0.250000000
         12  -0.250000000  -0.125000000   0.125000000
         13   0.250000000  -0.125000000  -0.125000000
         14   0.125000000  -0.125000000  -0.250000000
         15   0.125000000  -0.125000000   0.250000000
         16   0.125000000   0.250000000   0.125000000
         17  -0.125000000  -0.125000000  -0.250000000
         18  -0.125000000   0.125000000   0.250000000
         19  -0.125000000   0.250000000   0.125000000
         20  -0.125000000  -0.250000000  -0.125000000
         21   0.250000000   0.125000000  -0.125000000
         22  -0.250000000   0.125000000   0.125000000
         23   0.250000000  -0.125000000   0.125000000
         24  -0.250000000  -0.125000000  -0.125000000

     Diagonalizing the dynamical matrix

     q = (   -0.125000000  -0.125000000   0.250000000 ) 

 **************************************************************************
     freq (    1) =       1.995133 [THz] =      66.550457 [cm-1]
     freq (    2) =       2.467154 [THz] =      82.295384 [cm-1]
     freq (    3) =       4.710694 [THz] =     157.131849 [cm-1]
 **************************************************************************

     Mode symmetry, C_s (m)     point group:

     freq (  1 -  1) =         66.6  [cm-1]   --> A'                 
     freq (  2 -  2) =         82.3  [cm-1]   --> A''                
     freq (  3 -  3) =        157.1  [cm-1]   --> A'                 

     Calculation of q =   -0.1250000  -0.2500000   0.3750000

   Info: using nr1, nr2, nr3 values from input

   Info: using nr1, nr2, nr3 values from input

     Parallelization info
     --------------------
     sticks:   dense  smooth     PW     G-vecs:    dense   smooth      PW
     Min         200      99     37                 3590     1270     289
     Max         201     100     38                 3593     1273     290
     Sum         801     399    151                14363     5089    1157



     bravais-lattice index     =            3
     lattice parameter (alat)  =       6.6814  a.u.
     unit-cell volume          =     149.1323 (a.u.)^3
     number of atoms/cell      =            1
     number of atomic types    =            1
     number of electrons       =         9.00
     number of Kohn-Sham states=            9
     kinetic-energy cutoff     =      40.0000  Ry
     charge density cutoff     =     320.0000  Ry
     Exchange-correlation      = SLA  PW   PBE  PBE ( 1  4  3  4 0 0)

     celldm(1)=   6.681396  celldm(2)=   0.000000  celldm(3)=   0.000000
     celldm(4)=   0.000000  celldm(5)=   0.000000  celldm(6)=   0.000000

     crystal axes: (cart. coord. in units of alat)
               a(1) = (   0.500000   0.500000   0.500000 )  
               a(2) = (  -0.500000   0.500000   0.500000 )  
               a(3) = (  -0.500000  -0.500000   0.500000 )  

     reciprocal axes: (cart. coord. in units 2 pi/alat)
               b(1) = (  1.000000  0.000000  1.000000 )  
               b(2) = ( -1.000000  1.000000  0.000000 )  
               b(3) = (  0.000000 -1.000000  1.000000 )  


     PseudoPot. # 1 for Na read from file:
     /home/s1333534/quantum_espresso/qe-6.1/pseudo/Na_pbe_v1.uspp.F.UPF
     MD5 check sum: 76a99c7e9422403d3e93cbc85ab7bccb
     Pseudo is Ultrasoft, Zval =  9.0
     Generated by new atomic code, or converted to UPF format
     Using radial grid of  819 points,  5 beta functions with: 
                l(1) =   0
                l(2) =   0
                l(3) =   1
                l(4) =   1
                l(5) =   2
     Q(r) pseudized with  8 coefficients,  rinner =    1.250   1.250   1.250
                                                       1.250   1.250

     atomic species   valence    mass     pseudopotential
        Na             9.00    22.99000     Na( 1.00)

     48 Sym. Ops., with inversion, found



   Cartesian axes

     site n.     atom                  positions (alat units)
         1           Na  tau(   1) = (   0.0000000   0.0000000   0.0000000  )

     number of k points=  5488  Marzari-Vanderbilt smearing, width (Ry)=  0.0200

     Number of k-points >= 100: set verbosity='high' to print them.

     Dense  grid:    14363 G-vectors     FFT dimensions: (  36,  36,  36)

     Smooth grid:     5089 G-vectors     FFT dimensions: (  24,  24,  24)

     Estimated max dynamical RAM per process >       1.47MB

     Estimated total allocated dynamical RAM >       5.88MB

     The potential is recalculated from file :
     ./_ph0/na.bcc.save/charge-density.dat

     Starting wfc are    5 atomic +    4 random wfc

     Band Structure Calculation
     Davidson diagonalization with overlap

     ethr =  1.11E-10,  avg # of iterations = 17.7

     total cpu time spent up to now is      238.0 secs

     End of band structure calculation

     Number of k-points >= 100: set verbosity='high' to print the bands.

     the Fermi energy is     4.5134 ev

     Writing output data file na.bcc.save

                                                                                

     bravais-lattice index     =            3
     lattice parameter (alat)  =       6.6814  a.u.
     unit-cell volume          =     149.1323 (a.u.)^3
     number of atoms/cell      =            1
     number of atomic types    =            1
     kinetic-energy cut-off    =      40.0000  Ry
     charge density cut-off    =     320.0000  Ry
     convergence threshold     =      1.0E-12
     beta                      =       0.7000
     number of iterations used =            4
     Exchange-correlation      = SLA  PW   PBE  PBE ( 1  4  3  4 0 0)


     celldm(1)=    6.68140  celldm(2)=    0.00000  celldm(3)=    0.00000
     celldm(4)=    0.00000  celldm(5)=    0.00000  celldm(6)=    0.00000

     crystal axes: (cart. coord. in units of alat)
               a(1) = (  0.5000  0.5000  0.5000 )  
               a(2) = ( -0.5000  0.5000  0.5000 )  
               a(3) = ( -0.5000 -0.5000  0.5000 )  

     reciprocal axes: (cart. coord. in units 2 pi/alat)
               b(1) = (  1.0000  0.0000  1.0000 )  
               b(2) = ( -1.0000  1.0000  0.0000 )  
               b(3) = (  0.0000 -1.0000  1.0000 )  


     Atoms inside the unit cell: 

     Cartesian axes

     site n.  atom      mass           positions (alat units)
        1     Na  22.9900   tau(    1) = (    0.00000    0.00000    0.00000  )

     Computing dynamical matrix for 
                    q = (  -0.1250000  -0.2500000   0.3750000 )

     No symmetry!

     G cutoff =  361.8467  (   3593 G-vectors)     FFT grid: ( 36, 36, 36)
     G cutoff =  180.9234  (   1273 G-vectors)  smooth grid: ( 24, 24, 24)

     number of k points=  5488  Marzari-Vanderbilt smearing, width (Ry)=  0.0200

     PseudoPot. # 1 for Na read from file:
     /home/s1333534/quantum_espresso/qe-6.1/pseudo/Na_pbe_v1.uspp.F.UPF
     MD5 check sum: 76a99c7e9422403d3e93cbc85ab7bccb
     Pseudo is Ultrasoft, Zval =  9.0
     Generated by new atomic code, or converted to UPF format
     Using radial grid of  819 points,  5 beta functions with: 
                l(1) =   0
                l(2) =   0
                l(3) =   1
                l(4) =   1
                l(5) =   2
     Q(r) pseudized with  8 coefficients,  rinner =    1.250   1.250   1.250
                                                       1.250   1.250

     Mode symmetry, C_1 (1)     point group:


     Atomic displacements:
     There are   3 irreducible representations

     Representation     1      1 modes -A  To be done

     Representation     2      1 modes -A  To be done

     Representation     3      1 modes -A  To be done



     Alpha used in Ewald sum =   2.8000
     PHONON       : 11m40.94s CPU    12m18.65s WALL



     Representation #  1 mode #   1

     Self-consistent Calculation

      iter #   1 total cpu time :   753.1 secs   av.it.:   5.7
      thresh= 1.000E-02 alpha_mix =  0.700 |ddv_scf|^2 =  4.370E-05

      iter #   2 total cpu time :   768.7 secs   av.it.:   7.7
      thresh= 6.611E-04 alpha_mix =  0.700 |ddv_scf|^2 =  7.721E-05

      iter #   3 total cpu time :   783.0 secs   av.it.:   6.2
      thresh= 8.787E-04 alpha_mix =  0.700 |ddv_scf|^2 =  6.057E-06

      iter #   4 total cpu time :   797.8 secs   av.it.:   7.2
      thresh= 2.461E-04 alpha_mix =  0.700 |ddv_scf|^2 =  6.266E-09

      iter #   5 total cpu time :   813.9 secs   av.it.:   7.8
      thresh= 7.916E-06 alpha_mix =  0.700 |ddv_scf|^2 =  2.182E-10

      iter #   6 total cpu time :   829.9 secs   av.it.:   7.9
      thresh= 1.477E-06 alpha_mix =  0.700 |ddv_scf|^2 =  1.023E-11

      iter #   7 total cpu time :   846.0 secs   av.it.:   8.0
      thresh= 3.198E-07 alpha_mix =  0.700 |ddv_scf|^2 =  5.943E-13

     End of self-consistent calculation

     Convergence has been achieved 


     Representation #  2 mode #   2

     Self-consistent Calculation

      iter #   1 total cpu time :   861.7 secs   av.it.:   5.8
      thresh= 1.000E-02 alpha_mix =  0.700 |ddv_scf|^2 =  6.442E-04

      iter #   2 total cpu time :   876.3 secs   av.it.:   7.0
      thresh= 2.538E-03 alpha_mix =  0.700 |ddv_scf|^2 =  2.928E-03

      iter #   3 total cpu time :   890.3 secs   av.it.:   5.8
      thresh= 5.411E-03 alpha_mix =  0.700 |ddv_scf|^2 =  5.354E-07

      iter #   4 total cpu time :   906.2 secs   av.it.:   7.8
      thresh= 7.317E-05 alpha_mix =  0.700 |ddv_scf|^2 =  9.179E-09

      iter #   5 total cpu time :   922.6 secs   av.it.:   8.1
      thresh= 9.581E-06 alpha_mix =  0.700 |ddv_scf|^2 =  1.481E-09

      iter #   6 total cpu time :   939.5 secs   av.it.:   7.8
      thresh= 3.849E-06 alpha_mix =  0.700 |ddv_scf|^2 =  1.873E-11

      iter #   7 total cpu time :   955.5 secs   av.it.:   7.7
      thresh= 4.328E-07 alpha_mix =  0.700 |ddv_scf|^2 =  1.756E-12

      iter #   8 total cpu time :   971.1 secs   av.it.:   7.6
      thresh= 1.325E-07 alpha_mix =  0.700 |ddv_scf|^2 =  1.199E-12

      iter #   9 total cpu time :   984.8 secs   av.it.:   6.5
      thresh= 1.095E-07 alpha_mix =  0.700 |ddv_scf|^2 =  6.676E-14

     End of self-consistent calculation

     Convergence has been achieved 


     Representation #  3 mode #   3

     Self-consistent Calculation

      iter #   1 total cpu time :  1000.1 secs   av.it.:   5.8
      thresh= 1.000E-02 alpha_mix =  0.700 |ddv_scf|^2 =  6.242E-04

      iter #   2 total cpu time :  1014.7 secs   av.it.:   7.0
      thresh= 2.498E-03 alpha_mix =  0.700 |ddv_scf|^2 =  2.802E-03

      iter #   3 total cpu time :  1028.2 secs   av.it.:   5.8
      thresh= 5.293E-03 alpha_mix =  0.700 |ddv_scf|^2 =  3.758E-07

      iter #   4 total cpu time :  1044.4 secs   av.it.:   7.9
      thresh= 6.130E-05 alpha_mix =  0.700 |ddv_scf|^2 =  1.224E-08

      iter #   5 total cpu time :  1060.7 secs   av.it.:   8.2
      thresh= 1.106E-05 alpha_mix =  0.700 |ddv_scf|^2 =  1.034E-09

      iter #   6 total cpu time :  1077.1 secs   av.it.:   8.0
      thresh= 3.216E-06 alpha_mix =  0.700 |ddv_scf|^2 =  2.654E-11

      iter #   7 total cpu time :  1092.5 secs   av.it.:   7.6
      thresh= 5.151E-07 alpha_mix =  0.700 |ddv_scf|^2 =  1.280E-12

      iter #   8 total cpu time :  1108.3 secs   av.it.:   7.4
      thresh= 1.131E-07 alpha_mix =  0.700 |ddv_scf|^2 =  3.311E-13

     End of self-consistent calculation

     Convergence has been achieved 

     Number of q in the star =   48
     List of q in the star:
          1  -0.125000000  -0.250000000   0.375000000
          2  -0.250000000  -0.125000000   0.375000000
          3  -0.125000000  -0.375000000   0.250000000
          4   0.125000000  -0.375000000   0.250000000
          5  -0.125000000   0.250000000  -0.375000000
          6  -0.125000000   0.375000000  -0.250000000
          7   0.125000000   0.250000000  -0.375000000
          8   0.125000000   0.375000000  -0.250000000
          9   0.250000000  -0.375000000  -0.125000000
         10  -0.375000000   0.125000000  -0.250000000
         11   0.375000000   0.125000000   0.250000000
         12   0.250000000   0.125000000   0.375000000
         13  -0.375000000  -0.125000000   0.250000000
         14   0.375000000  -0.125000000  -0.250000000
         15   0.125000000  -0.250000000  -0.375000000
         16   0.250000000  -0.125000000  -0.375000000
         17  -0.250000000   0.125000000  -0.375000000
         18  -0.375000000  -0.250000000   0.125000000
         19  -0.375000000   0.250000000  -0.125000000
         20   0.375000000   0.250000000   0.125000000
         21   0.250000000  -0.125000000   0.375000000
         22  -0.250000000   0.375000000  -0.125000000
         23   0.125000000  -0.375000000  -0.250000000
         24   0.125000000   0.375000000   0.250000000
         25   0.250000000   0.125000000  -0.375000000
         26  -0.125000000  -0.250000000  -0.375000000
         27  -0.250000000   0.125000000   0.375000000
         28  -0.125000000   0.375000000   0.250000000
         29  -0.125000000   0.250000000   0.375000000
         30   0.125000000  -0.250000000   0.375000000
         31  -0.125000000  -0.375000000  -0.250000000
         32   0.125000000   0.250000000   0.375000000
         33   0.375000000  -0.250000000  -0.125000000
         34   0.250000000   0.375000000   0.125000000
         35  -0.250000000  -0.375000000   0.125000000
         36   0.375000000   0.250000000  -0.125000000
         37  -0.375000000   0.250000000   0.125000000
         38   0.375000000  -0.250000000   0.125000000
         39  -0.375000000  -0.250000000  -0.125000000
         40  -0.250000000  -0.125000000  -0.375000000
         41   0.250000000  -0.375000000   0.125000000
         42  -0.250000000  -0.375000000  -0.125000000
         43   0.250000000   0.375000000  -0.125000000
         44  -0.250000000   0.375000000   0.125000000
         45  -0.375000000   0.125000000   0.250000000
         46  -0.375000000  -0.125000000  -0.250000000
         47   0.375000000  -0.125000000   0.250000000
         48   0.375000000   0.125000000  -0.250000000

     Diagonalizing the dynamical matrix

     q = (   -0.125000000  -0.250000000   0.375000000 ) 

 **************************************************************************
     freq (    1) =       2.524250 [THz] =      84.199923 [cm-1]
     freq (    2) =       3.608603 [THz] =     120.370045 [cm-1]
     freq (    3) =       6.279610 [THz] =     209.465237 [cm-1]
 **************************************************************************

     Mode symmetry, C_1 (1)     point group:

     freq (  1 -  1) =         84.2  [cm-1]   --> A                  
     freq (  2 -  2) =        120.4  [cm-1]   --> A                  
     freq (  3 -  3) =        209.5  [cm-1]   --> A                  

     Calculation of q =   -0.1250000   0.6250000  -0.5000000

   Info: using nr1, nr2, nr3 values from input

   Info: using nr1, nr2, nr3 values from input

     Parallelization info
     --------------------
     sticks:   dense  smooth     PW     G-vecs:    dense   smooth      PW
     Min         200      99     39                 3590     1270     312
     Max         201     100     40                 3593     1273     314
     Sum         801     399    159                14363     5089    1253



     bravais-lattice index     =            3
     lattice parameter (alat)  =       6.6814  a.u.
     unit-cell volume          =     149.1323 (a.u.)^3
     number of atoms/cell      =            1
     number of atomic types    =            1
     number of electrons       =         9.00
     number of Kohn-Sham states=            9
     kinetic-energy cutoff     =      40.0000  Ry
     charge density cutoff     =     320.0000  Ry
     Exchange-correlation      = SLA  PW   PBE  PBE ( 1  4  3  4 0 0)

     celldm(1)=   6.681396  celldm(2)=   0.000000  celldm(3)=   0.000000
     celldm(4)=   0.000000  celldm(5)=   0.000000  celldm(6)=   0.000000

     crystal axes: (cart. coord. in units of alat)
               a(1) = (   0.500000   0.500000   0.500000 )  
               a(2) = (  -0.500000   0.500000   0.500000 )  
               a(3) = (  -0.500000  -0.500000   0.500000 )  

     reciprocal axes: (cart. coord. in units 2 pi/alat)
               b(1) = (  1.000000  0.000000  1.000000 )  
               b(2) = ( -1.000000  1.000000  0.000000 )  
               b(3) = (  0.000000 -1.000000  1.000000 )  


     PseudoPot. # 1 for Na read from file:
     /home/s1333534/quantum_espresso/qe-6.1/pseudo/Na_pbe_v1.uspp.F.UPF
     MD5 check sum: 76a99c7e9422403d3e93cbc85ab7bccb
     Pseudo is Ultrasoft, Zval =  9.0
     Generated by new atomic code, or converted to UPF format
     Using radial grid of  819 points,  5 beta functions with: 
                l(1) =   0
                l(2) =   0
                l(3) =   1
                l(4) =   1
                l(5) =   2
     Q(r) pseudized with  8 coefficients,  rinner =    1.250   1.250   1.250
                                                       1.250   1.250

     atomic species   valence    mass     pseudopotential
        Na             9.00    22.99000     Na( 1.00)

     48 Sym. Ops., with inversion, found



   Cartesian axes

     site n.     atom                  positions (alat units)
         1           Na  tau(   1) = (   0.0000000   0.0000000   0.0000000  )

     number of k points=  5488  Marzari-Vanderbilt smearing, width (Ry)=  0.0200

     Number of k-points >= 100: set verbosity='high' to print them.

     Dense  grid:    14363 G-vectors     FFT dimensions: (  36,  36,  36)

     Smooth grid:     5089 G-vectors     FFT dimensions: (  24,  24,  24)

     Estimated max dynamical RAM per process >       1.47MB

     Estimated total allocated dynamical RAM >       5.88MB

     The potential is recalculated from file :
     ./_ph0/na.bcc.save/charge-density.dat

     Starting wfc are    5 atomic +    4 random wfc

     Band Structure Calculation
     Davidson diagonalization with overlap

     ethr =  1.11E-10,  avg # of iterations = 17.7

     total cpu time spent up to now is      334.3 secs

     End of band structure calculation

     Number of k-points >= 100: set verbosity='high' to print the bands.

     the Fermi energy is     4.5134 ev

     Writing output data file na.bcc.save

                                                                                

     bravais-lattice index     =            3
     lattice parameter (alat)  =       6.6814  a.u.
     unit-cell volume          =     149.1323 (a.u.)^3
     number of atoms/cell      =            1
     number of atomic types    =            1
     kinetic-energy cut-off    =      40.0000  Ry
     charge density cut-off    =     320.0000  Ry
     convergence threshold     =      1.0E-12
     beta                      =       0.7000
     number of iterations used =            4
     Exchange-correlation      = SLA  PW   PBE  PBE ( 1  4  3  4 0 0)


     celldm(1)=    6.68140  celldm(2)=    0.00000  celldm(3)=    0.00000
     celldm(4)=    0.00000  celldm(5)=    0.00000  celldm(6)=    0.00000

     crystal axes: (cart. coord. in units of alat)
               a(1) = (  0.5000  0.5000  0.5000 )  
               a(2) = ( -0.5000  0.5000  0.5000 )  
               a(3) = ( -0.5000 -0.5000  0.5000 )  

[...]
     celldm(4)=    0.00000  celldm(5)=    0.00000  celldm(6)=    0.00000

     crystal axes: (cart. coord. in units of alat)
               a(1) = (  0.5000  0.5000  0.5000 )  
               a(2) = ( -0.5000  0.5000  0.5000 )  
               a(3) = ( -0.5000 -0.5000  0.5000 )  

     reciprocal axes: (cart. coord. in units 2 pi/alat)
               b(1) = (  1.0000  0.0000  1.0000 )  
               b(2) = ( -1.0000  1.0000  0.0000 )  
               b(3) = (  0.0000 -1.0000  1.0000 )  


     Atoms inside the unit cell: 

     Cartesian axes

     site n.  atom      mass           positions (alat units)
        1     Na  22.9900   tau(    1) = (    0.00000    0.00000    0.00000  )

     Computing dynamical matrix for 
                    q = (   0.0000000   0.8750000  -0.1250000 )

      4 Sym.Ops. (no q -> -q+G )


     G cutoff =  361.8467  (   3593 G-vectors)     FFT grid: ( 36, 36, 36)
     G cutoff =  180.9234  (   1273 G-vectors)  smooth grid: ( 24, 24, 24)

     number of k points=  1568  Marzari-Vanderbilt smearing, width (Ry)=  0.0200

     PseudoPot. # 1 for Na read from file:
     /home/s1333534/quantum_espresso/qe-6.1/pseudo/Na_pbe_v1.uspp.F.UPF
     MD5 check sum: 76a99c7e9422403d3e93cbc85ab7bccb
     Pseudo is Ultrasoft, Zval =  9.0
     Generated by new atomic code, or converted to UPF format
     Using radial grid of  819 points,  5 beta functions with: 
                l(1) =   0
                l(2) =   0
                l(3) =   1
                l(4) =   1
                l(5) =   2
     Q(r) pseudized with  8 coefficients,  rinner =    1.250   1.250   1.250
                                                       1.250   1.250

     Mode symmetry, C_2v (mm2)  point group:


     Atomic displacements:
     There are   3 irreducible representations

     Representation     1      1 modes -A_1  D_1  S_1  To be done

     Representation     2      1 modes -B_1  D_3  S_3  To be done

     Representation     3      1 modes -B_2  D_4  S_4  To be done



     Alpha used in Ewald sum =   2.8000
     PHONON       :     1h14m CPU        1h19m WALL



     Representation #  1 mode #   1

     Self-consistent Calculation

      iter #   1 total cpu time :  4747.5 secs   av.it.:   5.7
      thresh= 1.000E-02 alpha_mix =  0.700 |ddv_scf|^2 =  5.173E-05

      iter #   2 total cpu time :  4752.0 secs   av.it.:   7.4
      thresh= 7.193E-04 alpha_mix =  0.700 |ddv_scf|^2 =  1.259E-06

      iter #   3 total cpu time :  4756.5 secs   av.it.:   7.6
      thresh= 1.122E-04 alpha_mix =  0.700 |ddv_scf|^2 =  4.144E-08

      iter #   4 total cpu time :  4761.1 secs   av.it.:   7.9
      thresh= 2.036E-05 alpha_mix =  0.700 |ddv_scf|^2 =  2.538E-09

      iter #   5 total cpu time :  4765.7 secs   av.it.:   7.8
      thresh= 5.038E-06 alpha_mix =  0.700 |ddv_scf|^2 =  1.854E-10

      iter #   6 total cpu time :  4770.2 secs   av.it.:   7.5
      thresh= 1.362E-06 alpha_mix =  0.700 |ddv_scf|^2 =  1.253E-12

      iter #   7 total cpu time :  4774.7 secs   av.it.:   7.7
      thresh= 1.120E-07 alpha_mix =  0.700 |ddv_scf|^2 =  4.295E-14

     End of self-consistent calculation

     Convergence has been achieved 


     Representation #  2 mode #   2

     Self-consistent Calculation

      iter #   1 total cpu time :  4779.7 secs   av.it.:   5.6
      thresh= 1.000E-02 alpha_mix =  0.700 |ddv_scf|^2 =  4.664E-05

      iter #   2 total cpu time :  4784.1 secs   av.it.:   7.3
      thresh= 6.829E-04 alpha_mix =  0.700 |ddv_scf|^2 =  4.222E-07

      iter #   3 total cpu time :  4788.4 secs   av.it.:   7.3
      thresh= 6.498E-05 alpha_mix =  0.700 |ddv_scf|^2 =  3.826E-08

      iter #   4 total cpu time :  4792.8 secs   av.it.:   7.4
      thresh= 1.956E-05 alpha_mix =  0.700 |ddv_scf|^2 =  1.692E-10

      iter #   5 total cpu time :  4797.2 secs   av.it.:   7.3
      thresh= 1.301E-06 alpha_mix =  0.700 |ddv_scf|^2 =  4.624E-14

     End of self-consistent calculation

     Convergence has been achieved 


     Representation #  3 mode #   3

     Self-consistent Calculation

      iter #   1 total cpu time :  4801.5 secs   av.it.:   5.7
      thresh= 1.000E-02 alpha_mix =  0.700 |ddv_scf|^2 =  6.555E-05

      iter #   2 total cpu time :  4805.9 secs   av.it.:   7.2
      thresh= 8.096E-04 alpha_mix =  0.700 |ddv_scf|^2 =  2.309E-06

      iter #   3 total cpu time :  4810.8 secs   av.it.:   7.2
      thresh= 1.520E-04 alpha_mix =  0.700 |ddv_scf|^2 =  5.066E-08

      iter #   4 total cpu time :  4815.3 secs   av.it.:   7.5
      thresh= 2.251E-05 alpha_mix =  0.700 |ddv_scf|^2 =  1.683E-09

      iter #   5 total cpu time :  4819.6 secs   av.it.:   7.3
      thresh= 4.103E-06 alpha_mix =  0.700 |ddv_scf|^2 =  5.195E-12

      iter #   6 total cpu time :  4824.1 secs   av.it.:   7.6
      thresh= 2.279E-07 alpha_mix =  0.700 |ddv_scf|^2 =  5.146E-15

     End of self-consistent calculation

     Convergence has been achieved 

     Number of q in the star =   12
     List of q in the star:
          1   0.000000000   0.875000000  -0.125000000
          2   0.000000000  -0.875000000  -0.125000000
          3   0.875000000   0.000000000  -0.125000000
          4  -0.875000000   0.000000000  -0.125000000
          5   0.125000000   0.000000000  -0.875000000
          6   0.125000000   0.875000000   0.000000000
          7   0.000000000   0.875000000   0.125000000
          8   0.875000000   0.000000000   0.125000000
          9   0.125000000  -0.875000000   0.000000000
         10  -0.125000000  -0.875000000   0.000000000
         11   0.875000000  -0.125000000   0.000000000
         12   0.000000000  -0.875000000   0.125000000

     Diagonalizing the dynamical matrix

     q = (    0.000000000   0.875000000  -0.125000000 ) 

 **************************************************************************
     freq (    1) =       5.662649 [THz] =     188.885626 [cm-1]
     freq (    2) =       5.780925 [THz] =     192.830899 [cm-1]
     freq (    3) =       6.344541 [THz] =     211.631092 [cm-1]
 **************************************************************************

     Mode symmetry, C_2v (mm2)  point group:

     freq (  1 -  1) =        188.9  [cm-1]   --> A_1  D_1  S_1      
     freq (  2 -  2) =        192.8  [cm-1]   --> B_1  D_3  S_3      
     freq (  3 -  3) =        211.6  [cm-1]   --> B_2  D_4  S_4      

     Calculation of q =    0.0000000   0.0000000  -1.0000000

   Info: using nr1, nr2, nr3 values from input

   Info: using nr1, nr2, nr3 values from input

     Parallelization info
     --------------------
     sticks:   dense  smooth     PW     G-vecs:    dense   smooth      PW
     Min         200      99     38                 3590     1270     301
     Max         201     100     39                 3593     1273     302
     Sum         801     399    155                14363     5089    1205



     bravais-lattice index     =            3
     lattice parameter (alat)  =       6.6814  a.u.
     unit-cell volume          =     149.1323 (a.u.)^3
     number of atoms/cell      =            1
     number of atomic types    =            1
     number of electrons       =         9.00
     number of Kohn-Sham states=            9
     kinetic-energy cutoff     =      40.0000  Ry
     charge density cutoff     =     320.0000  Ry
     Exchange-correlation      = SLA  PW   PBE  PBE ( 1  4  3  4 0 0)

     celldm(1)=   6.681396  celldm(2)=   0.000000  celldm(3)=   0.000000
     celldm(4)=   0.000000  celldm(5)=   0.000000  celldm(6)=   0.000000

     crystal axes: (cart. coord. in units of alat)
               a(1) = (   0.500000   0.500000   0.500000 )  
               a(2) = (  -0.500000   0.500000   0.500000 )  
               a(3) = (  -0.500000  -0.500000   0.500000 )  

     reciprocal axes: (cart. coord. in units 2 pi/alat)
               b(1) = (  1.000000  0.000000  1.000000 )  
               b(2) = ( -1.000000  1.000000  0.000000 )  
               b(3) = (  0.000000 -1.000000  1.000000 )  


     PseudoPot. # 1 for Na read from file:
     /home/s1333534/quantum_espresso/qe-6.1/pseudo/Na_pbe_v1.uspp.F.UPF
     MD5 check sum: 76a99c7e9422403d3e93cbc85ab7bccb
     Pseudo is Ultrasoft, Zval =  9.0
     Generated by new atomic code, or converted to UPF format
     Using radial grid of  819 points,  5 beta functions with: 
                l(1) =   0
                l(2) =   0
                l(3) =   1
                l(4) =   1
                l(5) =   2
     Q(r) pseudized with  8 coefficients,  rinner =    1.250   1.250   1.250
                                                       1.250   1.250

     atomic species   valence    mass     pseudopotential
        Na             9.00    22.99000     Na( 1.00)

     48 Sym. Ops., with inversion, found



   Cartesian axes

     site n.     atom                  positions (alat units)
         1           Na  tau(   1) = (   0.0000000   0.0000000   0.0000000  )

     number of k points=   200  Marzari-Vanderbilt smearing, width (Ry)=  0.0200

     Number of k-points >= 100: set verbosity='high' to print them.

     Dense  grid:    14363 G-vectors     FFT dimensions: (  36,  36,  36)

     Smooth grid:     5089 G-vectors     FFT dimensions: (  24,  24,  24)

     Estimated max dynamical RAM per process >       1.47MB

     Estimated total allocated dynamical RAM >       5.88MB

     The potential is recalculated from file :
     ./_ph0/na.bcc.save/charge-density.dat

     Starting wfc are    5 atomic +    4 random wfc

     Band Structure Calculation
     Davidson diagonalization with overlap

     ethr =  1.11E-10,  avg # of iterations = 18.0

     total cpu time spent up to now is     1102.6 secs

     End of band structure calculation

     Number of k-points >= 100: set verbosity='high' to print the bands.

     the Fermi energy is     4.5134 ev

     Writing output data file na.bcc.save

                                                                                

     bravais-lattice index     =            3
     lattice parameter (alat)  =       6.6814  a.u.
     unit-cell volume          =     149.1323 (a.u.)^3
     number of atoms/cell      =            1
     number of atomic types    =            1
     kinetic-energy cut-off    =      40.0000  Ry
     charge density cut-off    =     320.0000  Ry
     convergence threshold     =      1.0E-12
     beta                      =       0.7000
     number of iterations used =            4
     Exchange-correlation      = SLA  PW   PBE  PBE ( 1  4  3  4 0 0)


     celldm(1)=    6.68140  celldm(2)=    0.00000  celldm(3)=    0.00000
     celldm(4)=    0.00000  celldm(5)=    0.00000  celldm(6)=    0.00000

     crystal axes: (cart. coord. in units of alat)
               a(1) = (  0.5000  0.5000  0.5000 )  
               a(2) = ( -0.5000  0.5000  0.5000 )  
               a(3) = ( -0.5000 -0.5000  0.5000 )  

     reciprocal axes: (cart. coord. in units 2 pi/alat)
               b(1) = (  1.0000  0.0000  1.0000 )  
               b(2) = ( -1.0000  1.0000  0.0000 )  
               b(3) = (  0.0000 -1.0000  1.0000 )  


     Atoms inside the unit cell: 

     Cartesian axes

     site n.  atom      mass           positions (alat units)
        1     Na  22.9900   tau(    1) = (    0.00000    0.00000    0.00000  )

     Computing dynamical matrix for 
                    q = (   0.0000000   0.0000000  -1.0000000 )

     49 Sym.Ops. (with q -> -q+G )


     G cutoff =  361.8467  (   3593 G-vectors)     FFT grid: ( 36, 36, 36)
     G cutoff =  180.9234  (   1273 G-vectors)  smooth grid: ( 24, 24, 24)

     number of k points=   200  Marzari-Vanderbilt smearing, width (Ry)=  0.0200

     PseudoPot. # 1 for Na read from file:
     /home/s1333534/quantum_espresso/qe-6.1/pseudo/Na_pbe_v1.uspp.F.UPF
     MD5 check sum: 76a99c7e9422403d3e93cbc85ab7bccb
     Pseudo is Ultrasoft, Zval =  9.0
     Generated by new atomic code, or converted to UPF format
     Using radial grid of  819 points,  5 beta functions with: 
                l(1) =   0
                l(2) =   0
                l(3) =   1
                l(4) =   1
                l(5) =   2
     Q(r) pseudized with  8 coefficients,  rinner =    1.250   1.250   1.250
                                                       1.250   1.250

     Mode symmetry, O_h (m-3m)  point group:


     Atomic displacements:
     There are   1 irreducible representations

     Representation     1      3 modes -T_1u G_15  G_4-  To be done



     Alpha used in Ewald sum =   2.8000
     PHONON       :     1h15m CPU        1h20m WALL



     Representation #  1 modes #   1  2  3

     Self-consistent Calculation

      iter #   1 total cpu time :  4830.1 secs   av.it.:   5.7
      thresh= 1.000E-02 alpha_mix =  0.700 |ddv_scf|^2 =  5.538E-06

      iter #   2 total cpu time :  4832.2 secs   av.it.:   8.2
      thresh= 2.353E-04 alpha_mix =  0.700 |ddv_scf|^2 =  5.260E-08

      iter #   3 total cpu time :  4834.2 secs   av.it.:   8.2
      thresh= 2.294E-05 alpha_mix =  0.700 |ddv_scf|^2 =  4.599E-09

      iter #   4 total cpu time :  4836.3 secs   av.it.:   8.3
      thresh= 6.782E-06 alpha_mix =  0.700 |ddv_scf|^2 =  1.996E-11

      iter #   5 total cpu time :  4838.3 secs   av.it.:   8.2
      thresh= 4.468E-07 alpha_mix =  0.700 |ddv_scf|^2 =  4.575E-15

     End of self-consistent calculation

     Convergence has been achieved 

     Number of q in the star =    1
     List of q in the star:
          1   0.000000000   0.000000000  -1.000000000

     Diagonalizing the dynamical matrix

     q = (    0.000000000   0.000000000  -1.000000000 ) 

 **************************************************************************
     freq (    1) =       6.020464 [THz] =     200.821078 [cm-1]
     freq (    2) =       6.020464 [THz] =     200.821078 [cm-1]
     freq (    3) =       6.020464 [THz] =     200.821078 [cm-1]
 **************************************************************************

     Mode symmetry, O_h (m-3m)  point group:

     freq (  1 -  3) =        200.8  [cm-1]   --> T_1u G_15  G_4-    

     init_run     :      4.32s CPU      4.37s WALL (      28 calls)
     electrons    :   1011.55s CPU   1053.62s WALL (      28 calls)

     Called by init_run:
     wfcinit      :      0.00s CPU      0.00s WALL (      28 calls)
     potinit      :      0.29s CPU      0.31s WALL (      28 calls)

     Called by electrons:
     c_bands      :   1011.26s CPU   1053.34s WALL (      28 calls)
     v_of_rho     :      0.23s CPU      0.24s WALL (      29 calls)
     newd         :      0.26s CPU      0.27s WALL (      29 calls)

     Called by c_bands:
     init_us_2    :     65.51s CPU     62.17s WALL (  909413 calls)
     cegterg      :    930.62s CPU    966.72s WALL (   73218 calls)

     Called by sum_band:

     Called by *egterg:
     h_psi        :   2909.75s CPU   3073.90s WALL ( 7460944 calls)
     s_psi        :    113.89s CPU    105.71s WALL (14307038 calls)
     g_psi        :      6.47s CPU      7.45s WALL ( 1122180 calls)
     cdiaghg      :    240.52s CPU    243.60s WALL ( 1185346 calls)

     Called by h_psi:
     h_psi:pot    :   2895.76s CPU   3051.49s WALL ( 7460944 calls)
     h_psi:calbec :     72.53s CPU     88.93s WALL ( 7460944 calls)
     vloc_psi     :   2754.52s CPU   2877.22s WALL ( 7460944 calls)
     add_vuspsi   :     54.25s CPU     63.95s WALL ( 7460944 calls)

     General routines
     calbec       :    160.07s CPU    172.90s WALL (15869259 calls)
     fft          :      2.14s CPU      2.28s WALL (    8992 calls)
     ffts         :      5.87s CPU      5.91s WALL (   97074 calls)
     fftw         :   3079.16s CPU   3074.85s WALL (72049061 calls)
     interpolate  :      0.37s CPU      0.44s WALL (    1247 calls)
     davcio       :     26.69s CPU     64.31s WALL ( 3443988 calls)

     Parallel routines
     fft_scatter  :    586.43s CPU    628.35s WALL (72155127 calls)

     PHONON       :     1h16m CPU        1h20m WALL

     INITIALIZATION: 
     phq_setup    :      0.78s CPU      0.80s WALL (      29 calls)
     phq_init     :     82.45s CPU     85.54s WALL (      29 calls)

     phq_init     :     82.45s CPU     85.54s WALL (      29 calls)
     init_vloc    :      0.06s CPU      0.06s WALL (      29 calls)
     init_us_1    :      2.53s CPU      2.54s WALL (      29 calls)
     newd         :      0.26s CPU      0.27s WALL (      29 calls)
     dvanqq       :      0.99s CPU      1.00s WALL (      29 calls)
     drho         :     65.10s CPU     67.36s WALL (      29 calls)

     DYNAMICAL MATRIX:
     dynmat0      :     10.27s CPU     10.61s WALL (      29 calls)
     phqscf       :   3417.01s CPU   3647.26s WALL (      29 calls)
     dynmatrix    :      0.03s CPU      0.04s WALL (      29 calls)

     phqscf       :   3417.01s CPU   3647.26s WALL (      29 calls)
     solve_linter :   3400.37s CPU   3629.78s WALL (      76 calls)
     drhodv       :     16.56s CPU     17.37s WALL (      76 calls)

     dynmat0      :     10.27s CPU     10.61s WALL (      29 calls)
     dynmat_us    :     10.23s CPU     10.57s WALL (      29 calls)
     d2ionq       :      0.02s CPU      0.02s WALL (      29 calls)

     dynmat_us    :     10.23s CPU     10.57s WALL (      29 calls)
     addusdynmat  :      0.00s CPU      0.00s WALL (      29 calls)

     phqscf       :   3417.01s CPU   3647.26s WALL (      29 calls)
     solve_linter :   3400.37s CPU   3629.78s WALL (      76 calls)

     solve_linter :   3400.37s CPU   3629.78s WALL (      76 calls)
     dvqpsi_us    :    101.22s CPU    106.51s WALL (   95049 calls)
     ortho        :     32.50s CPU     35.71s WALL (  643714 calls)
     cgsolve      :   2623.74s CPU   2765.09s WALL (  643714 calls)
     incdrhoscf   :    293.06s CPU    315.21s WALL (  643714 calls)
     addusddens   :      8.03s CPU      8.09s WALL (     572 calls)
     vpsifft      :    231.87s CPU    247.46s WALL (  548665 calls)
     dv_of_drho   :      2.47s CPU      2.56s WALL (     551 calls)
     mix_pot      :      0.43s CPU      1.58s WALL (     496 calls)
     ef_shift     :      0.01s CPU      0.01s WALL (       6 calls)
     localdos     :      0.05s CPU      0.05s WALL (       1 calls)
     psymdvscf    :      5.83s CPU      5.93s WALL (     428 calls)
     newdq        :      7.20s CPU      7.27s WALL (     496 calls)
     adddvscf     :     13.64s CPU     13.96s WALL (  548665 calls)
     drhodvus     :      0.02s CPU      0.02s WALL (      76 calls)

     dvqpsi_us    :    101.22s CPU    106.51s WALL (   95049 calls)
     dvqpsi_us_on :     19.78s CPU     19.76s WALL (   95049 calls)

     cgsolve      :   2623.74s CPU   2765.09s WALL (  643714 calls)
     ch_psi       :   2550.68s CPU   2700.67s WALL ( 6202380 calls)

     ch_psi       :   2550.68s CPU   2700.67s WALL ( 6202380 calls)
     h_psi        :   2909.75s CPU   3073.90s WALL ( 7460944 calls)
     last         :    180.48s CPU    204.19s WALL ( 6202380 calls)

     h_psi        :   2909.75s CPU   3073.90s WALL ( 7460944 calls)
     add_vuspsi   :     54.25s CPU     63.95s WALL ( 7460944 calls)

     incdrhoscf   :    293.06s CPU    315.21s WALL (  643714 calls)
     addusdbec    :     12.10s CPU     15.42s WALL (  738763 calls)

     drhodvus     :      0.02s CPU      0.02s WALL (      76 calls)

      General routines
     calbec       :    160.07s CPU    172.90s WALL (15869259 calls)
     fft          :      2.14s CPU      2.28s WALL (    8992 calls)
     ffts         :      5.87s CPU      5.91s WALL (   97074 calls)
     fftw         :   3079.16s CPU   3074.85s WALL (72049061 calls)
     davcio       :     26.69s CPU     64.31s WALL ( 3443988 calls)
     write_rec    :      0.42s CPU      2.14s WALL (     572 calls)


     PHONON       :     1h16m CPU        1h20m WALL


   This run was terminated on:  13: 8:17  21Dec2017            

=------------------------------------------------------------------------------=
   JOB DONE.
=------------------------------------------------------------------------------=
