
     Program PHONON v.5.4.0 starts on 23Jun2016 at 20:43:31 

     This program is part of the open-source Quantum ESPRESSO suite
     for quantum simulation of materials; please cite
         "P. Giannozzi et al., J. Phys.:Condens. Matter 21 395502 (2009);
          URL http://www.quantum-espresso.org", 
     in publications or presentations arising from this work. More details at
     http://www.quantum-espresso.org/quote

     Parallel version (MPI), running on   768 processors
     K-points division:     npool     =     768

     Reading data from directory:
     ./tmp/li-fcc.save

   Info: using nr1, nr2, nr3 values from input

   Info: using nr1, nr2, nr3 values from input

     IMPORTANT: XC functional enforced from input :
     Exchange-correlation      =  SLA  PW   PBX  PBC ( 1  4  3  4 0 0)
     Any further DFT definition will be discarded
     Please, verify this is what you really want

 
     G-vector sticks info
     --------------------
     sticks:   dense  smooth     PW     G-vecs:    dense   smooth      PW
     Sum        1135     571    199                25125     8873    1759
 


     Dynamical matrices for ( 8, 8, 8)  uniform grid of q-points
     (  29q-points):
       N         xq(1)         xq(2)         xq(3) 
       1   0.000000000   0.000000000   0.000000000
       2  -0.125000000   0.125000000  -0.125000000
       3  -0.250000000   0.250000000  -0.250000000
       4  -0.375000000   0.375000000  -0.375000000
       5   0.500000000  -0.500000000   0.500000000
       6   0.000000000   0.250000000   0.000000000
       7  -0.125000000   0.375000000  -0.125000000
       8  -0.250000000   0.500000000  -0.250000000
       9   0.625000000  -0.375000000   0.625000000
      10   0.500000000  -0.250000000   0.500000000
      11   0.375000000  -0.125000000   0.375000000
      12   0.250000000   0.000000000   0.250000000
      13   0.000000000   0.500000000   0.000000000
      14  -0.125000000   0.625000000  -0.125000000
      15   0.750000000  -0.250000000   0.750000000
      16   0.625000000  -0.125000000   0.625000000
      17   0.500000000   0.000000000   0.500000000
      18   0.000000000   0.750000000   0.000000000
      19   0.875000000  -0.125000000   0.875000000
      20   0.750000000   0.000000000   0.750000000
      21   0.000000000  -1.000000000   0.000000000
      22  -0.250000000   0.500000000   0.000000000
      23   0.625000000  -0.375000000   0.875000000
      24   0.500000000  -0.250000000   0.750000000
      25   0.750000000  -0.250000000   1.000000000
      26   0.625000000  -0.125000000   0.875000000
      27   0.500000000   0.000000000   0.750000000
      28  -0.250000000  -1.000000000   0.000000000
      29  -0.500000000  -1.000000000   0.000000000

     Calculation of q =    0.0000000   0.0000000   0.0000000

                                                                                

     bravais-lattice index     =            2
     lattice parameter (alat)  =       8.2838  a.u.
     unit-cell volume          =     142.1128 (a.u.)^3
     number of atoms/cell      =            1
     number of atomic types    =            1
     kinetic-energy cut-off    =      60.0000  Ry
     charge density cut-off    =     480.0000  Ry
     convergence threshold     =      1.0E-16
     beta                      =       0.7000
     number of iterations used =            4
     Exchange-correlation      =  SLA  PW   PBX  PBC ( 1  4  3  4 0 0)


     celldm(1)=    8.28383  celldm(2)=    0.00000  celldm(3)=    0.00000
     celldm(4)=    0.00000  celldm(5)=    0.00000  celldm(6)=    0.00000

     crystal axes: (cart. coord. in units of alat)
               a(1) = ( -0.5000  0.0000  0.5000 )  
               a(2) = (  0.0000  0.5000  0.5000 )  
               a(3) = ( -0.5000  0.5000  0.0000 )  

     reciprocal axes: (cart. coord. in units 2 pi/alat)
               b(1) = ( -1.0000 -1.0000  1.0000 )  
               b(2) = (  1.0000  1.0000  1.0000 )  
               b(3) = ( -1.0000  1.0000 -1.0000 )  


     Atoms inside the unit cell: 

     Cartesian axes

     site n.  atom      mass           positions (alat units)
        1     Li   6.9410   tau(    1) = (    0.00000    0.00000    0.00000  )

     Computing dynamical matrix for 
                    q = (   0.0000000   0.0000000   0.0000000 )
 
     49 Sym.Ops. (with q -> -q+G )


     G cutoff =  834.3411  (  25125 G-vectors)     FFT grid: ( 45, 45, 45)
     G cutoff =  417.1706  (   8873 G-vectors)  smooth grid: ( 30, 30, 30)

     number of k points=  2030  Marzari-Vanderbilt smearing, width (Ry)=  0.0200

     PseudoPot. # 1 for Li read from file:
     ../Li.pbe-s-gbrv14.UPF
     MD5 check sum: 7ca33c4f951f001da2db5c8738379802
     Pseudo is Ultrasoft, Zval =  3.0
     Generated by new atomic code, or converted to UPF format
     Using radial grid of  751 points,  5 beta functions with: 
                l(1) =   0
                l(2) =   0
                l(3) =   0
                l(4) =   1
                l(5) =   1
     Q(r) pseudized with 10 coefficients,  rinner =    1.150   1.150   1.150


     Mode symmetry, O_h (m-3m)  point group:


     Atomic displacements:
     There are   1 irreducible representations

     Representation     1      3 modes -T_1u G_15  G_4-  To be done



     Alpha used in Ewald sum =   2.8000
     PHONON       :    14.54s CPU        45.72s WALL



     Representation #  1 modes #   1  2  3

     Self-consistent Calculation
 
     Pert. #  1: Fermi energy shift (Ry) =     1.7233E-25    -7.8366E-39
     Pert. #  2: Fermi energy shift (Ry) =    -9.0473E-26    -2.5469E-38
     Pert. #  3: Fermi energy shift (Ry) =     6.8932E-26    -6.8571E-38

      iter #   1 total cpu time :    46.8 secs   av.it.:   5.2
      thresh= 1.000E-02 alpha_mix =  0.700 |ddv_scf|^2 =  7.573E-08
 
     Pert. #  1: Fermi energy shift (Ry) =     1.7233E-26     0.0000E+00
     Pert. #  2: Fermi energy shift (Ry) =     2.8004E-26     0.0000E+00
     Pert. #  3: Fermi energy shift (Ry) =    -1.7233E-26     3.6352E-41

      iter #   2 total cpu time :    52.8 secs   av.it.:   9.6
      thresh= 2.752E-05 alpha_mix =  0.700 |ddv_scf|^2 =  4.674E-09
 
     Pert. #  1: Fermi energy shift (Ry) =     8.6165E-26    -1.3393E-41
     Pert. #  2: Fermi energy shift (Ry) =    -1.7233E-25    -3.8743E-41
     Pert. #  3: Fermi energy shift (Ry) =    -2.7573E-25    -2.3915E-41

      iter #   3 total cpu time :    57.3 secs   av.it.:   9.9
      thresh= 6.836E-06 alpha_mix =  0.700 |ddv_scf|^2 =  3.288E-11
 
     Pert. #  1: Fermi energy shift (Ry) =    -3.1019E-25     0.0000E+00
     Pert. #  2: Fermi energy shift (Ry) =    -2.1541E-26     2.3915E-43
     Pert. #  3: Fermi energy shift (Ry) =     6.8932E-26    -7.1746E-43

      iter #   4 total cpu time :    71.8 secs   av.it.:   9.4
      thresh= 5.734E-07 alpha_mix =  0.700 |ddv_scf|^2 =  7.661E-14
 
     Pert. #  1: Fermi energy shift (Ry) =     2.4126E-25     3.8265E-42
     Pert. #  2: Fermi energy shift (Ry) =     2.3911E-25     2.3915E-42
     Pert. #  3: Fermi energy shift (Ry) =     1.0340E-25     2.0328E-42

      iter #   5 total cpu time :    78.3 secs   av.it.:   9.3
      thresh= 2.768E-08 alpha_mix =  0.700 |ddv_scf|^2 =  1.102E-15
 
     Pert. #  1: Fermi energy shift (Ry) =    -1.2063E-25     3.8265E-42
     Pert. #  2: Fermi energy shift (Ry) =    -2.4126E-25     2.3915E-42
     Pert. #  3: Fermi energy shift (Ry) =     6.8932E-26     2.0328E-42

      iter #   6 total cpu time :    84.9 secs   av.it.:   8.6
      thresh= 3.320E-09 alpha_mix =  0.700 |ddv_scf|^2 =  4.337E-19

     End of self-consistent calculation

     Convergence has been achieved 
 
     Number of q in the star =    1
     List of q in the star:
          1   0.000000000   0.000000000   0.000000000

     Diagonalizing the dynamical matrix

     q = (    0.000000000   0.000000000   0.000000000 ) 

 **************************************************************************
     freq (    1) =      -0.101954 [THz] =      -3.400821 [cm-1]
     freq (    2) =      -0.101954 [THz] =      -3.400821 [cm-1]
     freq (    3) =      -0.101954 [THz] =      -3.400821 [cm-1]
 **************************************************************************

     Mode symmetry, O_h (m-3m)  point group:

     freq (  1 -  3) =         -3.4  [cm-1]   --> T_1u G_15  G_4- I  

     Calculation of q =   -0.1250000   0.1250000  -0.1250000
 
     G-vector sticks info
     --------------------
     sticks:   dense  smooth     PW     G-vecs:    dense   smooth      PW
     Sum        1135     571    199                25125     8873    1837
 


     bravais-lattice index     =            2
     lattice parameter (alat)  =       8.2838  a.u.
     unit-cell volume          =     142.1128 (a.u.)^3
     number of atoms/cell      =            1
     number of atomic types    =            1
     number of electrons       =         3.00
     number of Kohn-Sham states=            6
     kinetic-energy cutoff     =      60.0000  Ry
     charge density cutoff     =     480.0000  Ry
     Exchange-correlation      =  SLA  PW   PBX  PBC ( 1  4  3  4 0 0)

     celldm(1)=   8.283828  celldm(2)=   0.000000  celldm(3)=   0.000000
     celldm(4)=   0.000000  celldm(5)=   0.000000  celldm(6)=   0.000000

     crystal axes: (cart. coord. in units of alat)
               a(1) = (  -0.500000   0.000000   0.500000 )  
               a(2) = (   0.000000   0.500000   0.500000 )  
               a(3) = (  -0.500000   0.500000   0.000000 )  

     reciprocal axes: (cart. coord. in units 2 pi/alat)
               b(1) = ( -1.000000 -1.000000  1.000000 )  
               b(2) = (  1.000000  1.000000  1.000000 )  
               b(3) = ( -1.000000  1.000000 -1.000000 )  


     PseudoPot. # 1 for Li read from file:
     ../Li.pbe-s-gbrv14.UPF
     MD5 check sum: 7ca33c4f951f001da2db5c8738379802
     Pseudo is Ultrasoft, Zval =  3.0
     Generated by new atomic code, or converted to UPF format
     Using radial grid of  751 points,  5 beta functions with: 
                l(1) =   0
                l(2) =   0
                l(3) =   0
                l(4) =   1
                l(5) =   1
     Q(r) pseudized with 10 coefficients,  rinner =    1.150   1.150   1.150


     atomic species   valence    mass     pseudopotential
        Li             3.00     6.94100     Li( 1.00)

     48 Sym. Ops., with inversion, found



   Cartesian axes

     site n.     atom                  positions (alat units)
         1           Li  tau(   1) = (   0.0000000   0.0000000   0.0000000  )

     number of k points= 30856  Marzari-Vanderbilt smearing, width (Ry)=  0.0200

     Number of k-points >= 100: set verbosity='high' to print them.

     Dense  grid:    25125 G-vectors     FFT dimensions: (  45,  45,  45)

     Smooth grid:     8873 G-vectors     FFT dimensions: (  30,  30,  30)

     Largest allocated arrays     est. size (Mb)     dimensions
        Kohn-Sham Wavefunctions         0.10 Mb     (    1139,    6)
        NL pseudopotentials             0.16 Mb     (    1139,    9)
        Each V/rho on FFT grid          1.39 Mb     (   91125)
        Each G-vector array             0.19 Mb     (   25125)
        G-vector shells                 0.00 Mb     (     280)
     Largest temporary arrays     est. size (Mb)     dimensions
        Auxiliary wavefunctions         0.42 Mb     (    1139,   24)
        Each subspace H/S matrix        0.01 Mb     (      24,   24)
        Each <psi_i|beta_j> matrix      0.00 Mb     (       9,    6)

     The potential is recalculated from file :
     ./tmp/_ph0/li-fcc.save/charge-density.dat

     Starting wfc are    5 atomic +    1 random wfc

     Band Structure Calculation
     Davidson diagonalization with overlap

     ethr =  3.33E-10,  avg # of iterations = 15.6

     total cpu time spent up to now is        5.8 secs

     End of band structure calculation

     Number of k-points >= 100: set verbosity='high' to print the bands.

     the Fermi energy is     0.8202 ev

                                                                                

     bravais-lattice index     =            2
     lattice parameter (alat)  =       8.2838  a.u.
     unit-cell volume          =     142.1128 (a.u.)^3
     number of atoms/cell      =            1
     number of atomic types    =            1
     kinetic-energy cut-off    =      60.0000  Ry
     charge density cut-off    =     480.0000  Ry
     convergence threshold     =      1.0E-16
     beta                      =       0.7000
     number of iterations used =            4
     Exchange-correlation      =  SLA  PW   PBX  PBC ( 1  4  3  4 0 0)


     celldm(1)=    8.28383  celldm(2)=    0.00000  celldm(3)=    0.00000
     celldm(4)=    0.00000  celldm(5)=    0.00000  celldm(6)=    0.00000

     crystal axes: (cart. coord. in units of alat)
               a(1) = ( -0.5000  0.0000  0.5000 )  
               a(2) = (  0.0000  0.5000  0.5000 )  
               a(3) = ( -0.5000  0.5000  0.0000 )  

     reciprocal axes: (cart. coord. in units 2 pi/alat)
               b(1) = ( -1.0000 -1.0000  1.0000 )  
               b(2) = (  1.0000  1.0000  1.0000 )  
               b(3) = ( -1.0000  1.0000 -1.0000 )  


     Atoms inside the unit cell: 

     Cartesian axes

     site n.  atom      mass           positions (alat units)
        1     Li   6.9410   tau(    1) = (    0.00000    0.00000    0.00000  )

     Computing dynamical matrix for 
                    q = (  -0.1250000   0.1250000  -0.1250000 )
 
      6 Sym.Ops. (no q -> -q+G )


     G cutoff =  834.3411  (  25125 G-vectors)     FFT grid: ( 45, 45, 45)
     G cutoff =  417.1706  (   8873 G-vectors)  smooth grid: ( 30, 30, 30)

     number of k points= 30856  Marzari-Vanderbilt smearing, width (Ry)=  0.0200

     PseudoPot. # 1 for Li read from file:
     ../Li.pbe-s-gbrv14.UPF
     MD5 check sum: 7ca33c4f951f001da2db5c8738379802
     Pseudo is Ultrasoft, Zval =  3.0
     Generated by new atomic code, or converted to UPF format
     Using radial grid of  751 points,  5 beta functions with: 
                l(1) =   0
                l(2) =   0
                l(3) =   0
                l(4) =   1
                l(5) =   1
     Q(r) pseudized with 10 coefficients,  rinner =    1.150   1.150   1.150


     Mode symmetry, C_3v (3m)   point group:


     Atomic displacements:
     There are   2 irreducible representations

     Representation     1      1 modes -A_1  L_1  To be done

     Representation     2      2 modes -E    L_3  To be done



     Alpha used in Ewald sum =   2.8000
     PHONON       :  1m15.54s CPU     2m 5.30s WALL



     Representation #  1 mode #   1

     Self-consistent Calculation

      iter #   1 total cpu time :   126.1 secs   av.it.:   6.3
      thresh= 1.000E-02 alpha_mix =  0.700 |ddv_scf|^2 =  5.205E-02

      iter #   2 total cpu time :   130.8 secs   av.it.:   7.9
      thresh= 1.000E-02 alpha_mix =  0.700 |ddv_scf|^2 =  4.471E+01

      iter #   3 total cpu time :   139.0 secs   av.it.:   7.9
      thresh= 1.000E-02 alpha_mix =  0.700 |ddv_scf|^2 =  3.526E-04

      iter #   4 total cpu time :   149.1 secs   av.it.:   5.3
      thresh= 1.878E-03 alpha_mix =  0.700 |ddv_scf|^2 =  3.053E-08

      iter #   5 total cpu time :   154.0 secs   av.it.:   8.5
      thresh= 1.747E-05 alpha_mix =  0.700 |ddv_scf|^2 =  2.701E-10

      iter #   6 total cpu time :   157.0 secs   av.it.:   8.8
      thresh= 1.643E-06 alpha_mix =  0.700 |ddv_scf|^2 =  3.963E-11

      iter #   7 total cpu time :   166.7 secs   av.it.:   7.9
      thresh= 6.295E-07 alpha_mix =  0.700 |ddv_scf|^2 =  6.323E-09

      iter #   8 total cpu time :   167.4 secs   av.it.:   4.9
      thresh= 7.952E-06 alpha_mix =  0.700 |ddv_scf|^2 =  1.135E-13

      iter #   9 total cpu time :   169.5 secs   av.it.:   8.1
      thresh= 3.369E-08 alpha_mix =  0.700 |ddv_scf|^2 =  2.857E-15

      iter #  10 total cpu time :   172.5 secs   av.it.:   8.4
      thresh= 5.345E-09 alpha_mix =  0.700 |ddv_scf|^2 =  1.363E-14

      iter #  11 total cpu time :   175.4 secs   av.it.:   6.0
      thresh= 1.167E-08 alpha_mix =  0.700 |ddv_scf|^2 =  9.119E-17

     End of self-consistent calculation

     Convergence has been achieved 


     Representation #  2 modes #   2  3

     Self-consistent Calculation

      iter #   1 total cpu time :   184.9 secs   av.it.:   5.3
      thresh= 1.000E-02 alpha_mix =  0.700 |ddv_scf|^2 =  1.718E-07

      iter #   2 total cpu time :   187.8 secs   av.it.:   9.4
      thresh= 4.145E-05 alpha_mix =  0.700 |ddv_scf|^2 =  1.058E-08

      iter #   3 total cpu time :   193.0 secs   av.it.:   9.6
      thresh= 1.029E-05 alpha_mix =  0.700 |ddv_scf|^2 =  8.211E-11

      iter #   4 total cpu time :   198.5 secs   av.it.:   9.2
      thresh= 9.062E-07 alpha_mix =  0.700 |ddv_scf|^2 =  1.727E-13

      iter #   5 total cpu time :   202.6 secs   av.it.:   9.1
      thresh= 4.156E-08 alpha_mix =  0.700 |ddv_scf|^2 =  2.630E-15

      iter #   6 total cpu time :   204.3 secs   av.it.:   8.2
      thresh= 5.128E-09 alpha_mix =  0.700 |ddv_scf|^2 =  1.296E-18

     End of self-consistent calculation

     Convergence has been achieved 
 
     Number of q in the star =    8
     List of q in the star:
          1  -0.125000000   0.125000000  -0.125000000
          2   0.125000000  -0.125000000  -0.125000000
          3   0.125000000  -0.125000000   0.125000000
          4  -0.125000000   0.125000000   0.125000000
          5   0.125000000   0.125000000  -0.125000000
          6  -0.125000000  -0.125000000  -0.125000000
          7  -0.125000000  -0.125000000   0.125000000
          8   0.125000000   0.125000000   0.125000000

     Diagonalizing the dynamical matrix

     q = (   -0.125000000   0.125000000  -0.125000000 ) 

 **************************************************************************
     freq (    1) =       1.385946 [THz] =      46.230178 [cm-1]
     freq (    2) =       1.385946 [THz] =      46.230178 [cm-1]
     freq (    3) =       3.448670 [THz] =     115.035244 [cm-1]
 **************************************************************************

     Mode symmetry, C_3v (3m)   point group:

     freq (  1 -  2) =         46.2  [cm-1]   --> E    L_3           
     freq (  3 -  3) =        115.0  [cm-1]   --> A_1  L_1           

     Calculation of q =   -0.2500000   0.2500000  -0.2500000
 
     G-vector sticks info
     --------------------
     sticks:   dense  smooth     PW     G-vecs:    dense   smooth      PW
     Sum        1135     571    199                25125     8873    1917
 


     bravais-lattice index     =            2
     lattice parameter (alat)  =       8.2838  a.u.
     unit-cell volume          =     142.1128 (a.u.)^3
     number of atoms/cell      =            1
     number of atomic types    =            1
     number of electrons       =         3.00
     number of Kohn-Sham states=            6
     kinetic-energy cutoff     =      60.0000  Ry
     charge density cutoff     =     480.0000  Ry
     Exchange-correlation      =  SLA  PW   PBX  PBC ( 1  4  3  4 0 0)

     celldm(1)=   8.283828  celldm(2)=   0.000000  celldm(3)=   0.000000
     celldm(4)=   0.000000  celldm(5)=   0.000000  celldm(6)=   0.000000

     crystal axes: (cart. coord. in units of alat)
               a(1) = (  -0.500000   0.000000   0.500000 )  
               a(2) = (   0.000000   0.500000   0.500000 )  
               a(3) = (  -0.500000   0.500000   0.000000 )  

     reciprocal axes: (cart. coord. in units 2 pi/alat)
               b(1) = ( -1.000000 -1.000000  1.000000 )  
               b(2) = (  1.000000  1.000000  1.000000 )  
               b(3) = ( -1.000000  1.000000 -1.000000 )  


     PseudoPot. # 1 for Li read from file:
     ../Li.pbe-s-gbrv14.UPF
     MD5 check sum: 7ca33c4f951f001da2db5c8738379802
     Pseudo is Ultrasoft, Zval =  3.0
     Generated by new atomic code, or converted to UPF format
     Using radial grid of  751 points,  5 beta functions with: 
                l(1) =   0
                l(2) =   0
                l(3) =   0
                l(4) =   1
                l(5) =   1
     Q(r) pseudized with 10 coefficients,  rinner =    1.150   1.150   1.150


     atomic species   valence    mass     pseudopotential
        Li             3.00     6.94100     Li( 1.00)

     48 Sym. Ops., with inversion, found



   Cartesian axes

     site n.     atom                  positions (alat units)
         1           Li  tau(   1) = (   0.0000000   0.0000000   0.0000000  )

     number of k points= 30856  Marzari-Vanderbilt smearing, width (Ry)=  0.0200

     Number of k-points >= 100: set verbosity='high' to print them.

     Dense  grid:    25125 G-vectors     FFT dimensions: (  45,  45,  45)

     Smooth grid:     8873 G-vectors     FFT dimensions: (  30,  30,  30)

     Largest allocated arrays     est. size (Mb)     dimensions
        Kohn-Sham Wavefunctions         0.10 Mb     (    1133,    6)
        NL pseudopotentials             0.16 Mb     (    1133,    9)
        Each V/rho on FFT grid          1.39 Mb     (   91125)
        Each G-vector array             0.19 Mb     (   25125)
        G-vector shells                 0.00 Mb     (     280)
     Largest temporary arrays     est. size (Mb)     dimensions
        Auxiliary wavefunctions         0.41 Mb     (    1133,   24)
        Each subspace H/S matrix        0.01 Mb     (      24,   24)
        Each <psi_i|beta_j> matrix      0.00 Mb     (       9,    6)

     The potential is recalculated from file :
     ./tmp/_ph0/li-fcc.save/charge-density.dat

     Starting wfc are    5 atomic +    1 random wfc

     Band Structure Calculation
     Davidson diagonalization with overlap

     ethr =  3.33E-10,  avg # of iterations = 15.7

     total cpu time spent up to now is       17.7 secs

     End of band structure calculation

     Number of k-points >= 100: set verbosity='high' to print the bands.

     the Fermi energy is     0.8202 ev

                                                                                

     bravais-lattice index     =            2
     lattice parameter (alat)  =       8.2838  a.u.
     unit-cell volume          =     142.1128 (a.u.)^3
     number of atoms/cell      =            1
     number of atomic types    =            1
     kinetic-energy cut-off    =      60.0000  Ry
     charge density cut-off    =     480.0000  Ry
     convergence threshold     =      1.0E-16
     beta                      =       0.7000
     number of iterations used =            4
     Exchange-correlation      =  SLA  PW   PBX  PBC ( 1  4  3  4 0 0)


     celldm(1)=    8.28383  celldm(2)=    0.00000  celldm(3)=    0.00000
     celldm(4)=    0.00000  celldm(5)=    0.00000  celldm(6)=    0.00000

     crystal axes: (cart. coord. in units of alat)
               a(1) = ( -0.5000  0.0000  0.5000 )  
               a(2) = (  0.0000  0.5000  0.5000 )  
               a(3) = ( -0.5000  0.5000  0.0000 )  

     reciprocal axes: (cart. coord. in units 2 pi/alat)
               b(1) = ( -1.0000 -1.0000  1.0000 )  
               b(2) = (  1.0000  1.0000  1.0000 )  
               b(3) = ( -1.0000  1.0000 -1.0000 )  


     Atoms inside the unit cell: 

     Cartesian axes

     site n.  atom      mass           positions (alat units)
        1     Li   6.9410   tau(    1) = (    0.00000    0.00000    0.00000  )

     Computing dynamical matrix for 
                    q = (  -0.2500000   0.2500000  -0.2500000 )
 
      6 Sym.Ops. (no q -> -q+G )


     G cutoff =  834.3411  (  25125 G-vectors)     FFT grid: ( 45, 45, 45)
     G cutoff =  417.1706  (   8873 G-vectors)  smooth grid: ( 30, 30, 30)

     number of k points= 30856  Marzari-Vanderbilt smearing, width (Ry)=  0.0200

     PseudoPot. # 1 for Li read from file:
     ../Li.pbe-s-gbrv14.UPF
     MD5 check sum: 7ca33c4f951f001da2db5c8738379802
     Pseudo is Ultrasoft, Zval =  3.0
     Generated by new atomic code, or converted to UPF format
     Using radial grid of  751 points,  5 beta functions with: 
                l(1) =   0
                l(2) =   0
                l(3) =   0
                l(4) =   1
                l(5) =   1
     Q(r) pseudized with 10 coefficients,  rinner =    1.150   1.150   1.150


     Mode symmetry, C_3v (3m)   point group:


     Atomic displacements:
     There are   2 irreducible representations

     Representation     1      1 modes -A_1  L_1  To be done

     Representation     2      2 modes -E    L_3  To be done



     Alpha used in Ewald sum =   2.8000
     PHONON       :  2m31.56s CPU     3m47.85s WALL



     Representation #  1 mode #   1

     Self-consistent Calculation

      iter #   1 total cpu time :   228.6 secs   av.it.:   6.4
      thresh= 1.000E-02 alpha_mix =  0.700 |ddv_scf|^2 =  6.328E-04

      iter #   2 total cpu time :   234.0 secs   av.it.:   7.9
      thresh= 2.516E-03 alpha_mix =  0.700 |ddv_scf|^2 =  2.305E-02

      iter #   3 total cpu time :   240.5 secs   av.it.:   6.4
      thresh= 1.000E-02 alpha_mix =  0.700 |ddv_scf|^2 =  6.231E-08

      iter #   4 total cpu time :   250.5 secs   av.it.:   9.0
      thresh= 2.496E-05 alpha_mix =  0.700 |ddv_scf|^2 =  2.939E-09

      iter #   5 total cpu time :   254.3 secs   av.it.:   9.0
      thresh= 5.421E-06 alpha_mix =  0.700 |ddv_scf|^2 =  5.890E-11

      iter #   6 total cpu time :   257.8 secs   av.it.:   8.7
      thresh= 7.674E-07 alpha_mix =  0.700 |ddv_scf|^2 =  1.956E-13

      iter #   7 total cpu time :   265.3 secs   av.it.:   9.6
      thresh= 4.423E-08 alpha_mix =  0.700 |ddv_scf|^2 =  1.799E-14

      iter #   8 total cpu time :   272.0 secs   av.it.:   8.6
      thresh= 1.341E-08 alpha_mix =  0.700 |ddv_scf|^2 =  5.116E-14

      iter #   9 total cpu time :   274.6 secs   av.it.:   6.7
      thresh= 2.262E-08 alpha_mix =  0.700 |ddv_scf|^2 =  1.644E-14

      iter #  10 total cpu time :   280.0 secs   av.it.:   6.7
      thresh= 1.282E-08 alpha_mix =  0.700 |ddv_scf|^2 =  2.870E-17

     End of self-consistent calculation

     Convergence has been achieved 


     Representation #  2 modes #   2  3

     Self-consistent Calculation

      iter #   1 total cpu time :   284.6 secs   av.it.:   5.4
      thresh= 1.000E-02 alpha_mix =  0.700 |ddv_scf|^2 =  1.752E-07

      iter #   2 total cpu time :   289.5 secs   av.it.:   9.5
      thresh= 4.186E-05 alpha_mix =  0.700 |ddv_scf|^2 =  1.073E-08

      iter #   3 total cpu time :   294.8 secs   av.it.:   9.7
      thresh= 1.036E-05 alpha_mix =  0.700 |ddv_scf|^2 =  9.958E-11

      iter #   4 total cpu time :   306.6 secs   av.it.:   9.2
      thresh= 9.979E-07 alpha_mix =  0.700 |ddv_scf|^2 =  1.799E-13

      iter #   5 total cpu time :   313.6 secs   av.it.:   9.2
      thresh= 4.242E-08 alpha_mix =  0.700 |ddv_scf|^2 =  2.860E-15

      iter #   6 total cpu time :   321.4 secs   av.it.:   7.9
      thresh= 5.348E-09 alpha_mix =  0.700 |ddv_scf|^2 =  1.602E-18

     End of self-consistent calculation

     Convergence has been achieved 
 
     Number of q in the star =    8
     List of q in the star:
          1  -0.250000000   0.250000000  -0.250000000
          2   0.250000000  -0.250000000  -0.250000000
          3   0.250000000  -0.250000000   0.250000000
          4  -0.250000000   0.250000000   0.250000000
          5   0.250000000   0.250000000  -0.250000000
          6  -0.250000000  -0.250000000  -0.250000000
          7  -0.250000000  -0.250000000   0.250000000
          8   0.250000000   0.250000000   0.250000000

     Diagonalizing the dynamical matrix

     q = (   -0.250000000   0.250000000  -0.250000000 ) 

 **************************************************************************
     freq (    1) =       2.581058 [THz] =      86.094816 [cm-1]
     freq (    2) =       2.581058 [THz] =      86.094816 [cm-1]
     freq (    3) =       6.592293 [THz] =     219.895221 [cm-1]
 **************************************************************************

     Mode symmetry, C_3v (3m)   point group:

     freq (  1 -  2) =         86.1  [cm-1]   --> E    L_3           
     freq (  3 -  3) =        219.9  [cm-1]   --> A_1  L_1           

     Calculation of q =   -0.3750000   0.3750000  -0.3750000
 
     G-vector sticks info
     --------------------
     sticks:   dense  smooth     PW     G-vecs:    dense   smooth      PW
     Sum        1135     571    211                25125     8873    1989
 


     bravais-lattice index     =            2
     lattice parameter (alat)  =       8.2838  a.u.
     unit-cell volume          =     142.1128 (a.u.)^3
     number of atoms/cell      =            1
     number of atomic types    =            1
     number of electrons       =         3.00
     number of Kohn-Sham states=            6
     kinetic-energy cutoff     =      60.0000  Ry
     charge density cutoff     =     480.0000  Ry
     Exchange-correlation      =  SLA  PW   PBX  PBC ( 1  4  3  4 0 0)

     celldm(1)=   8.283828  celldm(2)=   0.000000  celldm(3)=   0.000000
     celldm(4)=   0.000000  celldm(5)=   0.000000  celldm(6)=   0.000000

     crystal axes: (cart. coord. in units of alat)
               a(1) = (  -0.500000   0.000000   0.500000 )  
               a(2) = (   0.000000   0.500000   0.500000 )  
               a(3) = (  -0.500000   0.500000   0.000000 )  

     reciprocal axes: (cart. coord. in units 2 pi/alat)
               b(1) = ( -1.000000 -1.000000  1.000000 )  
               b(2) = (  1.000000  1.000000  1.000000 )  
               b(3) = ( -1.000000  1.000000 -1.000000 )  


     PseudoPot. # 1 for Li read from file:
     ../Li.pbe-s-gbrv14.UPF
     MD5 check sum: 7ca33c4f951f001da2db5c8738379802
     Pseudo is Ultrasoft, Zval =  3.0
     Generated by new atomic code, or converted to UPF format
     Using radial grid of  751 points,  5 beta functions with: 
                l(1) =   0
                l(2) =   0
                l(3) =   0
                l(4) =   1
                l(5) =   1
     Q(r) pseudized with 10 coefficients,  rinner =    1.150   1.150   1.150


     atomic species   valence    mass     pseudopotential
        Li             3.00     6.94100     Li( 1.00)

     48 Sym. Ops., with inversion, found



   Cartesian axes

     site n.     atom                  positions (alat units)
         1           Li  tau(   1) = (   0.0000000   0.0000000   0.0000000  )

     number of k points= 30856  Marzari-Vanderbilt smearing, width (Ry)=  0.0200

     Number of k-points >= 100: set verbosity='high' to print them.

     Dense  grid:    25125 G-vectors     FFT dimensions: (  45,  45,  45)

     Smooth grid:     8873 G-vectors     FFT dimensions: (  30,  30,  30)

     Largest allocated arrays     est. size (Mb)     dimensions
        Kohn-Sham Wavefunctions         0.10 Mb     (    1139,    6)
        NL pseudopotentials             0.16 Mb     (    1139,    9)
        Each V/rho on FFT grid          1.39 Mb     (   91125)
        Each G-vector array             0.19 Mb     (   25125)
        G-vector shells                 0.00 Mb     (     280)
     Largest temporary arrays     est. size (Mb)     dimensions
        Auxiliary wavefunctions         0.42 Mb     (    1139,   24)
        Each subspace H/S matrix        0.01 Mb     (      24,   24)
        Each <psi_i|beta_j> matrix      0.00 Mb     (       9,    6)

     The potential is recalculated from file :
     ./tmp/_ph0/li-fcc.save/charge-density.dat

     Starting wfc are    5 atomic +    1 random wfc

     Band Structure Calculation
     Davidson diagonalization with overlap

     ethr =  3.33E-10,  avg # of iterations = 15.7

     total cpu time spent up to now is       25.0 secs

     End of band structure calculation

     Number of k-points >= 100: set verbosity='high' to print the bands.

     the Fermi energy is     0.8202 ev

                                                                                

     bravais-lattice index     =            2
     lattice parameter (alat)  =       8.2838  a.u.
     unit-cell volume          =     142.1128 (a.u.)^3
     number of atoms/cell      =            1
     number of atomic types    =            1
     kinetic-energy cut-off    =      60.0000  Ry
     charge density cut-off    =     480.0000  Ry
     convergence threshold     =      1.0E-16
     beta                      =       0.7000
     number of iterations used =            4
     Exchange-correlation      =  SLA  PW   PBX  PBC ( 1  4  3  4 0 0)


     celldm(1)=    8.28383  celldm(2)=    0.00000  celldm(3)=    0.00000
     celldm(4)=    0.00000  celldm(5)=    0.00000  celldm(6)=    0.00000

     crystal axes: (cart. coord. in units of alat)
               a(1) = ( -0.5000  0.0000  0.5000 )  
               a(2) = (  0.0000  0.5000  0.5000 )  
               a(3) = ( -0.5000  0.5000  0.0000 )  

     reciprocal axes: (cart. coord. in units 2 pi/alat)
               b(1) = ( -1.0000 -1.0000  1.0000 )  
               b(2) = (  1.0000  1.0000  1.0000 )  
               b(3) = ( -1.0000  1.0000 -1.0000 )  


     Atoms inside the unit cell: 

     Cartesian axes

     site n.  atom      mass           positions (alat units)
        1     Li   6.9410   tau(    1) = (    0.00000    0.00000    0.00000  )

     Computing dynamical matrix for 
                    q = (  -0.3750000   0.3750000  -0.3750000 )
 
      6 Sym.Ops. (no q -> -q+G )


     G cutoff =  834.3411  (  25125 G-vectors)     FFT grid: ( 45, 45, 45)
     G cutoff =  417.1706  (   8873 G-vectors)  smooth grid: ( 30, 30, 30)

     number of k points= 30856  Marzari-Vanderbilt smearing, width (Ry)=  0.0200

     PseudoPot. # 1 for Li read from file:
     ../Li.pbe-s-gbrv14.UPF
     MD5 check sum: 7ca33c4f951f001da2db5c8738379802
     Pseudo is Ultrasoft, Zval =  3.0
     Generated by new atomic code, or converted to UPF format
     Using radial grid of  751 points,  5 beta functions with: 
                l(1) =   0
                l(2) =   0
                l(3) =   0
                l(4) =   1
                l(5) =   1
     Q(r) pseudized with 10 coefficients,  rinner =    1.150   1.150   1.150


     Mode symmetry, C_3v (3m)   point group:


     Atomic displacements:
     There are   2 irreducible representations

     Representation     1      1 modes -A_1  L_1  To be done

     Representation     2      2 modes -E    L_3  To be done



     Alpha used in Ewald sum =   2.8000
     PHONON       :  4m 7.79s CPU     5m52.84s WALL



     Representation #  1 mode #   1

     Self-consistent Calculation

      iter #   1 total cpu time :   353.6 secs   av.it.:   6.3
      thresh= 1.000E-02 alpha_mix =  0.700 |ddv_scf|^2 =  4.295E-05

      iter #   2 total cpu time :   360.4 secs   av.it.:   8.6
      thresh= 6.554E-04 alpha_mix =  0.700 |ddv_scf|^2 =  1.640E-04

      iter #   3 total cpu time :   368.6 secs   av.it.:   7.1
      thresh= 1.280E-03 alpha_mix =  0.700 |ddv_scf|^2 =  4.174E-08

      iter #   4 total cpu time :   375.3 secs   av.it.:   8.8
      thresh= 2.043E-05 alpha_mix =  0.700 |ddv_scf|^2 =  2.298E-09

      iter #   5 total cpu time :   381.1 secs   av.it.:   8.9
      thresh= 4.793E-06 alpha_mix =  0.700 |ddv_scf|^2 =  2.826E-12

      iter #   6 total cpu time :   391.4 secs   av.it.:   9.1
      thresh= 1.681E-07 alpha_mix =  0.700 |ddv_scf|^2 =  1.639E-13

      iter #   7 total cpu time :   398.3 secs   av.it.:   9.3
      thresh= 4.049E-08 alpha_mix =  0.700 |ddv_scf|^2 =  8.335E-16

      iter #   8 total cpu time :   399.7 secs   av.it.:   9.6
      thresh= 2.887E-09 alpha_mix =  0.700 |ddv_scf|^2 =  6.033E-16

      iter #   9 total cpu time :   401.7 secs   av.it.:   8.5
      thresh= 2.456E-09 alpha_mix =  0.700 |ddv_scf|^2 =  2.147E-17

     End of self-consistent calculation

     Convergence has been achieved 


     Representation #  2 modes #   2  3

     Self-consistent Calculation

      iter #   1 total cpu time :   414.7 secs   av.it.:   5.5
      thresh= 1.000E-02 alpha_mix =  0.700 |ddv_scf|^2 =  1.785E-07

      iter #   2 total cpu time :   416.5 secs   av.it.:   9.5
      thresh= 4.225E-05 alpha_mix =  0.700 |ddv_scf|^2 =  1.087E-08

      iter #   3 total cpu time :   419.1 secs   av.it.:   9.8
      thresh= 1.043E-05 alpha_mix =  0.700 |ddv_scf|^2 =  1.124E-10

      iter #   4 total cpu time :   421.5 secs   av.it.:   9.2
      thresh= 1.060E-06 alpha_mix =  0.700 |ddv_scf|^2 =  1.871E-13

      iter #   5 total cpu time :   423.7 secs   av.it.:   9.3
      thresh= 4.325E-08 alpha_mix =  0.700 |ddv_scf|^2 =  3.140E-15

      iter #   6 total cpu time :   426.6 secs   av.it.:   8.2
      thresh= 5.604E-09 alpha_mix =  0.700 |ddv_scf|^2 =  1.169E-18

     End of self-consistent calculation

     Convergence has been achieved 
 
     Number of q in the star =    8
     List of q in the star:
          1  -0.375000000   0.375000000  -0.375000000
          2   0.375000000  -0.375000000  -0.375000000
          3   0.375000000  -0.375000000   0.375000000
          4  -0.375000000   0.375000000   0.375000000
          5   0.375000000   0.375000000  -0.375000000
          6  -0.375000000  -0.375000000  -0.375000000
          7  -0.375000000  -0.375000000   0.375000000
          8   0.375000000   0.375000000   0.375000000

     Diagonalizing the dynamical matrix

     q = (   -0.375000000   0.375000000  -0.375000000 ) 

 **************************************************************************
     freq (    1) =       3.425028 [THz] =     114.246638 [cm-1]
     freq (    2) =       3.425028 [THz] =     114.246638 [cm-1]
     freq (    3) =       8.423304 [THz] =     280.971181 [cm-1]
 **************************************************************************

     Mode symmetry, C_3v (3m)   point group:

     freq (  1 -  2) =        114.2  [cm-1]   --> E    L_3           
     freq (  3 -  3) =        281.0  [cm-1]   --> A_1  L_1           

     Calculation of q =    0.5000000  -0.5000000   0.5000000
 
     G-vector sticks info
     --------------------
     sticks:   dense  smooth     PW     G-vecs:    dense   smooth      PW
     Sum        1135     571    211                25125     8873    2085
 


     bravais-lattice index     =            2
     lattice parameter (alat)  =       8.2838  a.u.
     unit-cell volume          =     142.1128 (a.u.)^3
     number of atoms/cell      =            1
     number of atomic types    =            1
     number of electrons       =         3.00
     number of Kohn-Sham states=            6
     kinetic-energy cutoff     =      60.0000  Ry
     charge density cutoff     =     480.0000  Ry
     Exchange-correlation      =  SLA  PW   PBX  PBC ( 1  4  3  4 0 0)

     celldm(1)=   8.283828  celldm(2)=   0.000000  celldm(3)=   0.000000
     celldm(4)=   0.000000  celldm(5)=   0.000000  celldm(6)=   0.000000

     crystal axes: (cart. coord. in units of alat)
               a(1) = (  -0.500000   0.000000   0.500000 )  
               a(2) = (   0.000000   0.500000   0.500000 )  
               a(3) = (  -0.500000   0.500000   0.000000 )  

     reciprocal axes: (cart. coord. in units 2 pi/alat)
               b(1) = ( -1.000000 -1.000000  1.000000 )  
               b(2) = (  1.000000  1.000000  1.000000 )  
               b(3) = ( -1.000000  1.000000 -1.000000 )  


     PseudoPot. # 1 for Li read from file:
     ../Li.pbe-s-gbrv14.UPF
     MD5 check sum: 7ca33c4f951f001da2db5c8738379802
     Pseudo is Ultrasoft, Zval =  3.0
     Generated by new atomic code, or converted to UPF format
     Using radial grid of  751 points,  5 beta functions with: 
                l(1) =   0
                l(2) =   0
                l(3) =   0
                l(4) =   1
                l(5) =   1
     Q(r) pseudized with 10 coefficients,  rinner =    1.150   1.150   1.150


     atomic species   valence    mass     pseudopotential
        Li             3.00     6.94100     Li( 1.00)

     48 Sym. Ops., with inversion, found



   Cartesian axes

     site n.     atom                  positions (alat units)
         1           Li  tau(   1) = (   0.0000000   0.0000000   0.0000000  )

     number of k points= 15428  Marzari-Vanderbilt smearing, width (Ry)=  0.0200

     Number of k-points >= 100: set verbosity='high' to print them.

     Dense  grid:    25125 G-vectors     FFT dimensions: (  45,  45,  45)

     Smooth grid:     8873 G-vectors     FFT dimensions: (  30,  30,  30)

     Largest allocated arrays     est. size (Mb)     dimensions
        Kohn-Sham Wavefunctions         0.10 Mb     (    1133,    6)
        NL pseudopotentials             0.16 Mb     (    1133,    9)
        Each V/rho on FFT grid          1.39 Mb     (   91125)
        Each G-vector array             0.19 Mb     (   25125)
        G-vector shells                 0.00 Mb     (     280)
     Largest temporary arrays     est. size (Mb)     dimensions
        Auxiliary wavefunctions         0.41 Mb     (    1133,   24)
        Each subspace H/S matrix        0.01 Mb     (      24,   24)
        Each <psi_i|beta_j> matrix      0.00 Mb     (       9,    6)

     The potential is recalculated from file :
     ./tmp/_ph0/li-fcc.save/charge-density.dat

     Starting wfc are    5 atomic +    1 random wfc

     Band Structure Calculation
     Davidson diagonalization with overlap

     ethr =  3.33E-10,  avg # of iterations = 15.6

     total cpu time spent up to now is       30.8 secs

     End of band structure calculation

     Number of k-points >= 100: set verbosity='high' to print the bands.

     the Fermi energy is     0.8202 ev

                                                                                

     bravais-lattice index     =            2
     lattice parameter (alat)  =       8.2838  a.u.
     unit-cell volume          =     142.1128 (a.u.)^3
     number of atoms/cell      =            1
     number of atomic types    =            1
     kinetic-energy cut-off    =      60.0000  Ry
     charge density cut-off    =     480.0000  Ry
     convergence threshold     =      1.0E-16
     beta                      =       0.7000
     number of iterations used =            4
     Exchange-correlation      =  SLA  PW   PBX  PBC ( 1  4  3  4 0 0)


     celldm(1)=    8.28383  celldm(2)=    0.00000  celldm(3)=    0.00000
     celldm(4)=    0.00000  celldm(5)=    0.00000  celldm(6)=    0.00000

     crystal axes: (cart. coord. in units of alat)
               a(1) = ( -0.5000  0.0000  0.5000 )  
               a(2) = (  0.0000  0.5000  0.5000 )  
               a(3) = ( -0.5000  0.5000  0.0000 )  

     reciprocal axes: (cart. coord. in units 2 pi/alat)
               b(1) = ( -1.0000 -1.0000  1.0000 )  
               b(2) = (  1.0000  1.0000  1.0000 )  
               b(3) = ( -1.0000  1.0000 -1.0000 )  


     Atoms inside the unit cell: 

     Cartesian axes

     site n.  atom      mass           positions (alat units)
        1     Li   6.9410   tau(    1) = (    0.00000    0.00000    0.00000  )

     Computing dynamical matrix for 
                    q = (   0.5000000  -0.5000000   0.5000000 )
 
     13 Sym.Ops. (with q -> -q+G )


     G cutoff =  834.3411  (  25125 G-vectors)     FFT grid: ( 45, 45, 45)
     G cutoff =  417.1706  (   8873 G-vectors)  smooth grid: ( 30, 30, 30)

     number of k points= 15428  Marzari-Vanderbilt smearing, width (Ry)=  0.0200

     PseudoPot. # 1 for Li read from file:
     ../Li.pbe-s-gbrv14.UPF
     MD5 check sum: 7ca33c4f951f001da2db5c8738379802
     Pseudo is Ultrasoft, Zval =  3.0
     Generated by new atomic code, or converted to UPF format
     Using radial grid of  751 points,  5 beta functions with: 
                l(1) =   0
                l(2) =   0
                l(3) =   0
                l(4) =   1
                l(5) =   1
     Q(r) pseudized with 10 coefficients,  rinner =    1.150   1.150   1.150


     Mode symmetry, D_3d (-3m)  point group:


     Atomic displacements:
     There are   2 irreducible representations

     Representation     1      1 modes -A_2u L_2'  To be done

     Representation     2      2 modes -E_u  L_3'  To be done



     Alpha used in Ewald sum =   2.8000
     PHONON       :  5m25.32s CPU     7m25.52s WALL



     Representation #  1 mode #   1

     Self-consistent Calculation

      iter #   1 total cpu time :   446.0 secs   av.it.:   6.3
      thresh= 1.000E-02 alpha_mix =  0.700 |ddv_scf|^2 =  1.138E-05

      iter #   2 total cpu time :   459.0 secs   av.it.:   8.8
      thresh= 3.374E-04 alpha_mix =  0.700 |ddv_scf|^2 =  5.127E-06

      iter #   3 total cpu time :   472.0 secs   av.it.:   8.0
      thresh= 2.264E-04 alpha_mix =  0.700 |ddv_scf|^2 =  1.382E-08

      iter #   4 total cpu time :   479.8 secs   av.it.:   9.0
      thresh= 1.175E-05 alpha_mix =  0.700 |ddv_scf|^2 =  8.222E-12

      iter #   5 total cpu time :   494.5 secs   av.it.:   8.7
      thresh= 2.867E-07 alpha_mix =  0.700 |ddv_scf|^2 =  5.128E-13

      iter #   6 total cpu time :   496.9 secs   av.it.:   8.3
      thresh= 7.161E-08 alpha_mix =  0.700 |ddv_scf|^2 =  2.623E-15

      iter #   7 total cpu time :   498.8 secs   av.it.:   9.1
      thresh= 5.122E-09 alpha_mix =  0.700 |ddv_scf|^2 =  2.199E-18

     End of self-consistent calculation

     Convergence has been achieved 


     Representation #  2 modes #   2  3

     Self-consistent Calculation

      iter #   1 total cpu time :   503.8 secs   av.it.:   5.4
      thresh= 1.000E-02 alpha_mix =  0.700 |ddv_scf|^2 =  1.798E-07

      iter #   2 total cpu time :   505.5 secs   av.it.:   9.3
      thresh= 4.241E-05 alpha_mix =  0.700 |ddv_scf|^2 =  1.092E-08

      iter #   3 total cpu time :   507.5 secs   av.it.:   9.6
      thresh= 1.045E-05 alpha_mix =  0.700 |ddv_scf|^2 =  1.159E-10

      iter #   4 total cpu time :   512.1 secs   av.it.:   9.0
      thresh= 1.077E-06 alpha_mix =  0.700 |ddv_scf|^2 =  1.893E-13

      iter #   5 total cpu time :   513.9 secs   av.it.:   9.1
      thresh= 4.351E-08 alpha_mix =  0.700 |ddv_scf|^2 =  3.423E-15

      iter #   6 total cpu time :   516.1 secs   av.it.:   8.0
      thresh= 5.850E-09 alpha_mix =  0.700 |ddv_scf|^2 =  7.601E-19

     End of self-consistent calculation

     Convergence has been achieved 
 
     Number of q in the star =    4
     List of q in the star:
          1   0.500000000  -0.500000000   0.500000000
          2   0.500000000   0.500000000   0.500000000
          3  -0.500000000   0.500000000   0.500000000
          4   0.500000000   0.500000000  -0.500000000

     Diagonalizing the dynamical matrix

     q = (    0.500000000  -0.500000000   0.500000000 ) 

 **************************************************************************
     freq (    1) =       3.739315 [THz] =     124.730112 [cm-1]
     freq (    2) =       3.739315 [THz] =     124.730112 [cm-1]
     freq (    3) =       9.006094 [THz] =     300.410965 [cm-1]
 **************************************************************************

     Mode symmetry, D_3d (-3m)  point group:

     freq (  1 -  2) =        124.7  [cm-1]   --> E_u  L_3'          
     freq (  3 -  3) =        300.4  [cm-1]   --> A_2u L_2'          

     Calculation of q =    0.0000000   0.2500000   0.0000000
 
     G-vector sticks info
     --------------------
     sticks:   dense  smooth     PW     G-vecs:    dense   smooth      PW
     Sum        1135     571    199                25125     8873    1837
 


     bravais-lattice index     =            2
     lattice parameter (alat)  =       8.2838  a.u.
     unit-cell volume          =     142.1128 (a.u.)^3
     number of atoms/cell      =            1
     number of atomic types    =            1
     number of electrons       =         3.00
     number of Kohn-Sham states=            6
     kinetic-energy cutoff     =      60.0000  Ry
     charge density cutoff     =     480.0000  Ry
     Exchange-correlation      =  SLA  PW   PBX  PBC ( 1  4  3  4 0 0)

     celldm(1)=   8.283828  celldm(2)=   0.000000  celldm(3)=   0.000000
     celldm(4)=   0.000000  celldm(5)=   0.000000  celldm(6)=   0.000000

     crystal axes: (cart. coord. in units of alat)
               a(1) = (  -0.500000   0.000000   0.500000 )  
               a(2) = (   0.000000   0.500000   0.500000 )  
               a(3) = (  -0.500000   0.500000   0.000000 )  

     reciprocal axes: (cart. coord. in units 2 pi/alat)
               b(1) = ( -1.000000 -1.000000  1.000000 )  
               b(2) = (  1.000000  1.000000  1.000000 )  
               b(3) = ( -1.000000  1.000000 -1.000000 )  


     PseudoPot. # 1 for Li read from file:
     ../Li.pbe-s-gbrv14.UPF
     MD5 check sum: 7ca33c4f951f001da2db5c8738379802
     Pseudo is Ultrasoft, Zval =  3.0
     Generated by new atomic code, or converted to UPF format
     Using radial grid of  751 points,  5 beta functions with: 
                l(1) =   0
                l(2) =   0
                l(3) =   0
                l(4) =   1
                l(5) =   1
     Q(r) pseudized with 10 coefficients,  rinner =    1.150   1.150   1.150


     atomic species   valence    mass     pseudopotential
        Li             3.00     6.94100     Li( 1.00)

     48 Sym. Ops., with inversion, found



   Cartesian axes

     site n.     atom                  positions (alat units)
         1           Li  tau(   1) = (   0.0000000   0.0000000   0.0000000  )

     number of k points= 22736  Marzari-Vanderbilt smearing, width (Ry)=  0.0200

     Number of k-points >= 100: set verbosity='high' to print them.

     Dense  grid:    25125 G-vectors     FFT dimensions: (  45,  45,  45)

     Smooth grid:     8873 G-vectors     FFT dimensions: (  30,  30,  30)

     Largest allocated arrays     est. size (Mb)     dimensions
        Kohn-Sham Wavefunctions         0.10 Mb     (    1133,    6)
        NL pseudopotentials             0.16 Mb     (    1133,    9)
        Each V/rho on FFT grid          1.39 Mb     (   91125)
        Each G-vector array             0.19 Mb     (   25125)
        G-vector shells                 0.00 Mb     (     280)
     Largest temporary arrays     est. size (Mb)     dimensions
        Auxiliary wavefunctions         0.41 Mb     (    1133,   24)
        Each subspace H/S matrix        0.01 Mb     (      24,   24)
        Each <psi_i|beta_j> matrix      0.00 Mb     (       9,    6)

     The potential is recalculated from file :
     ./tmp/_ph0/li-fcc.save/charge-density.dat

     Starting wfc are    5 atomic +    1 random wfc

     Band Structure Calculation
     Davidson diagonalization with overlap

     ethr =  3.33E-10,  avg # of iterations = 15.6

     total cpu time spent up to now is       39.1 secs

     End of band structure calculation

     Number of k-points >= 100: set verbosity='high' to print the bands.

     the Fermi energy is     0.8202 ev

                                                                                

     bravais-lattice index     =            2
     lattice parameter (alat)  =       8.2838  a.u.
     unit-cell volume          =     142.1128 (a.u.)^3
     number of atoms/cell      =            1
     number of atomic types    =            1
     kinetic-energy cut-off    =      60.0000  Ry
     charge density cut-off    =     480.0000  Ry
     convergence threshold     =      1.0E-16
     beta                      =       0.7000
     number of iterations used =            4
     Exchange-correlation      =  SLA  PW   PBX  PBC ( 1  4  3  4 0 0)


     celldm(1)=    8.28383  celldm(2)=    0.00000  celldm(3)=    0.00000
     celldm(4)=    0.00000  celldm(5)=    0.00000  celldm(6)=    0.00000

     crystal axes: (cart. coord. in units of alat)
               a(1) = ( -0.5000  0.0000  0.5000 )  
               a(2) = (  0.0000  0.5000  0.5000 )  
               a(3) = ( -0.5000  0.5000  0.0000 )  

     reciprocal axes: (cart. coord. in units 2 pi/alat)
               b(1) = ( -1.0000 -1.0000  1.0000 )  
               b(2) = (  1.0000  1.0000  1.0000 )  
               b(3) = ( -1.0000  1.0000 -1.0000 )  


     Atoms inside the unit cell: 

     Cartesian axes

     site n.  atom      mass           positions (alat units)
        1     Li   6.9410   tau(    1) = (    0.00000    0.00000    0.00000  )

     Computing dynamical matrix for 
                    q = (   0.0000000   0.2500000   0.0000000 )
 
      8 Sym.Ops. (no q -> -q+G )


     G cutoff =  834.3411  (  25125 G-vectors)     FFT grid: ( 45, 45, 45)
     G cutoff =  417.1706  (   8873 G-vectors)  smooth grid: ( 30, 30, 30)

     number of k points= 22736  Marzari-Vanderbilt smearing, width (Ry)=  0.0200

     PseudoPot. # 1 for Li read from file:
     ../Li.pbe-s-gbrv14.UPF
     MD5 check sum: 7ca33c4f951f001da2db5c8738379802
     Pseudo is Ultrasoft, Zval =  3.0
     Generated by new atomic code, or converted to UPF format
     Using radial grid of  751 points,  5 beta functions with: 
                l(1) =   0
                l(2) =   0
                l(3) =   0
                l(4) =   1
                l(5) =   1
     Q(r) pseudized with 10 coefficients,  rinner =    1.150   1.150   1.150


     Mode symmetry, C_4v (4mm)  point group:


     Atomic displacements:
     There are   2 irreducible representations

     Representation     1      1 modes -A_1  G_1 D_1  To be done

     Representation     2      2 modes -E    G_5 D_5  To be done



     Alpha used in Ewald sum =   2.8000
     PHONON       :  6m24.47s CPU     8m47.36s WALL



     Representation #  1 mode #   1

     Self-consistent Calculation

      iter #   1 total cpu time :   528.0 secs   av.it.:   6.4
      thresh= 1.000E-02 alpha_mix =  0.700 |ddv_scf|^2 =  2.223E-02

      iter #   2 total cpu time :   534.2 secs   av.it.:   7.7
      thresh= 1.000E-02 alpha_mix =  0.700 |ddv_scf|^2 =  1.076E+01

      iter #   3 total cpu time :   542.3 secs   av.it.:   7.6
      thresh= 1.000E-02 alpha_mix =  0.700 |ddv_scf|^2 =  4.262E-05

      iter #   4 total cpu time :   551.3 secs   av.it.:   6.4
      thresh= 6.529E-04 alpha_mix =  0.700 |ddv_scf|^2 =  2.150E-08

      iter #   5 total cpu time :   554.5 secs   av.it.:   8.7
      thresh= 1.466E-05 alpha_mix =  0.700 |ddv_scf|^2 =  9.821E-11

      iter #   6 total cpu time :   563.0 secs   av.it.:   8.5
      thresh= 9.910E-07 alpha_mix =  0.700 |ddv_scf|^2 =  4.715E-11

      iter #   7 total cpu time :   571.4 secs   av.it.:   6.9
      thresh= 6.867E-07 alpha_mix =  0.700 |ddv_scf|^2 =  2.092E-09

      iter #   8 total cpu time :   577.1 secs   av.it.:   5.8
      thresh= 4.574E-06 alpha_mix =  0.700 |ddv_scf|^2 =  4.852E-14

      iter #   9 total cpu time :   582.6 secs   av.it.:   8.4
      thresh= 2.203E-08 alpha_mix =  0.700 |ddv_scf|^2 =  5.690E-16

      iter #  10 total cpu time :   588.8 secs   av.it.:   9.0
      thresh= 2.385E-09 alpha_mix =  0.700 |ddv_scf|^2 =  7.804E-15

      iter #  11 total cpu time :   597.0 secs   av.it.:   6.0
      thresh= 8.834E-09 alpha_mix =  0.700 |ddv_scf|^2 =  1.703E-17

     End of self-consistent calculation

     Convergence has been achieved 


     Representation #  2 modes #   2  3

     Self-consistent Calculation

      iter #   1 total cpu time :   602.3 secs   av.it.:   5.4
      thresh= 1.000E-02 alpha_mix =  0.700 |ddv_scf|^2 =  1.762E-07

      iter #   2 total cpu time :   604.7 secs   av.it.:   9.4
      thresh= 4.197E-05 alpha_mix =  0.700 |ddv_scf|^2 =  1.073E-08

      iter #   3 total cpu time :   607.2 secs   av.it.:   9.6
      thresh= 1.036E-05 alpha_mix =  0.700 |ddv_scf|^2 =  1.129E-10

      iter #   4 total cpu time :   609.5 secs   av.it.:   9.0
      thresh= 1.062E-06 alpha_mix =  0.700 |ddv_scf|^2 =  1.735E-13

      iter #   5 total cpu time :   612.9 secs   av.it.:   9.0
      thresh= 4.166E-08 alpha_mix =  0.700 |ddv_scf|^2 =  2.901E-15

      iter #   6 total cpu time :   615.6 secs   av.it.:   8.4
      thresh= 5.386E-09 alpha_mix =  0.700 |ddv_scf|^2 =  2.271E-18

     End of self-consistent calculation

     Convergence has been achieved 
 
     Number of q in the star =    6
     List of q in the star:
          1   0.000000000   0.250000000   0.000000000
          2   0.000000000  -0.250000000   0.000000000
          3   0.250000000   0.000000000   0.000000000
          4   0.000000000   0.000000000   0.250000000
          5   0.000000000   0.000000000  -0.250000000
          6  -0.250000000   0.000000000   0.000000000

     Diagonalizing the dynamical matrix

     q = (    0.000000000   0.250000000   0.000000000 ) 

 **************************************************************************
     freq (    1) =       2.416252 [THz] =      80.597490 [cm-1]
     freq (    2) =       2.416252 [THz] =      80.597490 [cm-1]
     freq (    3) =       2.931678 [THz] =      97.790248 [cm-1]
 **************************************************************************

     Mode symmetry, C_4v (4mm)  point group:

     freq (  1 -  2) =         80.6  [cm-1]   --> E    G_5 D_5       
     freq (  3 -  3) =         97.8  [cm-1]   --> A_1  G_1 D_1       

     Calculation of q =   -0.1250000   0.3750000  -0.1250000
 
     G-vector sticks info
     --------------------
     sticks:   dense  smooth     PW     G-vecs:    dense   smooth      PW
     Sum        1135     571    199                25125     8873    1917
 


     bravais-lattice index     =            2
     lattice parameter (alat)  =       8.2838  a.u.
     unit-cell volume          =     142.1128 (a.u.)^3
     number of atoms/cell      =            1
     number of atomic types    =            1
     number of electrons       =         3.00
     number of Kohn-Sham states=            6
     kinetic-energy cutoff     =      60.0000  Ry
     charge density cutoff     =     480.0000  Ry
     Exchange-correlation      =  SLA  PW   PBX  PBC ( 1  4  3  4 0 0)

     celldm(1)=   8.283828  celldm(2)=   0.000000  celldm(3)=   0.000000
     celldm(4)=   0.000000  celldm(5)=   0.000000  celldm(6)=   0.000000

     crystal axes: (cart. coord. in units of alat)
               a(1) = (  -0.500000   0.000000   0.500000 )  
               a(2) = (   0.000000   0.500000   0.500000 )  
               a(3) = (  -0.500000   0.500000   0.000000 )  

     reciprocal axes: (cart. coord. in units 2 pi/alat)
               b(1) = ( -1.000000 -1.000000  1.000000 )  
               b(2) = (  1.000000  1.000000  1.000000 )  
               b(3) = ( -1.000000  1.000000 -1.000000 )  


     PseudoPot. # 1 for Li read from file:
     ../Li.pbe-s-gbrv14.UPF
     MD5 check sum: 7ca33c4f951f001da2db5c8738379802
     Pseudo is Ultrasoft, Zval =  3.0
     Generated by new atomic code, or converted to UPF format
     Using radial grid of  751 points,  5 beta functions with: 
                l(1) =   0
                l(2) =   0
                l(3) =   0
                l(4) =   1
                l(5) =   1
     Q(r) pseudized with 10 coefficients,  rinner =    1.150   1.150   1.150


     atomic species   valence    mass     pseudopotential
        Li             3.00     6.94100     Li( 1.00)

     48 Sym. Ops., with inversion, found



   Cartesian axes

     site n.     atom                  positions (alat units)
         1           Li  tau(   1) = (   0.0000000   0.0000000   0.0000000  )

     number of k points= 89376  Marzari-Vanderbilt smearing, width (Ry)=  0.0200

     Number of k-points >= 100: set verbosity='high' to print them.

     Dense  grid:    25125 G-vectors     FFT dimensions: (  45,  45,  45)

     Smooth grid:     8873 G-vectors     FFT dimensions: (  30,  30,  30)

     Largest allocated arrays     est. size (Mb)     dimensions
        Kohn-Sham Wavefunctions         0.10 Mb     (    1139,    6)
        NL pseudopotentials             0.16 Mb     (    1139,    9)
        Each V/rho on FFT grid          1.39 Mb     (   91125)
        Each G-vector array             0.19 Mb     (   25125)
        G-vector shells                 0.00 Mb     (     280)
     Largest temporary arrays     est. size (Mb)     dimensions
        Auxiliary wavefunctions         0.42 Mb     (    1139,   24)
        Each subspace H/S matrix        0.01 Mb     (      24,   24)
        Each <psi_i|beta_j> matrix      0.00 Mb     (       9,    6)

     The potential is recalculated from file :
     ./tmp/_ph0/li-fcc.save/charge-density.dat

     Starting wfc are    5 atomic +    1 random wfc

     Band Structure Calculation
     Davidson diagonalization with overlap

     ethr =  3.33E-10,  avg # of iterations = 15.6

     total cpu time spent up to now is       55.4 secs

     End of band structure calculation

     Number of k-points >= 100: set verbosity='high' to print the bands.

     the Fermi energy is     0.8202 ev

                                                                                

     bravais-lattice index     =            2
     lattice parameter (alat)  =       8.2838  a.u.
     unit-cell volume          =     142.1128 (a.u.)^3
     number of atoms/cell      =            1
     number of atomic types    =            1
     kinetic-energy cut-off    =      60.0000  Ry
     charge density cut-off    =     480.0000  Ry
     convergence threshold     =      1.0E-16
     beta                      =       0.7000
     number of iterations used =            4
     Exchange-correlation      =  SLA  PW   PBX  PBC ( 1  4  3  4 0 0)


     celldm(1)=    8.28383  celldm(2)=    0.00000  celldm(3)=    0.00000
     celldm(4)=    0.00000  celldm(5)=    0.00000  celldm(6)=    0.00000

     crystal axes: (cart. coord. in units of alat)
               a(1) = ( -0.5000  0.0000  0.5000 )  
               a(2) = (  0.0000  0.5000  0.5000 )  
               a(3) = ( -0.5000  0.5000  0.0000 )  

     reciprocal axes: (cart. coord. in units 2 pi/alat)
               b(1) = ( -1.0000 -1.0000  1.0000 )  
               b(2) = (  1.0000  1.0000  1.0000 )  
               b(3) = ( -1.0000  1.0000 -1.0000 )  


     Atoms inside the unit cell: 

     Cartesian axes

     site n.  atom      mass           positions (alat units)
        1     Li   6.9410   tau(    1) = (    0.00000    0.00000    0.00000  )

     Computing dynamical matrix for 
                    q = (  -0.1250000   0.3750000  -0.1250000 )
 
      2 Sym.Ops. (no q -> -q+G )


     G cutoff =  834.3411  (  25125 G-vectors)     FFT grid: ( 45, 45, 45)
     G cutoff =  417.1706  (   8873 G-vectors)  smooth grid: ( 30, 30, 30)

     number of k points= 89376  Marzari-Vanderbilt smearing, width (Ry)=  0.0200

     PseudoPot. # 1 for Li read from file:
     ../Li.pbe-s-gbrv14.UPF
     MD5 check sum: 7ca33c4f951f001da2db5c8738379802
     Pseudo is Ultrasoft, Zval =  3.0
     Generated by new atomic code, or converted to UPF format
     Using radial grid of  751 points,  5 beta functions with: 
                l(1) =   0
                l(2) =   0
                l(3) =   0
                l(4) =   1
                l(5) =   1
     Q(r) pseudized with 10 coefficients,  rinner =    1.150   1.150   1.150


     Mode symmetry, C_s (m)     point group:


     Atomic displacements:
     There are   3 irreducible representations

     Representation     1      1 modes -A'  To be done

     Representation     2      1 modes -A'  To be done

     Representation     3      1 modes -A''  To be done



     Alpha used in Ewald sum =   2.8000
     PHONON       :  8m 0.08s CPU    10m59.88s WALL



     Representation #  1 mode #   1

     Self-consistent Calculation

      iter #   1 total cpu time :   661.7 secs   av.it.:   6.4
      thresh= 1.000E-02 alpha_mix =  0.700 |ddv_scf|^2 =  7.542E-04

      iter #   2 total cpu time :   672.2 secs   av.it.:   7.9
      thresh= 2.746E-03 alpha_mix =  0.700 |ddv_scf|^2 =  3.520E-02

      iter #   3 total cpu time :   681.4 secs   av.it.:   6.4
      thresh= 1.000E-02 alpha_mix =  0.700 |ddv_scf|^2 =  7.138E-08

      iter #   4 total cpu time :   693.1 secs   av.it.:   9.2
      thresh= 2.672E-05 alpha_mix =  0.700 |ddv_scf|^2 =  4.210E-09

      iter #   5 total cpu time :   704.3 secs   av.it.:   9.1
      thresh= 6.488E-06 alpha_mix =  0.700 |ddv_scf|^2 =  6.577E-11

      iter #   6 total cpu time :   709.1 secs   av.it.:   8.8
      thresh= 8.110E-07 alpha_mix =  0.700 |ddv_scf|^2 =  1.429E-12

      iter #   7 total cpu time :   714.4 secs   av.it.:   8.5
      thresh= 1.195E-07 alpha_mix =  0.700 |ddv_scf|^2 =  1.673E-11

      iter #   8 total cpu time :   722.9 secs   av.it.:   6.7
      thresh= 4.090E-07 alpha_mix =  0.700 |ddv_scf|^2 =  4.554E-14

      iter #   9 total cpu time :   728.0 secs   av.it.:   9.0
      thresh= 2.134E-08 alpha_mix =  0.700 |ddv_scf|^2 =  4.543E-14

      iter #  10 total cpu time :   735.8 secs   av.it.:   7.4
      thresh= 2.131E-08 alpha_mix =  0.700 |ddv_scf|^2 =  2.791E-16

      iter #  11 total cpu time :   742.8 secs   av.it.:   8.8
      thresh= 1.671E-09 alpha_mix =  0.700 |ddv_scf|^2 =  1.068E-18

     End of self-consistent calculation

     Convergence has been achieved 


     Representation #  2 mode #   2

     Self-consistent Calculation

      iter #   1 total cpu time :   753.4 secs   av.it.:   6.1
      thresh= 1.000E-02 alpha_mix =  0.700 |ddv_scf|^2 =  1.143E-04

      iter #   2 total cpu time :   758.8 secs   av.it.:   8.2
      thresh= 1.069E-03 alpha_mix =  0.700 |ddv_scf|^2 =  5.303E-03

      iter #   3 total cpu time :   760.9 secs   av.it.:   5.8
      thresh= 7.282E-03 alpha_mix =  0.700 |ddv_scf|^2 =  3.633E-08

      iter #   4 total cpu time :   766.0 secs   av.it.:   9.3
      thresh= 1.906E-05 alpha_mix =  0.700 |ddv_scf|^2 =  2.024E-09

      iter #   5 total cpu time :   770.2 secs   av.it.:   9.1
      thresh= 4.499E-06 alpha_mix =  0.700 |ddv_scf|^2 =  3.863E-11

      iter #   6 total cpu time :   780.1 secs   av.it.:   9.0
      thresh= 6.215E-07 alpha_mix =  0.700 |ddv_scf|^2 =  2.649E-12

      iter #   7 total cpu time :   787.7 secs   av.it.:   7.8
      thresh= 1.628E-07 alpha_mix =  0.700 |ddv_scf|^2 =  1.862E-11

      iter #   8 total cpu time :   793.7 secs   av.it.:   6.7
      thresh= 4.316E-07 alpha_mix =  0.700 |ddv_scf|^2 =  1.253E-12

      iter #   9 total cpu time :   802.5 secs   av.it.:   7.0
      thresh= 1.119E-07 alpha_mix =  0.700 |ddv_scf|^2 =  4.893E-13

      iter #  10 total cpu time :   810.9 secs   av.it.:   7.6
      thresh= 6.995E-08 alpha_mix =  0.700 |ddv_scf|^2 =  1.194E-16

      iter #  11 total cpu time :   816.0 secs   av.it.:   9.2
      thresh= 1.093E-09 alpha_mix =  0.700 |ddv_scf|^2 =  6.425E-18

     End of self-consistent calculation

     Convergence has been achieved 


     Representation #  3 mode #   3

     Self-consistent Calculation

      iter #   1 total cpu time :   820.7 secs   av.it.:   5.5
      thresh= 1.000E-02 alpha_mix =  0.700 |ddv_scf|^2 =  7.284E-07

      iter #   2 total cpu time :   823.6 secs   av.it.:   8.8
      thresh= 8.535E-05 alpha_mix =  0.700 |ddv_scf|^2 =  4.388E-08

      iter #   3 total cpu time :   828.1 secs   av.it.:   9.2
      thresh= 2.095E-05 alpha_mix =  0.700 |ddv_scf|^2 =  6.242E-10

      iter #   4 total cpu time :   830.1 secs   av.it.:   8.3
      thresh= 2.498E-06 alpha_mix =  0.700 |ddv_scf|^2 =  7.461E-13

      iter #   5 total cpu time :   836.0 secs   av.it.:   8.5
      thresh= 8.637E-08 alpha_mix =  0.700 |ddv_scf|^2 =  1.227E-14

      iter #   6 total cpu time :   839.4 secs   av.it.:   7.8
      thresh= 1.108E-08 alpha_mix =  0.700 |ddv_scf|^2 =  1.692E-17

     End of self-consistent calculation

     Convergence has been achieved 
 
     Number of q in the star =   24
     List of q in the star:
          1  -0.125000000   0.375000000  -0.125000000
          2  -0.125000000   0.375000000   0.125000000
          3   0.125000000   0.375000000  -0.125000000
          4   0.125000000   0.375000000   0.125000000
          5   0.125000000  -0.375000000   0.125000000
          6   0.375000000  -0.125000000   0.125000000
          7   0.125000000  -0.125000000   0.375000000
          8  -0.125000000  -0.375000000  -0.125000000
          9   0.125000000  -0.375000000  -0.125000000
         10  -0.125000000  -0.375000000   0.125000000
         11   0.125000000  -0.125000000  -0.375000000
         12   0.375000000  -0.125000000  -0.125000000
         13  -0.375000000  -0.125000000   0.125000000
         14   0.375000000   0.125000000   0.125000000
         15  -0.125000000  -0.125000000   0.375000000
         16   0.125000000   0.125000000   0.375000000
         17  -0.375000000   0.125000000  -0.125000000
         18  -0.125000000   0.125000000  -0.375000000
         19  -0.375000000  -0.125000000  -0.125000000
         20   0.125000000   0.125000000  -0.375000000
         21   0.375000000   0.125000000  -0.125000000
         22  -0.125000000  -0.125000000  -0.375000000
         23  -0.375000000   0.125000000   0.125000000
         24  -0.125000000   0.125000000   0.375000000

     Diagonalizing the dynamical matrix

     q = (   -0.125000000   0.375000000  -0.125000000 ) 

 **************************************************************************
     freq (    1) =       3.262274 [THz] =     108.817753 [cm-1]
     freq (    2) =       3.493399 [THz] =     116.527252 [cm-1]
     freq (    3) =       5.732088 [THz] =     191.201887 [cm-1]
 **************************************************************************

     Mode symmetry, C_s (m)     point group:

     freq (  1 -  1) =        108.8  [cm-1]   --> A'                 
     freq (  2 -  2) =        116.5  [cm-1]   --> A''                
     freq (  3 -  3) =        191.2  [cm-1]   --> A'                 

     Calculation of q =   -0.2500000   0.5000000  -0.2500000
 
     G-vector sticks info
     --------------------
     sticks:   dense  smooth     PW     G-vecs:    dense   smooth      PW
     Sum        1135     571    211                25125     8873    1989
 


     bravais-lattice index     =            2
     lattice parameter (alat)  =       8.2838  a.u.
     unit-cell volume          =     142.1128 (a.u.)^3
     number of atoms/cell      =            1
     number of atomic types    =            1
     number of electrons       =         3.00
     number of Kohn-Sham states=            6
     kinetic-energy cutoff     =      60.0000  Ry
     charge density cutoff     =     480.0000  Ry
     Exchange-correlation      =  SLA  PW   PBX  PBC ( 1  4  3  4 0 0)

     celldm(1)=   8.283828  celldm(2)=   0.000000  celldm(3)=   0.000000
     celldm(4)=   0.000000  celldm(5)=   0.000000  celldm(6)=   0.000000

     crystal axes: (cart. coord. in units of alat)
               a(1) = (  -0.500000   0.000000   0.500000 )  
               a(2) = (   0.000000   0.500000   0.500000 )  
               a(3) = (  -0.500000   0.500000   0.000000 )  

     reciprocal axes: (cart. coord. in units 2 pi/alat)
               b(1) = ( -1.000000 -1.000000  1.000000 )  
               b(2) = (  1.000000  1.000000  1.000000 )  
               b(3) = ( -1.000000  1.000000 -1.000000 )  


     PseudoPot. # 1 for Li read from file:
     ../Li.pbe-s-gbrv14.UPF
     MD5 check sum: 7ca33c4f951f001da2db5c8738379802
     Pseudo is Ultrasoft, Zval =  3.0
     Generated by new atomic code, or converted to UPF format
     Using radial grid of  751 points,  5 beta functions with: 
                l(1) =   0
                l(2) =   0
                l(3) =   0
                l(4) =   1
                l(5) =   1
     Q(r) pseudized with 10 coefficients,  rinner =    1.150   1.150   1.150


     atomic species   valence    mass     pseudopotential
        Li             3.00     6.94100     Li( 1.00)

     48 Sym. Ops., with inversion, found



   Cartesian axes

     site n.     atom                  positions (alat units)
         1           Li  tau(   1) = (   0.0000000   0.0000000   0.0000000  )

     number of k points= 89376  Marzari-Vanderbilt smearing, width (Ry)=  0.0200

     Number of k-points >= 100: set verbosity='high' to print them.

     Dense  grid:    25125 G-vectors     FFT dimensions: (  45,  45,  45)

     Smooth grid:     8873 G-vectors     FFT dimensions: (  30,  30,  30)

     Largest allocated arrays     est. size (Mb)     dimensions
        Kohn-Sham Wavefunctions         0.10 Mb     (    1133,    6)
        NL pseudopotentials             0.16 Mb     (    1133,    9)
        Each V/rho on FFT grid          1.39 Mb     (   91125)
        Each G-vector array             0.19 Mb     (   25125)
        G-vector shells                 0.00 Mb     (     280)
     Largest temporary arrays     est. size (Mb)     dimensions
        Auxiliary wavefunctions         0.41 Mb     (    1133,   24)
        Each subspace H/S matrix        0.01 Mb     (      24,   24)
        Each <psi_i|beta_j> matrix      0.00 Mb     (       9,    6)

     The potential is recalculated from file :
     ./tmp/_ph0/li-fcc.save/charge-density.dat

     Starting wfc are    5 atomic +    1 random wfc

     Band Structure Calculation
     Davidson diagonalization with overlap

     ethr =  3.33E-10,  avg # of iterations = 15.6

     total cpu time spent up to now is       73.6 secs

     End of band structure calculation

     Number of k-points >= 100: set verbosity='high' to print the bands.

     the Fermi energy is     0.8202 ev

                                                                                

     bravais-lattice index     =            2
     lattice parameter (alat)  =       8.2838  a.u.
     unit-cell volume          =     142.1128 (a.u.)^3
     number of atoms/cell      =            1
     number of atomic types    =            1
     kinetic-energy cut-off    =      60.0000  Ry
     charge density cut-off    =     480.0000  Ry
     convergence threshold     =      1.0E-16
     beta                      =       0.7000
     number of iterations used =            4
     Exchange-correlation      =  SLA  PW   PBX  PBC ( 1  4  3  4 0 0)


     celldm(1)=    8.28383  celldm(2)=    0.00000  celldm(3)=    0.00000
     celldm(4)=    0.00000  celldm(5)=    0.00000  celldm(6)=    0.00000

     crystal axes: (cart. coord. in units of alat)
               a(1) = ( -0.5000  0.0000  0.5000 )  
               a(2) = (  0.0000  0.5000  0.5000 )  
               a(3) = ( -0.5000  0.5000  0.0000 )  

     reciprocal axes: (cart. coord. in units 2 pi/alat)
               b(1) = ( -1.0000 -1.0000  1.0000 )  
               b(2) = (  1.0000  1.0000  1.0000 )  
               b(3) = ( -1.0000  1.0000 -1.0000 )  


     Atoms inside the unit cell: 

     Cartesian axes

     site n.  atom      mass           positions (alat units)
        1     Li   6.9410   tau(    1) = (    0.00000    0.00000    0.00000  )

     Computing dynamical matrix for 
                    q = (  -0.2500000   0.5000000  -0.2500000 )
 
      2 Sym.Ops. (no q -> -q+G )


     G cutoff =  834.3411  (  25125 G-vectors)     FFT grid: ( 45, 45, 45)
     G cutoff =  417.1706  (   8873 G-vectors)  smooth grid: ( 30, 30, 30)

     number of k points= 89376  Marzari-Vanderbilt smearing, width (Ry)=  0.0200

     PseudoPot. # 1 for Li read from file:
     ../Li.pbe-s-gbrv14.UPF
     MD5 check sum: 7ca33c4f951f001da2db5c8738379802
     Pseudo is Ultrasoft, Zval =  3.0
     Generated by new atomic code, or converted to UPF format
     Using radial grid of  751 points,  5 beta functions with: 
                l(1) =   0
                l(2) =   0
                l(3) =   0
                l(4) =   1
                l(5) =   1
     Q(r) pseudized with 10 coefficients,  rinner =    1.150   1.150   1.150


     Mode symmetry, C_s (m)     point group:


     Atomic displacements:
     There are   3 irreducible representations

     Representation     1      1 modes -A'  To be done

     Representation     2      1 modes -A'  To be done

     Representation     3      1 modes -A''  To be done



     Alpha used in Ewald sum =   2.8000
     PHONON       : 11m 3.14s CPU    14m33.59s WALL



     Representation #  1 mode #   1

     Self-consistent Calculation

      iter #   1 total cpu time :   875.4 secs   av.it.:   6.4
      thresh= 1.000E-02 alpha_mix =  0.700 |ddv_scf|^2 =  5.245E-05

      iter #   2 total cpu time :   887.4 secs   av.it.:   8.6
      thresh= 7.242E-04 alpha_mix =  0.700 |ddv_scf|^2 =  3.057E-04

      iter #   3 total cpu time :   893.2 secs   av.it.:   7.0
      thresh= 1.748E-03 alpha_mix =  0.700 |ddv_scf|^2 =  3.669E-08

      iter #   4 total cpu time :   908.2 secs   av.it.:   9.1
      thresh= 1.915E-05 alpha_mix =  0.700 |ddv_scf|^2 =  9.467E-10

      iter #   5 total cpu time :   917.1 secs   av.it.:   9.1
      thresh= 3.077E-06 alpha_mix =  0.700 |ddv_scf|^2 =  1.525E-11

      iter #   6 total cpu time :   922.8 secs   av.it.:   9.0
      thresh= 3.906E-07 alpha_mix =  0.700 |ddv_scf|^2 =  8.851E-14

      iter #   7 total cpu time :   925.2 secs   av.it.:   9.2
      thresh= 2.975E-08 alpha_mix =  0.700 |ddv_scf|^2 =  1.685E-13

      iter #   8 total cpu time :   930.3 secs   av.it.:   7.3
      thresh= 4.105E-08 alpha_mix =  0.700 |ddv_scf|^2 =  5.981E-15

      iter #   9 total cpu time :   937.4 secs   av.it.:   9.0
      thresh= 7.734E-09 alpha_mix =  0.700 |ddv_scf|^2 =  6.423E-16

      iter #  10 total cpu time :   945.1 secs   av.it.:   8.0
      thresh= 2.534E-09 alpha_mix =  0.700 |ddv_scf|^2 =  4.339E-18

     End of self-consistent calculation

     Convergence has been achieved 


     Representation #  2 mode #   2

     Self-consistent Calculation

      iter #   1 total cpu time :   949.2 secs   av.it.:   6.2
      thresh= 1.000E-02 alpha_mix =  0.700 |ddv_scf|^2 =  1.382E-05

      iter #   2 total cpu time :   954.0 secs   av.it.:   8.8
      thresh= 3.718E-04 alpha_mix =  0.700 |ddv_scf|^2 =  7.529E-05

      iter #   3 total cpu time :   958.0 secs   av.it.:   7.1
      thresh= 8.677E-04 alpha_mix =  0.700 |ddv_scf|^2 =  3.618E-08

      iter #   4 total cpu time :   961.2 secs   av.it.:   9.1
      thresh= 1.902E-05 alpha_mix =  0.700 |ddv_scf|^2 =  1.235E-09

      iter #   5 total cpu time :   964.5 secs   av.it.:   9.1
      thresh= 3.514E-06 alpha_mix =  0.700 |ddv_scf|^2 =  1.469E-11

      iter #   6 total cpu time :   968.3 secs   av.it.:   9.4
      thresh= 3.833E-07 alpha_mix =  0.700 |ddv_scf|^2 =  1.866E-13

      iter #   7 total cpu time :   975.6 secs   av.it.:   9.2
      thresh= 4.320E-08 alpha_mix =  0.700 |ddv_scf|^2 =  8.055E-13

      iter #   8 total cpu time :   977.5 secs   av.it.:   7.2
      thresh= 8.975E-08 alpha_mix =  0.700 |ddv_scf|^2 =  4.412E-15

      iter #   9 total cpu time :   981.9 secs   av.it.:   9.4
      thresh= 6.642E-09 alpha_mix =  0.700 |ddv_scf|^2 =  7.342E-15

      iter #  10 total cpu time :   984.8 secs   av.it.:   8.0
      thresh= 8.569E-09 alpha_mix =  0.700 |ddv_scf|^2 =  1.179E-17

     End of self-consistent calculation

     Convergence has been achieved 


     Representation #  3 mode #   3

     Self-consistent Calculation

      iter #   1 total cpu time :   998.5 secs   av.it.:   5.6
      thresh= 1.000E-02 alpha_mix =  0.700 |ddv_scf|^2 =  7.436E-07

      iter #   2 total cpu time :  1006.9 secs   av.it.:   8.8
      thresh= 8.623E-05 alpha_mix =  0.700 |ddv_scf|^2 =  4.460E-08

      iter #   3 total cpu time :  1014.0 secs   av.it.:   9.2
      thresh= 2.112E-05 alpha_mix =  0.700 |ddv_scf|^2 =  7.278E-10

      iter #   4 total cpu time :  1024.0 secs   av.it.:   8.3
      thresh= 2.698E-06 alpha_mix =  0.700 |ddv_scf|^2 =  8.191E-13

      iter #   5 total cpu time :  1036.0 secs   av.it.:   8.5
      thresh= 9.050E-08 alpha_mix =  0.700 |ddv_scf|^2 =  1.303E-14

      iter #   6 total cpu time :  1043.9 secs   av.it.:   7.9
      thresh= 1.142E-08 alpha_mix =  0.700 |ddv_scf|^2 =  2.166E-17

     End of self-consistent calculation

     Convergence has been achieved 
 
     Number of q in the star =   24
     List of q in the star:
          1  -0.250000000   0.500000000  -0.250000000
          2  -0.250000000   0.500000000   0.250000000
          3   0.250000000   0.500000000  -0.250000000
          4   0.250000000   0.500000000   0.250000000
          5   0.250000000  -0.500000000   0.250000000
[...]
      thresh= 1.085E-04 alpha_mix =  0.700 |ddv_scf|^2 =  7.132E-08

      iter #   3 total cpu time :  4208.4 secs   av.it.:   9.0
      thresh= 2.671E-05 alpha_mix =  0.700 |ddv_scf|^2 =  4.478E-09

      iter #   4 total cpu time :  4211.5 secs   av.it.:   9.0
      thresh= 6.692E-06 alpha_mix =  0.700 |ddv_scf|^2 =  1.428E-10

      iter #   5 total cpu time :  4215.9 secs   av.it.:   8.5
      thresh= 1.195E-06 alpha_mix =  0.700 |ddv_scf|^2 =  1.587E-12

      iter #   6 total cpu time :  4226.0 secs   av.it.:   9.5
      thresh= 1.260E-07 alpha_mix =  0.700 |ddv_scf|^2 =  2.554E-15

      iter #   7 total cpu time :  4238.0 secs   av.it.:   9.6
      thresh= 5.053E-09 alpha_mix =  0.700 |ddv_scf|^2 =  2.132E-16

      iter #   8 total cpu time :  4242.0 secs   av.it.:   9.5
      thresh= 1.460E-09 alpha_mix =  0.700 |ddv_scf|^2 =  3.771E-19

     End of self-consistent calculation

     Convergence has been achieved 


     Representation #  2 mode #   2

     Self-consistent Calculation

      iter #   1 total cpu time :  4263.1 secs   av.it.:   6.1
      thresh= 1.000E-02 alpha_mix =  0.700 |ddv_scf|^2 =  1.154E-06

      iter #   2 total cpu time :  4268.3 secs   av.it.:   9.0
      thresh= 1.074E-04 alpha_mix =  0.700 |ddv_scf|^2 =  4.755E-08

      iter #   3 total cpu time :  4273.3 secs   av.it.:   8.9
      thresh= 2.181E-05 alpha_mix =  0.700 |ddv_scf|^2 =  2.685E-09

      iter #   4 total cpu time :  4277.8 secs   av.it.:   8.8
      thresh= 5.181E-06 alpha_mix =  0.700 |ddv_scf|^2 =  8.894E-12

      iter #   5 total cpu time :  4283.2 secs   av.it.:   8.9
      thresh= 2.982E-07 alpha_mix =  0.700 |ddv_scf|^2 =  7.294E-15

      iter #   6 total cpu time :  4290.0 secs   av.it.:   8.0
      thresh= 8.540E-09 alpha_mix =  0.700 |ddv_scf|^2 =  4.522E-16

      iter #   7 total cpu time :  4298.0 secs   av.it.:   8.2
      thresh= 2.127E-09 alpha_mix =  0.700 |ddv_scf|^2 =  1.803E-19

     End of self-consistent calculation

     Convergence has been achieved 


     Representation #  3 mode #   3

     Self-consistent Calculation

      iter #   1 total cpu time :  4308.5 secs   av.it.:   6.3
      thresh= 1.000E-02 alpha_mix =  0.700 |ddv_scf|^2 =  3.736E-06

      iter #   2 total cpu time :  4310.6 secs   av.it.:   8.9
      thresh= 1.933E-04 alpha_mix =  0.700 |ddv_scf|^2 =  3.470E-07

      iter #   3 total cpu time :  4311.8 secs   av.it.:   8.3
      thresh= 5.891E-05 alpha_mix =  0.700 |ddv_scf|^2 =  8.563E-09

      iter #   4 total cpu time :  4313.0 secs   av.it.:   8.9
      thresh= 9.254E-06 alpha_mix =  0.700 |ddv_scf|^2 =  3.793E-12

      iter #   5 total cpu time :  4315.2 secs   av.it.:   9.0
      thresh= 1.948E-07 alpha_mix =  0.700 |ddv_scf|^2 =  5.935E-14

      iter #   6 total cpu time :  4319.6 secs   av.it.:   8.6
      thresh= 2.436E-08 alpha_mix =  0.700 |ddv_scf|^2 =  1.142E-15

      iter #   7 total cpu time :  4322.3 secs   av.it.:   8.6
      thresh= 3.379E-09 alpha_mix =  0.700 |ddv_scf|^2 =  1.826E-18

     End of self-consistent calculation

     Convergence has been achieved 
 
     Number of q in the star =   12
     List of q in the star:
          1  -0.250000000  -1.000000000   0.000000000
          2   0.000000000  -1.000000000   0.250000000
          3   0.000000000  -1.000000000  -0.250000000
          4   0.250000000  -1.000000000   0.000000000
          5  -1.000000000   0.000000000  -0.250000000
          6   1.000000000   0.000000000   0.250000000
          7  -1.000000000  -0.250000000   0.000000000
          8   0.000000000  -0.250000000  -1.000000000
          9   0.000000000   0.250000000  -1.000000000
         10   1.000000000   0.250000000   0.000000000
         11  -0.250000000   0.000000000   1.000000000
         12   0.250000000   0.000000000   1.000000000

     Diagonalizing the dynamical matrix

     q = (   -0.250000000  -1.000000000   0.000000000 ) 

 **************************************************************************
     freq (    1) =       6.637461 [THz] =     221.401866 [cm-1]
     freq (    2) =       7.690123 [THz] =     256.514893 [cm-1]
     freq (    3) =       9.516805 [THz] =     317.446448 [cm-1]
 **************************************************************************

     Mode symmetry, C_2v (mm2)  point group:

     freq (  1 -  1) =        221.4  [cm-1]   --> A_1  D_1  S_1      
     freq (  2 -  2) =        256.5  [cm-1]   --> B_1  D_3  S_3      
     freq (  3 -  3) =        317.4  [cm-1]   --> B_2  D_4  S_4      

     Calculation of q =   -0.5000000  -1.0000000   0.0000000
 
     G-vector sticks info
     --------------------
     sticks:   dense  smooth     PW     G-vecs:    dense   smooth      PW
     Sum        1135     571    223                25125     8873    2229
 


     bravais-lattice index     =            2
     lattice parameter (alat)  =       8.2838  a.u.
     unit-cell volume          =     142.1128 (a.u.)^3
     number of atoms/cell      =            1
     number of atomic types    =            1
     number of electrons       =         3.00
     number of Kohn-Sham states=            6
     kinetic-energy cutoff     =      60.0000  Ry
     charge density cutoff     =     480.0000  Ry
     Exchange-correlation      =  SLA  PW   PBX  PBC ( 1  4  3  4 0 0)

     celldm(1)=   8.283828  celldm(2)=   0.000000  celldm(3)=   0.000000
     celldm(4)=   0.000000  celldm(5)=   0.000000  celldm(6)=   0.000000

     crystal axes: (cart. coord. in units of alat)
               a(1) = (  -0.500000   0.000000   0.500000 )  
               a(2) = (   0.000000   0.500000   0.500000 )  
               a(3) = (  -0.500000   0.500000   0.000000 )  

     reciprocal axes: (cart. coord. in units 2 pi/alat)
               b(1) = ( -1.000000 -1.000000  1.000000 )  
               b(2) = (  1.000000  1.000000  1.000000 )  
               b(3) = ( -1.000000  1.000000 -1.000000 )  


     PseudoPot. # 1 for Li read from file:
     ../Li.pbe-s-gbrv14.UPF
     MD5 check sum: 7ca33c4f951f001da2db5c8738379802
     Pseudo is Ultrasoft, Zval =  3.0
     Generated by new atomic code, or converted to UPF format
     Using radial grid of  751 points,  5 beta functions with: 
                l(1) =   0
                l(2) =   0
                l(3) =   0
                l(4) =   1
                l(5) =   1
     Q(r) pseudized with 10 coefficients,  rinner =    1.150   1.150   1.150


     atomic species   valence    mass     pseudopotential
        Li             3.00     6.94100     Li( 1.00)

     48 Sym. Ops., with inversion, found



   Cartesian axes

     site n.     atom                  positions (alat units)
         1           Li  tau(   1) = (   0.0000000   0.0000000   0.0000000  )

     number of k points= 21952  Marzari-Vanderbilt smearing, width (Ry)=  0.0200

     Number of k-points >= 100: set verbosity='high' to print them.

     Dense  grid:    25125 G-vectors     FFT dimensions: (  45,  45,  45)

     Smooth grid:     8873 G-vectors     FFT dimensions: (  30,  30,  30)

     Largest allocated arrays     est. size (Mb)     dimensions
        Kohn-Sham Wavefunctions         0.10 Mb     (    1133,    6)
        NL pseudopotentials             0.16 Mb     (    1133,    9)
        Each V/rho on FFT grid          1.39 Mb     (   91125)
        Each G-vector array             0.19 Mb     (   25125)
        G-vector shells                 0.00 Mb     (     280)
     Largest temporary arrays     est. size (Mb)     dimensions
        Auxiliary wavefunctions         0.41 Mb     (    1133,   24)
        Each subspace H/S matrix        0.01 Mb     (      24,   24)
        Each <psi_i|beta_j> matrix      0.00 Mb     (       9,    6)

     The potential is recalculated from file :
     ./tmp/_ph0/li-fcc.save/charge-density.dat

     Starting wfc are    5 atomic +    1 random wfc

     Band Structure Calculation
     Davidson diagonalization with overlap

     ethr =  3.33E-10,  avg # of iterations = 15.6

     total cpu time spent up to now is      441.7 secs

     End of band structure calculation

     Number of k-points >= 100: set verbosity='high' to print the bands.

     the Fermi energy is     0.8202 ev

                                                                                

     bravais-lattice index     =            2
     lattice parameter (alat)  =       8.2838  a.u.
     unit-cell volume          =     142.1128 (a.u.)^3
     number of atoms/cell      =            1
     number of atomic types    =            1
     kinetic-energy cut-off    =      60.0000  Ry
     charge density cut-off    =     480.0000  Ry
     convergence threshold     =      1.0E-16
     beta                      =       0.7000
     number of iterations used =            4
     Exchange-correlation      =  SLA  PW   PBX  PBC ( 1  4  3  4 0 0)


     celldm(1)=    8.28383  celldm(2)=    0.00000  celldm(3)=    0.00000
     celldm(4)=    0.00000  celldm(5)=    0.00000  celldm(6)=    0.00000

     crystal axes: (cart. coord. in units of alat)
               a(1) = ( -0.5000  0.0000  0.5000 )  
               a(2) = (  0.0000  0.5000  0.5000 )  
               a(3) = ( -0.5000  0.5000  0.0000 )  

     reciprocal axes: (cart. coord. in units 2 pi/alat)
               b(1) = ( -1.0000 -1.0000  1.0000 )  
               b(2) = (  1.0000  1.0000  1.0000 )  
               b(3) = ( -1.0000  1.0000 -1.0000 )  


     Atoms inside the unit cell: 

     Cartesian axes

     site n.  atom      mass           positions (alat units)
        1     Li   6.9410   tau(    1) = (    0.00000    0.00000    0.00000  )

     Computing dynamical matrix for 
                    q = (  -0.5000000  -1.0000000   0.0000000 )
 
      8 Sym.Ops. (no q -> -q+G )


     G cutoff =  834.3411  (  25125 G-vectors)     FFT grid: ( 45, 45, 45)
     G cutoff =  417.1706  (   8873 G-vectors)  smooth grid: ( 30, 30, 30)

     number of k points= 21952  Marzari-Vanderbilt smearing, width (Ry)=  0.0200

     PseudoPot. # 1 for Li read from file:
     ../Li.pbe-s-gbrv14.UPF
     MD5 check sum: 7ca33c4f951f001da2db5c8738379802
     Pseudo is Ultrasoft, Zval =  3.0
     Generated by new atomic code, or converted to UPF format
     Using radial grid of  751 points,  5 beta functions with: 
                l(1) =   0
                l(2) =   0
                l(3) =   0
                l(4) =   1
                l(5) =   1
     Q(r) pseudized with 10 coefficients,  rinner =    1.150   1.150   1.150


     Mode symmetry, D_2d (-42m) point group:


     Atomic displacements:
     There are   2 irreducible representations

     Representation     1      1 modes -B_2  X_3  W_2  To be done

     Representation     2      2 modes -E    X_5  W_3  To be done



     Alpha used in Ewald sum =   2.8000
     PHONON       :     0h57m CPU        1h12m WALL



     Representation #  1 mode #   1

     Self-consistent Calculation

      iter #   1 total cpu time :  4333.5 secs   av.it.:   6.1
      thresh= 1.000E-02 alpha_mix =  0.700 |ddv_scf|^2 =  1.405E-06

      iter #   2 total cpu time :  4336.6 secs   av.it.:   8.9
      thresh= 1.185E-04 alpha_mix =  0.700 |ddv_scf|^2 =  6.608E-08

      iter #   3 total cpu time :  4338.2 secs   av.it.:   8.8
      thresh= 2.571E-05 alpha_mix =  0.700 |ddv_scf|^2 =  3.703E-09

      iter #   4 total cpu time :  4341.5 secs   av.it.:   9.0
      thresh= 6.085E-06 alpha_mix =  0.700 |ddv_scf|^2 =  1.781E-11

      iter #   5 total cpu time :  4342.5 secs   av.it.:   9.0
      thresh= 4.221E-07 alpha_mix =  0.700 |ddv_scf|^2 =  3.952E-14

      iter #   6 total cpu time :  4346.1 secs   av.it.:   8.7
      thresh= 1.988E-08 alpha_mix =  0.700 |ddv_scf|^2 =  9.703E-16

      iter #   7 total cpu time :  4349.2 secs   av.it.:   8.4
      thresh= 3.115E-09 alpha_mix =  0.700 |ddv_scf|^2 =  7.324E-19

     End of self-consistent calculation

     Convergence has been achieved 


     Representation #  2 modes #   2  3

     Self-consistent Calculation

      iter #   1 total cpu time :  4373.5 secs   av.it.:   6.3
      thresh= 1.000E-02 alpha_mix =  0.700 |ddv_scf|^2 =  5.254E-07

      iter #   2 total cpu time :  4379.0 secs   av.it.:   9.5
      thresh= 7.249E-05 alpha_mix =  0.700 |ddv_scf|^2 =  2.370E-08

      iter #   3 total cpu time :  4385.5 secs   av.it.:   8.9
      thresh= 1.539E-05 alpha_mix =  0.700 |ddv_scf|^2 =  1.415E-09

      iter #   4 total cpu time :  4388.3 secs   av.it.:   9.5
      thresh= 3.762E-06 alpha_mix =  0.700 |ddv_scf|^2 =  1.391E-12

      iter #   5 total cpu time :  4391.9 secs   av.it.:   9.3
      thresh= 1.180E-07 alpha_mix =  0.700 |ddv_scf|^2 =  3.965E-15

      iter #   6 total cpu time :  4399.7 secs   av.it.:   9.4
      thresh= 6.297E-09 alpha_mix =  0.700 |ddv_scf|^2 =  2.113E-16

      iter #   7 total cpu time :  4406.5 secs   av.it.:   9.4
      thresh= 1.454E-09 alpha_mix =  0.700 |ddv_scf|^2 =  2.984E-19

     End of self-consistent calculation

     Convergence has been achieved 
 
     Number of q in the star =    6
     List of q in the star:
          1  -0.500000000  -1.000000000   0.000000000
          2   0.000000000   1.000000000   0.500000000
          3   0.500000000  -1.000000000   0.000000000
          4   0.000000000   1.000000000  -0.500000000
          5  -1.000000000  -0.500000000   0.000000000
          6   0.000000000  -0.500000000  -1.000000000

     Diagonalizing the dynamical matrix

     q = (   -0.500000000  -1.000000000   0.000000000 ) 

 **************************************************************************
     freq (    1) =       6.324434 [THz] =     210.960401 [cm-1]
     freq (    2) =       8.764755 [THz] =     292.360762 [cm-1]
     freq (    3) =       8.764755 [THz] =     292.360762 [cm-1]
 **************************************************************************

     Mode symmetry, D_2d (-42m) point group:

     freq (  1 -  1) =        211.0  [cm-1]   --> B_2  X_3  W_2      
     freq (  2 -  3) =        292.4  [cm-1]   --> E    X_5  W_3      
 
     init_run     :      9.29s CPU      9.56s WALL (      28 calls)
     electrons    :    325.24s CPU    328.49s WALL (      28 calls)

     Called by init_run:
     wfcinit      :      0.00s CPU      0.01s WALL (      28 calls)
     potinit      :      2.76s CPU      2.94s WALL (      28 calls)

     Called by electrons:
     c_bands      :    324.92s CPU    328.13s WALL (      28 calls)
     v_of_rho     :      1.80s CPU      1.83s WALL (      29 calls)
     newd         :      0.54s CPU      0.60s WALL (      29 calls)

     Called by c_bands:
     init_us_2    :      8.54s CPU      8.42s WALL (   40610 calls)
     cegterg      :    226.25s CPU    227.75s WALL (    3637 calls)

     Called by sum_band:

     Called by *egterg:
     h_psi        :    217.37s CPU    218.74s WALL (   57562 calls)
     s_psi        :     24.34s CPU     24.46s WALL (  654342 calls)
     g_psi        :      1.35s CPU      1.37s WALL (   51417 calls)
     cdiaghg      :      7.32s CPU      7.37s WALL (   53925 calls)

     Called by h_psi:
     add_vuspsi   :     18.15s CPU     18.12s WALL (  340775 calls)

     General routines
     calbec       :     15.40s CPU     15.77s WALL (  721140 calls)
     fft          :     30.67s CPU     30.81s WALL (   10708 calls)
     ffts         :      4.04s CPU      3.84s WALL (    5567 calls)
     fftw         :    786.47s CPU    792.46s WALL ( 1735070 calls)
     interpolate  :      5.63s CPU      5.65s WALL (    1475 calls)
     davcio       :      0.26s CPU     13.80s WALL (    7530 calls)
 
     Parallel routines
     fft_scatter  :     43.68s CPU     43.66s WALL ( 1751345 calls)
 
     PHONON       :     0h58m CPU        1h13m WALL

     INITIALIZATION: 
     phq_setup    :      4.46s CPU     27.50s WALL (      29 calls)
     phq_init     :    110.54s CPU    140.16s WALL (      29 calls)
 
     phq_init     :    110.54s CPU    140.16s WALL (      29 calls)
     init_vloc    :      0.05s CPU      0.04s WALL (      29 calls)
     init_us_1    :      4.54s CPU      4.54s WALL (      29 calls)
     newd         :      0.54s CPU      0.60s WALL (      29 calls)
     dvanqq       :      3.33s CPU      3.37s WALL (      29 calls)
     drho         :    101.12s CPU    101.48s WALL (      29 calls)
 
     DYNAMICAL MATRIX:
     dynmat0      :      1.28s CPU     17.33s WALL (      29 calls)
     phqscf       :   2877.07s CPU   3581.49s WALL (      29 calls)
     dynmatrix    :     67.54s CPU     93.10s WALL (      29 calls)
 
     phqscf       :   2877.07s CPU   3581.49s WALL (      29 calls)
     solve_linter :   2874.64s CPU   3487.30s WALL (      76 calls)
     drhodv       :      2.17s CPU      2.30s WALL (      76 calls)
 
     dynmat0      :      1.28s CPU     17.33s WALL (      29 calls)
     dynmat_us    :      1.14s CPU      1.16s WALL (      29 calls)
     d2ionq       :      0.09s CPU      0.09s WALL (      29 calls)
 
     dynmat_us    :      1.14s CPU      1.16s WALL (      29 calls)
     addusdynmat  :      0.00s CPU      0.00s WALL (      29 calls)
 
     phqscf       :   2877.07s CPU   3581.49s WALL (      29 calls)
     solve_linter :   2874.64s CPU   3487.30s WALL (      76 calls)
 
     solve_linter :   2874.64s CPU   3487.30s WALL (      76 calls)
     dvqpsi_us    :     26.16s CPU     26.47s WALL (    3771 calls)
     ortho        :      5.58s CPU      5.72s WALL (   30354 calls)
     cgsolve      :    621.56s CPU    626.67s WALL (   30354 calls)
     incdrhoscf   :     65.52s CPU     66.45s WALL (   30354 calls)
     addusddens   :     17.24s CPU     17.38s WALL (     674 calls)
     vpsifft      :     53.86s CPU     54.81s WALL (   26583 calls)
     dv_of_drho   :     41.26s CPU     41.44s WALL (     665 calls)
     mix_pot      :      6.62s CPU      6.78s WALL (     598 calls)
     ef_shift     :      0.12s CPU      0.12s WALL (       7 calls)
     localdos     :      0.04s CPU      0.04s WALL (       1 calls)
     psymdvscf    :     15.64s CPU     15.78s WALL (     546 calls)
     newdq        :     16.42s CPU     16.45s WALL (     598 calls)
     adddvscf     :      1.72s CPU      1.81s WALL (   26583 calls)
     drhodvus     :      0.31s CPU      0.32s WALL (      76 calls)
 
     dvqpsi_us    :     26.16s CPU     26.47s WALL (    3771 calls)
     dvqpsi_us_on :      1.30s CPU      1.33s WALL (    3771 calls)
 
     cgsolve      :    621.56s CPU    626.67s WALL (   30354 calls)
     ch_psi       :    614.31s CPU    618.94s WALL (  283213 calls)
 
     ch_psi       :    614.31s CPU    618.94s WALL (  283213 calls)
     h_psiq       :    588.56s CPU    593.01s WALL (  283213 calls)
     last         :     23.77s CPU     23.98s WALL (  283213 calls)
 
     h_psiq       :    588.56s CPU    593.01s WALL (  283213 calls)
     firstfft     :    294.70s CPU    296.94s WALL (  526956 calls)
     secondfft    :    240.12s CPU    241.78s WALL (  526956 calls)
     add_vuspsi   :     18.15s CPU     18.12s WALL (  340775 calls)
 
     incdrhoscf   :     65.52s CPU     66.45s WALL (   30354 calls)
     addusdbec    :      1.97s CPU      1.87s WALL (   34125 calls)
 
     drhodvus     :      0.31s CPU      0.32s WALL (      76 calls)
 
      General routines
     calbec       :     15.40s CPU     15.77s WALL (  721140 calls)
     fft          :     30.67s CPU     30.81s WALL (   10708 calls)
     ffts         :      4.04s CPU      3.84s WALL (    5567 calls)
     fftw         :    786.47s CPU    792.46s WALL ( 1735070 calls)
     davcio       :      0.26s CPU     13.80s WALL (    7530 calls)
     write_rec    :      1.75s CPU    693.23s WALL (     674 calls)
 
 
     PHONON       :     0h58m CPU        1h13m WALL

 
   This run was terminated on:  21:57: 4  23Jun2016            

=------------------------------------------------------------------------------=
   JOB DONE.
=------------------------------------------------------------------------------=
Application 22276154 resources: utime ~3075967s, stime ~8703s, Rss ~169800, inblocks ~905474620, outblocks ~2674804760
