
     Program PHONON v.6.1 (svn rev. 13369) starts on 21Dec2017 at 11:53: 7 

     This program is part of the open-source Quantum ESPRESSO suite
     for quantum simulation of materials; please cite
         "P. Giannozzi et al., J. Phys.:Condens. Matter 21 395502 (2009);
          URL http://www.quantum-espresso.org", 
     in publications or presentations arising from this work. More details at
     http://www.quantum-espresso.org/quote

     Parallel version (MPI), running on     4 processors
     R & G space division:  proc/nbgrp/npool/nimage =       4

     Reading data from directory:
     ./na.bcc.save

   Info: using nr1, nr2, nr3 values from input

   Info: using nr1, nr2, nr3 values from input

     IMPORTANT: XC functional enforced from input :
     Exchange-correlation      = SLA  PW   PBE  PBE ( 1  4  3  4 0 0)
     Any further DFT definition will be discarded
     Please, verify this is what you really want


     Parallelization info
     --------------------
     sticks:   dense  smooth     PW     G-vecs:    dense   smooth      PW
     Min         245     121     39                 4869     1740     312
     Max         246     122     40                 4870     1742     314
     Sum         981     487    159                19477     6963    1253



     Dynamical matrices for ( 8, 8, 8)  uniform grid of q-points
     (  29q-points):
       N         xq(1)         xq(2)         xq(3) 
       1   0.000000000   0.000000000   0.000000000
       2   0.000000000  -0.125000000   0.125000000
       3   0.000000000  -0.250000000   0.250000000
       4   0.000000000  -0.375000000   0.375000000
       5   0.000000000   0.500000000  -0.500000000
       6  -0.125000000  -0.125000000   0.250000000
       7  -0.125000000  -0.250000000   0.375000000
       8  -0.125000000   0.625000000  -0.500000000
       9  -0.250000000   0.750000000  -0.500000000
      10  -0.250000000   0.625000000  -0.375000000
      11   0.000000000   0.000000000   0.250000000
      12   0.000000000  -0.125000000   0.375000000
      13   0.000000000  -0.250000000   0.500000000
      14   0.000000000   0.625000000  -0.375000000
      15  -0.125000000  -0.125000000   0.500000000
      16  -0.125000000   0.750000000  -0.375000000
      17  -0.250000000   0.250000000   0.250000000
      18  -0.250000000   0.750000000  -0.250000000
      19   0.625000000  -0.625000000   0.250000000
      20   0.500000000  -0.500000000   0.250000000
      21   0.500000000  -0.625000000   0.375000000
      22   0.000000000   0.000000000   0.500000000
      23   0.000000000  -0.125000000   0.625000000
      24   0.000000000   0.750000000  -0.250000000
      25  -0.125000000   0.875000000  -0.250000000
      26   0.500000000  -0.500000000   0.500000000
      27   0.000000000   0.000000000   0.750000000
      28   0.000000000   0.875000000  -0.125000000
      29   0.000000000   0.000000000  -1.000000000

     Calculation of q =    0.0000000   0.0000000   0.0000000

                                                                                

     bravais-lattice index     =            3
     lattice parameter (alat)  =       7.4109  a.u.
     unit-cell volume          =     203.5084 (a.u.)^3
     number of atoms/cell      =            1
     number of atomic types    =            1
     kinetic-energy cut-off    =      40.0000  Ry
     charge density cut-off    =     320.0000  Ry
     convergence threshold     =      1.0E-12
     beta                      =       0.7000
     number of iterations used =            4
     Exchange-correlation      = SLA  PW   PBE  PBE ( 1  4  3  4 0 0)


     celldm(1)=    7.41090  celldm(2)=    0.00000  celldm(3)=    0.00000
     celldm(4)=    0.00000  celldm(5)=    0.00000  celldm(6)=    0.00000

     crystal axes: (cart. coord. in units of alat)
               a(1) = (  0.5000  0.5000  0.5000 )  
               a(2) = ( -0.5000  0.5000  0.5000 )  
               a(3) = ( -0.5000 -0.5000  0.5000 )  

     reciprocal axes: (cart. coord. in units 2 pi/alat)
               b(1) = (  1.0000  0.0000  1.0000 )  
               b(2) = ( -1.0000  1.0000  0.0000 )  
               b(3) = (  0.0000 -1.0000  1.0000 )  


     Atoms inside the unit cell: 

     Cartesian axes

     site n.  atom      mass           positions (alat units)
        1     Na  22.9900   tau(    1) = (    0.00000    0.00000    0.00000  )

     Computing dynamical matrix for 
                    q = (   0.0000000   0.0000000   0.0000000 )

     49 Sym.Ops. (with q -> -q+G )


     G cutoff =  445.1760  (   4869 G-vectors)     FFT grid: ( 40, 40, 40)
     G cutoff =  222.5880  (   1742 G-vectors)  smooth grid: ( 25, 25, 25)

     number of k points=   100  Marzari-Vanderbilt smearing, width (Ry)=  0.0200

     PseudoPot. # 1 for Na read from file:
     /home/s1333534/quantum_espresso/qe-6.1/pseudo/Na_pbe_v1.uspp.F.UPF
     MD5 check sum: 76a99c7e9422403d3e93cbc85ab7bccb
     Pseudo is Ultrasoft, Zval =  9.0
     Generated by new atomic code, or converted to UPF format
     Using radial grid of  819 points,  5 beta functions with: 
                l(1) =   0
                l(2) =   0
                l(3) =   1
                l(4) =   1
                l(5) =   2
     Q(r) pseudized with  8 coefficients,  rinner =    1.250   1.250   1.250
                                                       1.250   1.250

     Mode symmetry, O_h (m-3m)  point group:


     Atomic displacements:
     There are   1 irreducible representations

     Representation     1      3 modes -T_1u G_15  G_4-  To be done



     Alpha used in Ewald sum =   2.8000
     PHONON       :     0.97s CPU         1.02s WALL



     Representation #  1 modes #   1  2  3

     Self-consistent Calculation

     Pert. #  1: Fermi energy shift (Ry) =     4.1649E-22    -1.0188E-37
     Pert. #  2: Fermi energy shift (Ry) =     1.9301E-22     1.2539E-37
     Pert. #  3: Fermi energy shift (Ry) =    -1.7077E-22    -1.4694E-37

      iter #   1 total cpu time :     3.2 secs   av.it.:   5.3
      thresh= 1.000E-02 alpha_mix =  0.700 |ddv_scf|^2 =  1.639E-06

     Pert. #  1: Fermi energy shift (Ry) =    -1.1029E-23    -1.8367E-40
     Pert. #  2: Fermi energy shift (Ry) =    -1.1029E-24    -1.2245E-39
     Pert. #  3: Fermi energy shift (Ry) =     9.9434E-24     3.3673E-40

      iter #   2 total cpu time :     5.7 secs   av.it.:   8.3
      thresh= 1.280E-04 alpha_mix =  0.700 |ddv_scf|^2 =  3.135E-08

     Pert. #  1: Fermi energy shift (Ry) =     1.8198E-23    -9.7958E-40
     Pert. #  2: Fermi energy shift (Ry) =     7.7204E-24    -1.2245E-39
     Pert. #  3: Fermi energy shift (Ry) =     6.3934E-24     6.1224E-40

      iter #   3 total cpu time :     8.2 secs   av.it.:   8.4
      thresh= 1.770E-05 alpha_mix =  0.700 |ddv_scf|^2 =  4.555E-10

     Pert. #  1: Fermi energy shift (Ry) =    -1.6819E-23     3.0612E-41
     Pert. #  2: Fermi energy shift (Ry) =     4.4116E-24     2.4489E-40
     Pert. #  3: Fermi energy shift (Ry) =    -6.7381E-24     0.0000E+00

      iter #   4 total cpu time :    10.7 secs   av.it.:   8.0
      thresh= 2.134E-06 alpha_mix =  0.700 |ddv_scf|^2 =  1.820E-12

     Pert. #  1: Fermi energy shift (Ry) =     2.0955E-23     3.0612E-41
     Pert. #  2: Fermi energy shift (Ry) =     3.3087E-24     2.4489E-40
     Pert. #  3: Fermi energy shift (Ry) =    -3.6878E-24     0.0000E+00

      iter #   5 total cpu time :    13.2 secs   av.it.:   8.2
      thresh= 1.349E-07 alpha_mix =  0.700 |ddv_scf|^2 =  4.691E-15

     End of self-consistent calculation

     Convergence has been achieved 

     Number of q in the star =    1
     List of q in the star:
          1   0.000000000   0.000000000   0.000000000

     Diagonalizing the dynamical matrix

     q = (    0.000000000   0.000000000   0.000000000 ) 

 **************************************************************************
     freq (    1) =      -0.901855 [THz] =     -30.082651 [cm-1]
     freq (    2) =      -0.901855 [THz] =     -30.082651 [cm-1]
     freq (    3) =      -0.901855 [THz] =     -30.082651 [cm-1]
 **************************************************************************

     Mode symmetry, O_h (m-3m)  point group:

     freq (  1 -  3) =        -30.1  [cm-1]   --> T_1u G_15  G_4- I  

     Calculation of q =    0.0000000  -0.1250000   0.1250000

   Info: using nr1, nr2, nr3 values from input

   Info: using nr1, nr2, nr3 values from input

     Parallelization info
     --------------------
     sticks:   dense  smooth     PW     G-vecs:    dense   smooth      PW
     Min         245     121     42                 4869     1740     352
     Max         246     122     43                 4870     1742     353
     Sum         981     487    169                19477     6963    1409



     bravais-lattice index     =            3
     lattice parameter (alat)  =       7.4109  a.u.
     unit-cell volume          =     203.5084 (a.u.)^3
     number of atoms/cell      =            1
     number of atomic types    =            1
     number of electrons       =         9.00
     number of Kohn-Sham states=            9
     kinetic-energy cutoff     =      40.0000  Ry
     charge density cutoff     =     320.0000  Ry
     Exchange-correlation      = SLA  PW   PBE  PBE ( 1  4  3  4 0 0)

     celldm(1)=   7.410897  celldm(2)=   0.000000  celldm(3)=   0.000000
     celldm(4)=   0.000000  celldm(5)=   0.000000  celldm(6)=   0.000000

     crystal axes: (cart. coord. in units of alat)
               a(1) = (   0.500000   0.500000   0.500000 )  
               a(2) = (  -0.500000   0.500000   0.500000 )  
               a(3) = (  -0.500000  -0.500000   0.500000 )  

     reciprocal axes: (cart. coord. in units 2 pi/alat)
               b(1) = (  1.000000  0.000000  1.000000 )  
               b(2) = ( -1.000000  1.000000  0.000000 )  
               b(3) = (  0.000000 -1.000000  1.000000 )  


     PseudoPot. # 1 for Na read from file:
     /home/s1333534/quantum_espresso/qe-6.1/pseudo/Na_pbe_v1.uspp.F.UPF
     MD5 check sum: 76a99c7e9422403d3e93cbc85ab7bccb
     Pseudo is Ultrasoft, Zval =  9.0
     Generated by new atomic code, or converted to UPF format
     Using radial grid of  819 points,  5 beta functions with: 
                l(1) =   0
                l(2) =   0
                l(3) =   1
                l(4) =   1
                l(5) =   2
     Q(r) pseudized with  8 coefficients,  rinner =    1.250   1.250   1.250
                                                       1.250   1.250

     atomic species   valence    mass     pseudopotential
        Na             9.00    22.99000     Na( 1.00)

     48 Sym. Ops., with inversion, found



   Cartesian axes

     site n.     atom                  positions (alat units)
         1           Na  tau(   1) = (   0.0000000   0.0000000   0.0000000  )

     number of k points=  1568  Marzari-Vanderbilt smearing, width (Ry)=  0.0200

     Number of k-points >= 100: set verbosity='high' to print them.

     Dense  grid:    19477 G-vectors     FFT dimensions: (  40,  40,  40)

     Smooth grid:     6963 G-vectors     FFT dimensions: (  25,  25,  25)

     Estimated max dynamical RAM per process >       1.99MB

     Estimated total allocated dynamical RAM >       7.97MB

     The potential is recalculated from file :
     ./_ph0/na.bcc.save/charge-density.dat

     Starting wfc are    5 atomic +    4 random wfc

     Band Structure Calculation
     Davidson diagonalization with overlap

     ethr =  1.11E-10,  avg # of iterations = 19.4

     total cpu time spent up to now is       32.5 secs

     End of band structure calculation

     Number of k-points >= 100: set verbosity='high' to print the bands.

     the Fermi energy is     2.5788 ev

     Writing output data file na.bcc.save

                                                                                

     bravais-lattice index     =            3
     lattice parameter (alat)  =       7.4109  a.u.
     unit-cell volume          =     203.5084 (a.u.)^3
     number of atoms/cell      =            1
     number of atomic types    =            1
     kinetic-energy cut-off    =      40.0000  Ry
     charge density cut-off    =     320.0000  Ry
     convergence threshold     =      1.0E-12
     beta                      =       0.7000
     number of iterations used =            4
     Exchange-correlation      = SLA  PW   PBE  PBE ( 1  4  3  4 0 0)


     celldm(1)=    7.41090  celldm(2)=    0.00000  celldm(3)=    0.00000
     celldm(4)=    0.00000  celldm(5)=    0.00000  celldm(6)=    0.00000

     crystal axes: (cart. coord. in units of alat)
               a(1) = (  0.5000  0.5000  0.5000 )  
               a(2) = ( -0.5000  0.5000  0.5000 )  
               a(3) = ( -0.5000 -0.5000  0.5000 )  

     reciprocal axes: (cart. coord. in units 2 pi/alat)
               b(1) = (  1.0000  0.0000  1.0000 )  
               b(2) = ( -1.0000  1.0000  0.0000 )  
               b(3) = (  0.0000 -1.0000  1.0000 )  


     Atoms inside the unit cell: 

     Cartesian axes

     site n.  atom      mass           positions (alat units)
        1     Na  22.9900   tau(    1) = (    0.00000    0.00000    0.00000  )

     Computing dynamical matrix for 
                    q = (   0.0000000  -0.1250000   0.1250000 )

      4 Sym.Ops. (no q -> -q+G )


     G cutoff =  445.1760  (   4869 G-vectors)     FFT grid: ( 40, 40, 40)
     G cutoff =  222.5880  (   1742 G-vectors)  smooth grid: ( 25, 25, 25)

     number of k points=  1568  Marzari-Vanderbilt smearing, width (Ry)=  0.0200

     PseudoPot. # 1 for Na read from file:
     /home/s1333534/quantum_espresso/qe-6.1/pseudo/Na_pbe_v1.uspp.F.UPF
     MD5 check sum: 76a99c7e9422403d3e93cbc85ab7bccb
     Pseudo is Ultrasoft, Zval =  9.0
     Generated by new atomic code, or converted to UPF format
     Using radial grid of  819 points,  5 beta functions with: 
                l(1) =   0
                l(2) =   0
                l(3) =   1
                l(4) =   1
                l(5) =   2
     Q(r) pseudized with  8 coefficients,  rinner =    1.250   1.250   1.250
                                                       1.250   1.250

     Mode symmetry, C_2v (mm2)  point group:


     Atomic displacements:
     There are   3 irreducible representations

     Representation     1      1 modes -A_1  D_1  S_1  To be done

     Representation     2      1 modes -B_1  D_3  S_3  To be done

     Representation     3      1 modes -B_2  D_4  S_4  To be done



     Alpha used in Ewald sum =   2.8000
     PHONON       :    46.18s CPU        49.40s WALL



     Representation #  1 mode #   1

     Self-consistent Calculation

      iter #   1 total cpu time :    54.4 secs   av.it.:   5.6
      thresh= 1.000E-02 alpha_mix =  0.700 |ddv_scf|^2 =  2.030E-01

      iter #   2 total cpu time :    59.5 secs   av.it.:   7.0
      thresh= 1.000E-02 alpha_mix =  0.700 |ddv_scf|^2 =  8.536E+01

      iter #   3 total cpu time :    64.6 secs   av.it.:   6.9
      thresh= 1.000E-02 alpha_mix =  0.700 |ddv_scf|^2 =  1.967E-04

      iter #   4 total cpu time :    68.8 secs   av.it.:   5.4
      thresh= 1.403E-03 alpha_mix =  0.700 |ddv_scf|^2 =  2.553E-07

      iter #   5 total cpu time :    74.0 secs   av.it.:   7.1
      thresh= 5.053E-05 alpha_mix =  0.700 |ddv_scf|^2 =  3.481E-08

      iter #   6 total cpu time :    77.9 secs   av.it.:   4.9
      thresh= 1.866E-05 alpha_mix =  0.700 |ddv_scf|^2 =  2.100E-07

      iter #   7 total cpu time :    82.5 secs   av.it.:   5.6
      thresh= 4.582E-05 alpha_mix =  0.700 |ddv_scf|^2 =  3.018E-11

      iter #   8 total cpu time :    88.1 secs   av.it.:   8.0
      thresh= 5.493E-07 alpha_mix =  0.700 |ddv_scf|^2 =  4.884E-12

      iter #   9 total cpu time :    93.6 secs   av.it.:   7.7
      thresh= 2.210E-07 alpha_mix =  0.700 |ddv_scf|^2 =  4.313E-14

     End of self-consistent calculation

     Convergence has been achieved 


     Representation #  2 mode #   2

     Self-consistent Calculation

      iter #   1 total cpu time :    98.6 secs   av.it.:   5.4
      thresh= 1.000E-02 alpha_mix =  0.700 |ddv_scf|^2 =  1.484E-05

      iter #   2 total cpu time :   104.0 secs   av.it.:   7.5
      thresh= 3.852E-04 alpha_mix =  0.700 |ddv_scf|^2 =  2.803E-07

      iter #   3 total cpu time :   109.5 secs   av.it.:   7.7
      thresh= 5.294E-05 alpha_mix =  0.700 |ddv_scf|^2 =  4.341E-09

      iter #   4 total cpu time :   114.7 secs   av.it.:   7.2
      thresh= 6.589E-06 alpha_mix =  0.700 |ddv_scf|^2 =  1.703E-11

      iter #   5 total cpu time :   120.1 secs   av.it.:   7.4
      thresh= 4.126E-07 alpha_mix =  0.700 |ddv_scf|^2 =  4.127E-14

     End of self-consistent calculation

     Convergence has been achieved 


     Representation #  3 mode #   3

     Self-consistent Calculation

      iter #   1 total cpu time :   125.0 secs   av.it.:   5.4
      thresh= 1.000E-02 alpha_mix =  0.700 |ddv_scf|^2 =  1.515E-05

      iter #   2 total cpu time :   130.4 secs   av.it.:   7.5
      thresh= 3.892E-04 alpha_mix =  0.700 |ddv_scf|^2 =  2.790E-07

      iter #   3 total cpu time :   135.9 secs   av.it.:   7.7
      thresh= 5.282E-05 alpha_mix =  0.700 |ddv_scf|^2 =  5.138E-09

      iter #   4 total cpu time :   141.2 secs   av.it.:   7.3
      thresh= 7.168E-06 alpha_mix =  0.700 |ddv_scf|^2 =  1.969E-11

      iter #   5 total cpu time :   146.6 secs   av.it.:   7.5
      thresh= 4.437E-07 alpha_mix =  0.700 |ddv_scf|^2 =  4.214E-14

     End of self-consistent calculation

     Convergence has been achieved 

     Number of q in the star =   12
     List of q in the star:
          1   0.000000000  -0.125000000   0.125000000
          2   0.125000000   0.000000000   0.125000000
          3  -0.125000000   0.000000000   0.125000000
          4   0.000000000   0.125000000   0.125000000
          5   0.125000000  -0.125000000   0.000000000
          6  -0.125000000   0.000000000  -0.125000000
          7   0.125000000   0.000000000  -0.125000000
          8   0.000000000  -0.125000000  -0.125000000
          9  -0.125000000  -0.125000000   0.000000000
         10  -0.125000000   0.125000000   0.000000000
         11   0.125000000   0.125000000   0.000000000
         12   0.000000000   0.125000000  -0.125000000

     Diagonalizing the dynamical matrix

     q = (    0.000000000  -0.125000000   0.125000000 ) 

 **************************************************************************
     freq (    1) =       1.125172 [THz] =      37.531687 [cm-1]
     freq (    2) =       1.480780 [THz] =      49.393488 [cm-1]
     freq (    3) =       2.482496 [THz] =      82.807153 [cm-1]
 **************************************************************************

     Mode symmetry, C_2v (mm2)  point group:

     freq (  1 -  1) =         37.5  [cm-1]   --> B_1  D_3  S_3      
     freq (  2 -  2) =         49.4  [cm-1]   --> B_2  D_4  S_4      
     freq (  3 -  3) =         82.8  [cm-1]   --> A_1  D_1  S_1      

     Calculation of q =    0.0000000  -0.2500000   0.2500000

   Info: using nr1, nr2, nr3 values from input

   Info: using nr1, nr2, nr3 values from input

     Parallelization info
     --------------------
     sticks:   dense  smooth     PW     G-vecs:    dense   smooth      PW
     Min         245     121     43                 4869     1740     358
     Max         246     122     44                 4870     1742     359
     Sum         981     487    173                19477     6963    1433



     bravais-lattice index     =            3
     lattice parameter (alat)  =       7.4109  a.u.
     unit-cell volume          =     203.5084 (a.u.)^3
     number of atoms/cell      =            1
     number of atomic types    =            1
     number of electrons       =         9.00
     number of Kohn-Sham states=            9
     kinetic-energy cutoff     =      40.0000  Ry
     charge density cutoff     =     320.0000  Ry
     Exchange-correlation      = SLA  PW   PBE  PBE ( 1  4  3  4 0 0)

     celldm(1)=   7.410897  celldm(2)=   0.000000  celldm(3)=   0.000000
     celldm(4)=   0.000000  celldm(5)=   0.000000  celldm(6)=   0.000000

     crystal axes: (cart. coord. in units of alat)
               a(1) = (   0.500000   0.500000   0.500000 )  
               a(2) = (  -0.500000   0.500000   0.500000 )  
               a(3) = (  -0.500000  -0.500000   0.500000 )  

     reciprocal axes: (cart. coord. in units 2 pi/alat)
               b(1) = (  1.000000  0.000000  1.000000 )  
               b(2) = ( -1.000000  1.000000  0.000000 )  
               b(3) = (  0.000000 -1.000000  1.000000 )  


     PseudoPot. # 1 for Na read from file:
     /home/s1333534/quantum_espresso/qe-6.1/pseudo/Na_pbe_v1.uspp.F.UPF
     MD5 check sum: 76a99c7e9422403d3e93cbc85ab7bccb
     Pseudo is Ultrasoft, Zval =  9.0
     Generated by new atomic code, or converted to UPF format
     Using radial grid of  819 points,  5 beta functions with: 
                l(1) =   0
                l(2) =   0
                l(3) =   1
                l(4) =   1
                l(5) =   2
     Q(r) pseudized with  8 coefficients,  rinner =    1.250   1.250   1.250
                                                       1.250   1.250

     atomic species   valence    mass     pseudopotential
        Na             9.00    22.99000     Na( 1.00)

     48 Sym. Ops., with inversion, found



   Cartesian axes

     site n.     atom                  positions (alat units)
         1           Na  tau(   1) = (   0.0000000   0.0000000   0.0000000  )

     number of k points=  1568  Marzari-Vanderbilt smearing, width (Ry)=  0.0200

     Number of k-points >= 100: set verbosity='high' to print them.

     Dense  grid:    19477 G-vectors     FFT dimensions: (  40,  40,  40)

     Smooth grid:     6963 G-vectors     FFT dimensions: (  25,  25,  25)

     Estimated max dynamical RAM per process >       1.99MB

     Estimated total allocated dynamical RAM >       7.97MB

     The potential is recalculated from file :
     ./_ph0/na.bcc.save/charge-density.dat

     Starting wfc are    5 atomic +    4 random wfc

     Band Structure Calculation
     Davidson diagonalization with overlap

     ethr =  1.11E-10,  avg # of iterations = 19.4

     total cpu time spent up to now is       66.4 secs

     End of band structure calculation

     Number of k-points >= 100: set verbosity='high' to print the bands.

     the Fermi energy is     2.5788 ev

     Writing output data file na.bcc.save

                                                                                

     bravais-lattice index     =            3
     lattice parameter (alat)  =       7.4109  a.u.
     unit-cell volume          =     203.5084 (a.u.)^3
     number of atoms/cell      =            1
     number of atomic types    =            1
     kinetic-energy cut-off    =      40.0000  Ry
     charge density cut-off    =     320.0000  Ry
     convergence threshold     =      1.0E-12
     beta                      =       0.7000
     number of iterations used =            4
     Exchange-correlation      = SLA  PW   PBE  PBE ( 1  4  3  4 0 0)


     celldm(1)=    7.41090  celldm(2)=    0.00000  celldm(3)=    0.00000
     celldm(4)=    0.00000  celldm(5)=    0.00000  celldm(6)=    0.00000

     crystal axes: (cart. coord. in units of alat)
               a(1) = (  0.5000  0.5000  0.5000 )  
               a(2) = ( -0.5000  0.5000  0.5000 )  
               a(3) = ( -0.5000 -0.5000  0.5000 )  

     reciprocal axes: (cart. coord. in units 2 pi/alat)
               b(1) = (  1.0000  0.0000  1.0000 )  
               b(2) = ( -1.0000  1.0000  0.0000 )  
               b(3) = (  0.0000 -1.0000  1.0000 )  


     Atoms inside the unit cell: 

     Cartesian axes

     site n.  atom      mass           positions (alat units)
        1     Na  22.9900   tau(    1) = (    0.00000    0.00000    0.00000  )

     Computing dynamical matrix for 
                    q = (   0.0000000  -0.2500000   0.2500000 )

      4 Sym.Ops. (no q -> -q+G )


     G cutoff =  445.1760  (   4869 G-vectors)     FFT grid: ( 40, 40, 40)
     G cutoff =  222.5880  (   1742 G-vectors)  smooth grid: ( 25, 25, 25)

     number of k points=  1568  Marzari-Vanderbilt smearing, width (Ry)=  0.0200

     PseudoPot. # 1 for Na read from file:
     /home/s1333534/quantum_espresso/qe-6.1/pseudo/Na_pbe_v1.uspp.F.UPF
     MD5 check sum: 76a99c7e9422403d3e93cbc85ab7bccb
     Pseudo is Ultrasoft, Zval =  9.0
     Generated by new atomic code, or converted to UPF format
     Using radial grid of  819 points,  5 beta functions with: 
                l(1) =   0
                l(2) =   0
                l(3) =   1
                l(4) =   1
                l(5) =   2
     Q(r) pseudized with  8 coefficients,  rinner =    1.250   1.250   1.250
                                                       1.250   1.250

     Mode symmetry, C_2v (mm2)  point group:


     Atomic displacements:
     There are   3 irreducible representations

     Representation     1      1 modes -A_1  D_1  S_1  To be done

     Representation     2      1 modes -B_1  D_3  S_3  To be done

     Representation     3      1 modes -B_2  D_4  S_4  To be done



     Alpha used in Ewald sum =   2.8000
     PHONON       :  2m49.05s CPU     3m 3.33s WALL



     Representation #  1 mode #   1

     Self-consistent Calculation

      iter #   1 total cpu time :   188.4 secs   av.it.:   5.7
      thresh= 1.000E-02 alpha_mix =  0.700 |ddv_scf|^2 =  3.310E-03

      iter #   2 total cpu time :   193.1 secs   av.it.:   6.2
      thresh= 5.754E-03 alpha_mix =  0.700 |ddv_scf|^2 =  6.750E-02

      iter #   3 total cpu time :   197.6 secs   av.it.:   5.7
      thresh= 1.000E-02 alpha_mix =  0.700 |ddv_scf|^2 =  2.794E-06

      iter #   4 total cpu time :   202.9 secs   av.it.:   7.3
      thresh= 1.671E-04 alpha_mix =  0.700 |ddv_scf|^2 =  1.289E-08

      iter #   5 total cpu time :   208.6 secs   av.it.:   8.1
      thresh= 1.135E-05 alpha_mix =  0.700 |ddv_scf|^2 =  1.688E-09

      iter #   6 total cpu time :   214.1 secs   av.it.:   7.7
      thresh= 4.109E-06 alpha_mix =  0.700 |ddv_scf|^2 =  2.553E-11

      iter #   7 total cpu time :   220.0 secs   av.it.:   8.1
      thresh= 5.052E-07 alpha_mix =  0.700 |ddv_scf|^2 =  3.084E-12

      iter #   8 total cpu time :   225.3 secs   av.it.:   7.2
      thresh= 1.756E-07 alpha_mix =  0.700 |ddv_scf|^2 =  1.466E-11

      iter #   9 total cpu time :   230.0 secs   av.it.:   6.3
      thresh= 3.829E-07 alpha_mix =  0.700 |ddv_scf|^2 =  1.920E-12

      iter #  10 total cpu time :   235.1 secs   av.it.:   6.9
      thresh= 1.386E-07 alpha_mix =  0.700 |ddv_scf|^2 =  5.898E-14

     End of self-consistent calculation

     Convergence has been achieved 


     Representation #  2 mode #   2

     Self-consistent Calculation

      iter #   1 total cpu time :   240.2 secs   av.it.:   5.5
      thresh= 1.000E-02 alpha_mix =  0.700 |ddv_scf|^2 =  1.511E-05

      iter #   2 total cpu time :   245.7 secs   av.it.:   7.6
      thresh= 3.887E-04 alpha_mix =  0.700 |ddv_scf|^2 =  2.744E-07

      iter #   3 total cpu time :   251.2 secs   av.it.:   7.8
      thresh= 5.238E-05 alpha_mix =  0.700 |ddv_scf|^2 =  5.140E-09

      iter #   4 total cpu time :   256.5 secs   av.it.:   7.3
      thresh= 7.170E-06 alpha_mix =  0.700 |ddv_scf|^2 =  1.903E-11

      iter #   5 total cpu time :   262.0 secs   av.it.:   7.6
      thresh= 4.362E-07 alpha_mix =  0.700 |ddv_scf|^2 =  3.743E-14

     End of self-consistent calculation

     Convergence has been achieved 


     Representation #  3 mode #   3

     Self-consistent Calculation

      iter #   1 total cpu time :   267.1 secs   av.it.:   5.4
      thresh= 1.000E-02 alpha_mix =  0.700 |ddv_scf|^2 =  1.618E-05

      iter #   2 total cpu time :   272.6 secs   av.it.:   7.5
      thresh= 4.022E-04 alpha_mix =  0.700 |ddv_scf|^2 =  2.705E-07

      iter #   3 total cpu time :   278.1 secs   av.it.:   7.8
      thresh= 5.201E-05 alpha_mix =  0.700 |ddv_scf|^2 =  8.113E-09

      iter #   4 total cpu time :   283.5 secs   av.it.:   7.3
      thresh= 9.007E-06 alpha_mix =  0.700 |ddv_scf|^2 =  2.930E-11

      iter #   5 total cpu time :   288.9 secs   av.it.:   7.6
      thresh= 5.413E-07 alpha_mix =  0.700 |ddv_scf|^2 =  4.282E-14

     End of self-consistent calculation

     Convergence has been achieved 

     Number of q in the star =   12
     List of q in the star:
          1   0.000000000  -0.250000000   0.250000000
          2   0.250000000   0.000000000   0.250000000
          3  -0.250000000   0.000000000   0.250000000
          4   0.000000000   0.250000000   0.250000000
          5   0.250000000  -0.250000000   0.000000000
          6  -0.250000000   0.000000000  -0.250000000
          7   0.250000000   0.000000000  -0.250000000
          8   0.000000000  -0.250000000  -0.250000000
          9  -0.250000000  -0.250000000   0.000000000
         10  -0.250000000   0.250000000   0.000000000
         11   0.250000000   0.250000000   0.000000000
         12   0.000000000   0.250000000  -0.250000000

     Diagonalizing the dynamical matrix

     q = (    0.000000000  -0.250000000   0.250000000 ) 

 **************************************************************************
     freq (    1) =       1.417024 [THz] =      47.266820 [cm-1]
     freq (    2) =       2.321287 [THz] =      77.429799 [cm-1]
     freq (    3) =       3.888317 [THz] =     129.700289 [cm-1]
 **************************************************************************

     Mode symmetry, C_2v (mm2)  point group:

     freq (  1 -  1) =         47.3  [cm-1]   --> B_1  D_3  S_3      
     freq (  2 -  2) =         77.4  [cm-1]   --> B_2  D_4  S_4      
     freq (  3 -  3) =        129.7  [cm-1]   --> A_1  D_1  S_1      

     Calculation of q =    0.0000000  -0.3750000   0.3750000

   Info: using nr1, nr2, nr3 values from input

   Info: using nr1, nr2, nr3 values from input

     Parallelization info
     --------------------
     sticks:   dense  smooth     PW     G-vecs:    dense   smooth      PW
     Min         245     121     43                 4869     1740     369
     Max         246     122     44                 4870     1742     372
     Sum         981     487    173                19477     6963    1481



     bravais-lattice index     =            3
     lattice parameter (alat)  =       7.4109  a.u.
     unit-cell volume          =     203.5084 (a.u.)^3
     number of atoms/cell      =            1
     number of atomic types    =            1
     number of electrons       =         9.00
     number of Kohn-Sham states=            9
     kinetic-energy cutoff     =      40.0000  Ry
     charge density cutoff     =     320.0000  Ry
     Exchange-correlation      = SLA  PW   PBE  PBE ( 1  4  3  4 0 0)

     celldm(1)=   7.410897  celldm(2)=   0.000000  celldm(3)=   0.000000
     celldm(4)=   0.000000  celldm(5)=   0.000000  celldm(6)=   0.000000

     crystal axes: (cart. coord. in units of alat)
               a(1) = (   0.500000   0.500000   0.500000 )  
               a(2) = (  -0.500000   0.500000   0.500000 )  
               a(3) = (  -0.500000  -0.500000   0.500000 )  

     reciprocal axes: (cart. coord. in units 2 pi/alat)
               b(1) = (  1.000000  0.000000  1.000000 )  
               b(2) = ( -1.000000  1.000000  0.000000 )  
               b(3) = (  0.000000 -1.000000  1.000000 )  


     PseudoPot. # 1 for Na read from file:
     /home/s1333534/quantum_espresso/qe-6.1/pseudo/Na_pbe_v1.uspp.F.UPF
     MD5 check sum: 76a99c7e9422403d3e93cbc85ab7bccb
     Pseudo is Ultrasoft, Zval =  9.0
     Generated by new atomic code, or converted to UPF format
     Using radial grid of  819 points,  5 beta functions with: 
                l(1) =   0
                l(2) =   0
                l(3) =   1
                l(4) =   1
                l(5) =   2
     Q(r) pseudized with  8 coefficients,  rinner =    1.250   1.250   1.250
                                                       1.250   1.250

     atomic species   valence    mass     pseudopotential
        Na             9.00    22.99000     Na( 1.00)

     48 Sym. Ops., with inversion, found



   Cartesian axes

     site n.     atom                  positions (alat units)
         1           Na  tau(   1) = (   0.0000000   0.0000000   0.0000000  )

     number of k points=  1568  Marzari-Vanderbilt smearing, width (Ry)=  0.0200

     Number of k-points >= 100: set verbosity='high' to print them.

     Dense  grid:    19477 G-vectors     FFT dimensions: (  40,  40,  40)

     Smooth grid:     6963 G-vectors     FFT dimensions: (  25,  25,  25)

     Estimated max dynamical RAM per process >       1.99MB

     Estimated total allocated dynamical RAM >       7.97MB

     The potential is recalculated from file :
     ./_ph0/na.bcc.save/charge-density.dat

     Starting wfc are    5 atomic +    4 random wfc

     Band Structure Calculation
     Davidson diagonalization with overlap

     ethr =  1.11E-10,  avg # of iterations = 19.4

     total cpu time spent up to now is      100.1 secs

     End of band structure calculation

     Number of k-points >= 100: set verbosity='high' to print the bands.

     the Fermi energy is     2.5788 ev

     Writing output data file na.bcc.save

                                                                                

     bravais-lattice index     =            3
     lattice parameter (alat)  =       7.4109  a.u.
     unit-cell volume          =     203.5084 (a.u.)^3
     number of atoms/cell      =            1
     number of atomic types    =            1
     kinetic-energy cut-off    =      40.0000  Ry
     charge density cut-off    =     320.0000  Ry
     convergence threshold     =      1.0E-12
     beta                      =       0.7000
     number of iterations used =            4
     Exchange-correlation      = SLA  PW   PBE  PBE ( 1  4  3  4 0 0)


     celldm(1)=    7.41090  celldm(2)=    0.00000  celldm(3)=    0.00000
     celldm(4)=    0.00000  celldm(5)=    0.00000  celldm(6)=    0.00000

     crystal axes: (cart. coord. in units of alat)
               a(1) = (  0.5000  0.5000  0.5000 )  
               a(2) = ( -0.5000  0.5000  0.5000 )  
               a(3) = ( -0.5000 -0.5000  0.5000 )  

     reciprocal axes: (cart. coord. in units 2 pi/alat)
               b(1) = (  1.0000  0.0000  1.0000 )  
               b(2) = ( -1.0000  1.0000  0.0000 )  
               b(3) = (  0.0000 -1.0000  1.0000 )  


     Atoms inside the unit cell: 

     Cartesian axes

     site n.  atom      mass           positions (alat units)
        1     Na  22.9900   tau(    1) = (    0.00000    0.00000    0.00000  )

     Computing dynamical matrix for 
                    q = (   0.0000000  -0.3750000   0.3750000 )

      4 Sym.Ops. (no q -> -q+G )


     G cutoff =  445.1760  (   4869 G-vectors)     FFT grid: ( 40, 40, 40)
     G cutoff =  222.5880  (   1742 G-vectors)  smooth grid: ( 25, 25, 25)

     number of k points=  1568  Marzari-Vanderbilt smearing, width (Ry)=  0.0200

     PseudoPot. # 1 for Na read from file:
     /home/s1333534/quantum_espresso/qe-6.1/pseudo/Na_pbe_v1.uspp.F.UPF
     MD5 check sum: 76a99c7e9422403d3e93cbc85ab7bccb
     Pseudo is Ultrasoft, Zval =  9.0
     Generated by new atomic code, or converted to UPF format
     Using radial grid of  819 points,  5 beta functions with: 
                l(1) =   0
                l(2) =   0
                l(3) =   1
                l(4) =   1
                l(5) =   2
     Q(r) pseudized with  8 coefficients,  rinner =    1.250   1.250   1.250
                                                       1.250   1.250

     Mode symmetry, C_2v (mm2)  point group:


     Atomic displacements:
     There are   3 irreducible representations

     Representation     1      1 modes -A_1  D_1  S_1  To be done

     Representation     2      1 modes -B_1  D_3  S_3  To be done

     Representation     3      1 modes -B_2  D_4  S_4  To be done



     Alpha used in Ewald sum =   2.8000
     PHONON       :  4m59.33s CPU     5m25.52s WALL



     Representation #  1 mode #   1

     Self-consistent Calculation

      iter #   1 total cpu time :   330.6 secs   av.it.:   5.7
      thresh= 1.000E-02 alpha_mix =  0.700 |ddv_scf|^2 =  3.618E-04

      iter #   2 total cpu time :   335.6 secs   av.it.:   6.7
      thresh= 1.902E-03 alpha_mix =  0.700 |ddv_scf|^2 =  9.993E-04

      iter #   3 total cpu time :   340.2 secs   av.it.:   6.1
      thresh= 3.161E-03 alpha_mix =  0.700 |ddv_scf|^2 =  4.210E-07

      iter #   4 total cpu time :   345.8 secs   av.it.:   7.7
      thresh= 6.488E-05 alpha_mix =  0.700 |ddv_scf|^2 =  1.290E-08

      iter #   5 total cpu time :   351.5 secs   av.it.:   8.1
      thresh= 1.136E-05 alpha_mix =  0.700 |ddv_scf|^2 =  4.951E-10

      iter #   6 total cpu time :   357.2 secs   av.it.:   8.0
      thresh= 2.225E-06 alpha_mix =  0.700 |ddv_scf|^2 =  1.969E-11

      iter #   7 total cpu time :   363.0 secs   av.it.:   7.6
      thresh= 4.437E-07 alpha_mix =  0.700 |ddv_scf|^2 =  1.119E-12

      iter #   8 total cpu time :   368.7 secs   av.it.:   8.0
      thresh= 1.058E-07 alpha_mix =  0.700 |ddv_scf|^2 =  1.439E-14

     End of self-consistent calculation

     Convergence has been achieved 


     Representation #  2 mode #   2

     Self-consistent Calculation

      iter #   1 total cpu time :   373.8 secs   av.it.:   5.5
      thresh= 1.000E-02 alpha_mix =  0.700 |ddv_scf|^2 =  1.544E-05

      iter #   2 total cpu time :   379.2 secs   av.it.:   7.6
      thresh= 3.930E-04 alpha_mix =  0.700 |ddv_scf|^2 =  2.670E-07

      iter #   3 total cpu time :   384.8 secs   av.it.:   7.8
      thresh= 5.167E-05 alpha_mix =  0.700 |ddv_scf|^2 =  6.331E-09

      iter #   4 total cpu time :   390.1 secs   av.it.:   7.3
      thresh= 7.957E-06 alpha_mix =  0.700 |ddv_scf|^2 =  2.162E-11

      iter #   5 total cpu time :   395.5 secs   av.it.:   7.6
      thresh= 4.650E-07 alpha_mix =  0.700 |ddv_scf|^2 =  3.249E-14

     End of self-consistent calculation

     Convergence has been achieved 


     Representation #  3 mode #   3

     Self-consistent Calculation

      iter #   1 total cpu time :   400.6 secs   av.it.:   5.5
      thresh= 1.000E-02 alpha_mix =  0.700 |ddv_scf|^2 =  1.732E-05

      iter #   2 total cpu time :   406.1 secs   av.it.:   7.6
      thresh= 4.162E-04 alpha_mix =  0.700 |ddv_scf|^2 =  2.620E-07

      iter #   3 total cpu time :   411.6 secs   av.it.:   7.7
      thresh= 5.119E-05 alpha_mix =  0.700 |ddv_scf|^2 =  1.196E-08

      iter #   4 total cpu time :   416.9 secs   av.it.:   7.3
      thresh= 1.094E-05 alpha_mix =  0.700 |ddv_scf|^2 =  4.207E-11

      iter #   5 total cpu time :   422.4 secs   av.it.:   7.6
      thresh= 6.486E-07 alpha_mix =  0.700 |ddv_scf|^2 =  4.596E-14

     End of self-consistent calculation

     Convergence has been achieved 

     Number of q in the star =   12
     List of q in the star:
          1   0.000000000  -0.375000000   0.375000000
          2   0.375000000   0.000000000   0.375000000
          3  -0.375000000   0.000000000   0.375000000
          4   0.000000000   0.375000000   0.375000000
          5   0.375000000  -0.375000000   0.000000000
          6  -0.375000000   0.000000000  -0.375000000
          7   0.375000000   0.000000000  -0.375000000
          8   0.000000000  -0.375000000  -0.375000000
          9  -0.375000000  -0.375000000   0.000000000
         10  -0.375000000   0.375000000   0.000000000
         11   0.375000000   0.375000000   0.000000000
         12   0.000000000   0.375000000  -0.375000000

     Diagonalizing the dynamical matrix

     q = (    0.000000000  -0.375000000   0.375000000 ) 

 **************************************************************************
     freq (    1) =       1.448668 [THz] =      48.322364 [cm-1]
     freq (    2) =       2.881059 [THz] =      96.101769 [cm-1]
     freq (    3) =       4.918707 [THz] =     164.070409 [cm-1]
 **************************************************************************

     Mode symmetry, C_2v (mm2)  point group:

     freq (  1 -  1) =         48.3  [cm-1]   --> B_1  D_3  S_3      
     freq (  2 -  2) =         96.1  [cm-1]   --> B_2  D_4  S_4      
     freq (  3 -  3) =        164.1  [cm-1]   --> A_1  D_1  S_1      

     Calculation of q =    0.0000000   0.5000000  -0.5000000

   Info: using nr1, nr2, nr3 values from input

   Info: using nr1, nr2, nr3 values from input

     Parallelization info
     --------------------
     sticks:   dense  smooth     PW     G-vecs:    dense   smooth      PW
     Min         245     121     43                 4868     1740     375
     Max         246     122     44                 4870     1742     378
     Sum         981     487    173                19477     6963    1505



     bravais-lattice index     =            3
     lattice parameter (alat)  =       7.4109  a.u.
     unit-cell volume          =     203.5084 (a.u.)^3
     number of atoms/cell      =            1
     number of atomic types    =            1
     number of electrons       =         9.00
     number of Kohn-Sham states=            9
     kinetic-energy cutoff     =      40.0000  Ry
     charge density cutoff     =     320.0000  Ry
     Exchange-correlation      = SLA  PW   PBE  PBE ( 1  4  3  4 0 0)

     celldm(1)=   7.410897  celldm(2)=   0.000000  celldm(3)=   0.000000
     celldm(4)=   0.000000  celldm(5)=   0.000000  celldm(6)=   0.000000

     crystal axes: (cart. coord. in units of alat)
               a(1) = (   0.500000   0.500000   0.500000 )  
               a(2) = (  -0.500000   0.500000   0.500000 )  
               a(3) = (  -0.500000  -0.500000   0.500000 )  

     reciprocal axes: (cart. coord. in units 2 pi/alat)
               b(1) = (  1.000000  0.000000  1.000000 )  
               b(2) = ( -1.000000  1.000000  0.000000 )  
               b(3) = (  0.000000 -1.000000  1.000000 )  


     PseudoPot. # 1 for Na read from file:
     /home/s1333534/quantum_espresso/qe-6.1/pseudo/Na_pbe_v1.uspp.F.UPF
     MD5 check sum: 76a99c7e9422403d3e93cbc85ab7bccb
     Pseudo is Ultrasoft, Zval =  9.0
     Generated by new atomic code, or converted to UPF format
     Using radial grid of  819 points,  5 beta functions with: 
                l(1) =   0
                l(2) =   0
                l(3) =   1
                l(4) =   1
                l(5) =   2
     Q(r) pseudized with  8 coefficients,  rinner =    1.250   1.250   1.250
                                                       1.250   1.250

     atomic species   valence    mass     pseudopotential
        Na             9.00    22.99000     Na( 1.00)

     48 Sym. Ops., with inversion, found



   Cartesian axes

     site n.     atom                  positions (alat units)
         1           Na  tau(   1) = (   0.0000000   0.0000000   0.0000000  )

     number of k points=   840  Marzari-Vanderbilt smearing, width (Ry)=  0.0200

     Number of k-points >= 100: set verbosity='high' to print them.

     Dense  grid:    19477 G-vectors     FFT dimensions: (  40,  40,  40)

     Smooth grid:     6963 G-vectors     FFT dimensions: (  25,  25,  25)

     Estimated max dynamical RAM per process >       1.99MB

     Estimated total allocated dynamical RAM >       7.97MB

     The potential is recalculated from file :
     ./_ph0/na.bcc.save/charge-density.dat

     Starting wfc are    5 atomic +    4 random wfc

     Band Structure Calculation
     Davidson diagonalization with overlap

     ethr =  1.11E-10,  avg # of iterations = 19.4

     total cpu time spent up to now is      118.9 secs

     End of band structure calculation

     Number of k-points >= 100: set verbosity='high' to print the bands.

     the Fermi energy is     2.5788 ev

     Writing output data file na.bcc.save

                                                                                

     bravais-lattice index     =            3
     lattice parameter (alat)  =       7.4109  a.u.
     unit-cell volume          =     203.5084 (a.u.)^3
     number of atoms/cell      =            1
     number of atomic types    =            1
     kinetic-energy cut-off    =      40.0000  Ry
     charge density cut-off    =     320.0000  Ry
     convergence threshold     =      1.0E-12
     beta                      =       0.7000
     number of iterations used =            4
     Exchange-correlation      = SLA  PW   PBE  PBE ( 1  4  3  4 0 0)


     celldm(1)=    7.41090  celldm(2)=    0.00000  celldm(3)=    0.00000
     celldm(4)=    0.00000  celldm(5)=    0.00000  celldm(6)=    0.00000

     crystal axes: (cart. coord. in units of alat)
               a(1) = (  0.5000  0.5000  0.5000 )  
               a(2) = ( -0.5000  0.5000  0.5000 )  
               a(3) = ( -0.5000 -0.5000  0.5000 )  

     reciprocal axes: (cart. coord. in units 2 pi/alat)
               b(1) = (  1.0000  0.0000  1.0000 )  
               b(2) = ( -1.0000  1.0000  0.0000 )  
               b(3) = (  0.0000 -1.0000  1.0000 )  


     Atoms inside the unit cell: 

     Cartesian axes

     site n.  atom      mass           positions (alat units)
        1     Na  22.9900   tau(    1) = (    0.00000    0.00000    0.00000  )

     Computing dynamical matrix for 
                    q = (   0.0000000   0.5000000  -0.5000000 )

      9 Sym.Ops. (with q -> -q+G )


     G cutoff =  445.1760  (   4870 G-vectors)     FFT grid: ( 40, 40, 40)
     G cutoff =  222.5880  (   1742 G-vectors)  smooth grid: ( 25, 25, 25)

     number of k points=   840  Marzari-Vanderbilt smearing, width (Ry)=  0.0200

     PseudoPot. # 1 for Na read from file:
     /home/s1333534/quantum_espresso/qe-6.1/pseudo/Na_pbe_v1.uspp.F.UPF
     MD5 check sum: 76a99c7e9422403d3e93cbc85ab7bccb
     Pseudo is Ultrasoft, Zval =  9.0
     Generated by new atomic code, or converted to UPF format
     Using radial grid of  819 points,  5 beta functions with: 
                l(1) =   0
                l(2) =   0
                l(3) =   1
                l(4) =   1
                l(5) =   2
     Q(r) pseudized with  8 coefficients,  rinner =    1.250   1.250   1.250
                                                       1.250   1.250

     Mode symmetry, D_2h (mmm)  point group:


     Atomic displacements:
     There are   3 irreducible representations

     Representation     1      1 modes -B_1u  To be done

     Representation     2      1 modes -B_2u  To be done

     Representation     3      1 modes -B_3u  To be done



     Alpha used in Ewald sum =   2.8000
     PHONON       :  6m46.11s CPU     7m22.29s WALL



     Representation #  1 mode #   1

     Self-consistent Calculation

      iter #   1 total cpu time :   445.0 secs   av.it.:   5.5
      thresh= 1.000E-02 alpha_mix =  0.700 |ddv_scf|^2 =  1.782E-05

      iter #   2 total cpu time :   447.9 secs   av.it.:   7.5
      thresh= 4.222E-04 alpha_mix =  0.700 |ddv_scf|^2 =  2.591E-07

      iter #   3 total cpu time :   450.9 secs   av.it.:   7.7
      thresh= 5.090E-05 alpha_mix =  0.700 |ddv_scf|^2 =  1.375E-08

      iter #   4 total cpu time :   453.8 secs   av.it.:   7.1
      thresh= 1.172E-05 alpha_mix =  0.700 |ddv_scf|^2 =  4.849E-11

      iter #   5 total cpu time :   456.7 secs   av.it.:   7.5
      thresh= 6.963E-07 alpha_mix =  0.700 |ddv_scf|^2 =  4.854E-14

     End of self-consistent calculation

     Convergence has been achieved 


     Representation #  2 mode #   2

     Self-consistent Calculation

      iter #   1 total cpu time :   459.5 secs   av.it.:   5.5
      thresh= 1.000E-02 alpha_mix =  0.700 |ddv_scf|^2 =  1.560E-05

      iter #   2 total cpu time :   462.5 secs   av.it.:   7.6
      thresh= 3.950E-04 alpha_mix =  0.700 |ddv_scf|^2 =  2.638E-07

      iter #   3 total cpu time :   465.5 secs   av.it.:   7.7
      thresh= 5.136E-05 alpha_mix =  0.700 |ddv_scf|^2 =  6.924E-09

      iter #   4 total cpu time :   468.3 secs   av.it.:   7.1
      thresh= 8.321E-06 alpha_mix =  0.700 |ddv_scf|^2 =  2.278E-11

      iter #   5 total cpu time :   471.2 secs   av.it.:   7.5
      thresh= 4.773E-07 alpha_mix =  0.700 |ddv_scf|^2 =  2.998E-14

     End of self-consistent calculation

     Convergence has been achieved 


     Representation #  3 mode #   3

     Self-consistent Calculation

      iter #   1 total cpu time :   474.3 secs   av.it.:   5.6
      thresh= 1.000E-02 alpha_mix =  0.700 |ddv_scf|^2 =  1.359E-04

      iter #   2 total cpu time :   477.0 secs   av.it.:   6.7
      thresh= 1.166E-03 alpha_mix =  0.700 |ddv_scf|^2 =  6.372E-05

      iter #   3 total cpu time :   479.7 secs   av.it.:   6.5
      thresh= 7.983E-04 alpha_mix =  0.700 |ddv_scf|^2 =  9.864E-08

      iter #   4 total cpu time :   482.7 secs   av.it.:   7.6
      thresh= 3.141E-05 alpha_mix =  0.700 |ddv_scf|^2 =  3.251E-10

      iter #   5 total cpu time :   485.3 secs   av.it.:   6.5
      thresh= 1.803E-06 alpha_mix =  0.700 |ddv_scf|^2 =  6.459E-12

      iter #   6 total cpu time :   488.0 secs   av.it.:   6.6
      thresh= 2.541E-07 alpha_mix =  0.700 |ddv_scf|^2 =  2.230E-14

     End of self-consistent calculation

     Convergence has been achieved 

     Number of q in the star =    6
     List of q in the star:
          1   0.000000000   0.500000000  -0.500000000
          2  -0.500000000   0.500000000   0.000000000
          3   0.500000000   0.000000000   0.500000000
          4   0.500000000   0.000000000  -0.500000000
          5   0.000000000   0.500000000   0.500000000
          6   0.500000000   0.500000000   0.000000000

     Diagonalizing the dynamical matrix

     q = (    0.000000000   0.500000000  -0.500000000 ) 

 **************************************************************************
     freq (    1) =       1.347724 [THz] =      44.955225 [cm-1]
     freq (    2) =       3.063214 [THz] =     102.177808 [cm-1]
     freq (    3) =       5.316812 [THz] =     177.349746 [cm-1]
 **************************************************************************

     Mode symmetry, D_2h (mmm)  point group:

     freq (  1 -  1) =         45.0  [cm-1]   --> B_2u               
     freq (  2 -  2) =        102.2  [cm-1]   --> B_1u               
     freq (  3 -  3) =        177.3  [cm-1]   --> B_3u               

     Calculation of q =   -0.1250000  -0.1250000   0.2500000

   Info: using nr1, nr2, nr3 values from input

   Info: using nr1, nr2, nr3 values from input

     Parallelization info
     --------------------
     sticks:   dense  smooth     PW     G-vecs:    dense   smooth      PW
     Min         245     121     43                 4869     1740     358
     Max         246     122     44                 4870     1742     359
     Sum         981     487    173                19477     6963    1433



     bravais-lattice index     =            3
     lattice parameter (alat)  =       7.4109  a.u.
     unit-cell volume          =     203.5084 (a.u.)^3
     number of atoms/cell      =            1
     number of atomic types    =            1
     number of electrons       =         9.00
     number of Kohn-Sham states=            9
     kinetic-energy cutoff     =      40.0000  Ry
     charge density cutoff     =     320.0000  Ry
     Exchange-correlation      = SLA  PW   PBE  PBE ( 1  4  3  4 0 0)

     celldm(1)=   7.410897  celldm(2)=   0.000000  celldm(3)=   0.000000
     celldm(4)=   0.000000  celldm(5)=   0.000000  celldm(6)=   0.000000

     crystal axes: (cart. coord. in units of alat)
               a(1) = (   0.500000   0.500000   0.500000 )  
               a(2) = (  -0.500000   0.500000   0.500000 )  
               a(3) = (  -0.500000  -0.500000   0.500000 )  

     reciprocal axes: (cart. coord. in units 2 pi/alat)
               b(1) = (  1.000000  0.000000  1.000000 )  
               b(2) = ( -1.000000  1.000000  0.000000 )  
               b(3) = (  0.000000 -1.000000  1.000000 )  


     PseudoPot. # 1 for Na read from file:
     /home/s1333534/quantum_espresso/qe-6.1/pseudo/Na_pbe_v1.uspp.F.UPF
     MD5 check sum: 76a99c7e9422403d3e93cbc85ab7bccb
     Pseudo is Ultrasoft, Zval =  9.0
     Generated by new atomic code, or converted to UPF format
     Using radial grid of  819 points,  5 beta functions with: 
                l(1) =   0
                l(2) =   0
                l(3) =   1
                l(4) =   1
                l(5) =   2
     Q(r) pseudized with  8 coefficients,  rinner =    1.250   1.250   1.250
                                                       1.250   1.250

     atomic species   valence    mass     pseudopotential
        Na             9.00    22.99000     Na( 1.00)

     48 Sym. Ops., with inversion, found



   Cartesian axes

     site n.     atom                  positions (alat units)
         1           Na  tau(   1) = (   0.0000000   0.0000000   0.0000000  )

     number of k points=  2940  Marzari-Vanderbilt smearing, width (Ry)=  0.0200

     Number of k-points >= 100: set verbosity='high' to print them.

     Dense  grid:    19477 G-vectors     FFT dimensions: (  40,  40,  40)

     Smooth grid:     6963 G-vectors     FFT dimensions: (  25,  25,  25)

     Estimated max dynamical RAM per process >       1.99MB

     Estimated total allocated dynamical RAM >       7.97MB

     The potential is recalculated from file :
     ./_ph0/na.bcc.save/charge-density.dat

     Starting wfc are    5 atomic +    4 random wfc

     Band Structure Calculation
     Davidson diagonalization with overlap

     ethr =  1.11E-10,  avg # of iterations = 19.5

     total cpu time spent up to now is      180.9 secs

     End of band structure calculation

     Number of k-points >= 100: set verbosity='high' to print the bands.

     the Fermi energy is     2.5788 ev

     Writing output data file na.bcc.save

                                                                                

     bravais-lattice index     =            3
     lattice parameter (alat)  =       7.4109  a.u.
     unit-cell volume          =     203.5084 (a.u.)^3
     number of atoms/cell      =            1
     number of atomic types    =            1
     kinetic-energy cut-off    =      40.0000  Ry
     charge density cut-off    =     320.0000  Ry
     convergence threshold     =      1.0E-12
     beta                      =       0.7000
     number of iterations used =            4
     Exchange-correlation      = SLA  PW   PBE  PBE ( 1  4  3  4 0 0)


     celldm(1)=    7.41090  celldm(2)=    0.00000  celldm(3)=    0.00000
     celldm(4)=    0.00000  celldm(5)=    0.00000  celldm(6)=    0.00000

     crystal axes: (cart. coord. in units of alat)
               a(1) = (  0.5000  0.5000  0.5000 )  
               a(2) = ( -0.5000  0.5000  0.5000 )  
               a(3) = ( -0.5000 -0.5000  0.5000 )  

     reciprocal axes: (cart. coord. in units 2 pi/alat)
               b(1) = (  1.0000  0.0000  1.0000 )  
               b(2) = ( -1.0000  1.0000  0.0000 )  
               b(3) = (  0.0000 -1.0000  1.0000 )  


     Atoms inside the unit cell: 

     Cartesian axes

     site n.  atom      mass           positions (alat units)
        1     Na  22.9900   tau(    1) = (    0.00000    0.00000    0.00000  )

     Computing dynamical matrix for 
                    q = (  -0.1250000  -0.1250000   0.2500000 )

      2 Sym.Ops. (no q -> -q+G )


     G cutoff =  445.1760  (   4869 G-vectors)     FFT grid: ( 40, 40, 40)
     G cutoff =  222.5880  (   1742 G-vectors)  smooth grid: ( 25, 25, 25)

     number of k points=  2940  Marzari-Vanderbilt smearing, width (Ry)=  0.0200

     PseudoPot. # 1 for Na read from file:
     /home/s1333534/quantum_espresso/qe-6.1/pseudo/Na_pbe_v1.uspp.F.UPF
     MD5 check sum: 76a99c7e9422403d3e93cbc85ab7bccb
     Pseudo is Ultrasoft, Zval =  9.0
     Generated by new atomic code, or converted to UPF format
     Using radial grid of  819 points,  5 beta functions with: 
                l(1) =   0
                l(2) =   0
                l(3) =   1
                l(4) =   1
                l(5) =   2
     Q(r) pseudized with  8 coefficients,  rinner =    1.250   1.250   1.250
                                                       1.250   1.250

     Mode symmetry, C_s (m)     point group:


     Atomic displacements:
     There are   3 irreducible representations

     Representation     1      1 modes -A'  To be done

     Representation     2      1 modes -A'  To be done

     Representation     3      1 modes -A''  To be done



     Alpha used in Ewald sum =   2.8000
     PHONON       :  8m31.61s CPU     9m16.26s WALL



     Representation #  1 mode #   1

     Self-consistent Calculation

      iter #   1 total cpu time :   565.6 secs   av.it.:   5.6
      thresh= 1.000E-02 alpha_mix =  0.700 |ddv_scf|^2 =  8.174E-04

      iter #   2 total cpu time :   574.9 secs   av.it.:   6.7
      thresh= 2.859E-03 alpha_mix =  0.700 |ddv_scf|^2 =  3.325E-02

      iter #   3 total cpu time :   582.4 secs   av.it.:   4.9
      thresh= 1.000E-02 alpha_mix =  0.700 |ddv_scf|^2 =  3.633E-07

      iter #   4 total cpu time :   594.6 secs   av.it.:   7.9
      thresh= 6.028E-05 alpha_mix =  0.700 |ddv_scf|^2 =  6.932E-09

      iter #   5 total cpu time :   604.9 secs   av.it.:   7.8
      thresh= 8.326E-06 alpha_mix =  0.700 |ddv_scf|^2 =  6.970E-10

      iter #   6 total cpu time :   615.1 secs   av.it.:   7.6
      thresh= 2.640E-06 alpha_mix =  0.700 |ddv_scf|^2 =  1.465E-09

      iter #   7 total cpu time :   622.7 secs   av.it.:   5.2
      thresh= 3.827E-06 alpha_mix =  0.700 |ddv_scf|^2 =  9.234E-11

      iter #   8 total cpu time :   632.7 secs   av.it.:   7.3
      thresh= 9.610E-07 alpha_mix =  0.700 |ddv_scf|^2 =  4.506E-11

      iter #   9 total cpu time :   641.6 secs   av.it.:   6.5
      thresh= 6.712E-07 alpha_mix =  0.700 |ddv_scf|^2 =  5.537E-12

      iter #  10 total cpu time :   651.3 secs   av.it.:   7.2
      thresh= 2.353E-07 alpha_mix =  0.700 |ddv_scf|^2 =  3.152E-14

     End of self-consistent calculation

     Convergence has been achieved 


     Representation #  2 mode #   2

     Self-consistent Calculation

      iter #   1 total cpu time :   661.6 secs   av.it.:   5.7
      thresh= 1.000E-02 alpha_mix =  0.700 |ddv_scf|^2 =  7.244E-03

      iter #   2 total cpu time :   670.3 secs   av.it.:   6.2
      thresh= 8.511E-03 alpha_mix =  0.700 |ddv_scf|^2 =  2.994E-01

      iter #   3 total cpu time :   678.9 secs   av.it.:   6.0
      thresh= 1.000E-02 alpha_mix =  0.700 |ddv_scf|^2 =  3.748E-06

      iter #   4 total cpu time :   688.8 secs   av.it.:   7.3
      thresh= 1.936E-04 alpha_mix =  0.700 |ddv_scf|^2 =  3.375E-08

      iter #   5 total cpu time :   699.9 secs   av.it.:   7.7
      thresh= 1.837E-05 alpha_mix =  0.700 |ddv_scf|^2 =  2.625E-09

      iter #   6 total cpu time :   710.0 secs   av.it.:   7.6
      thresh= 5.123E-06 alpha_mix =  0.700 |ddv_scf|^2 =  5.090E-10

      iter #   7 total cpu time :   719.6 secs   av.it.:   7.0
      thresh= 2.256E-06 alpha_mix =  0.700 |ddv_scf|^2 =  4.191E-09

      iter #   8 total cpu time :   728.1 secs   av.it.:   5.9
      thresh= 6.473E-06 alpha_mix =  0.700 |ddv_scf|^2 =  3.310E-12

      iter #   9 total cpu time :   737.6 secs   av.it.:   7.0
      thresh= 1.819E-07 alpha_mix =  0.700 |ddv_scf|^2 =  9.642E-14

     End of self-consistent calculation

     Convergence has been achieved 


     Representation #  3 mode #   3

     Self-consistent Calculation

      iter #   1 total cpu time :   747.1 secs   av.it.:   5.5
      thresh= 1.000E-02 alpha_mix =  0.700 |ddv_scf|^2 =  1.617E-05

      iter #   2 total cpu time :   757.3 secs   av.it.:   7.6
      thresh= 4.021E-04 alpha_mix =  0.700 |ddv_scf|^2 =  2.645E-07

      iter #   3 total cpu time :   767.7 secs   av.it.:   7.9
      thresh= 5.143E-05 alpha_mix =  0.700 |ddv_scf|^2 =  8.378E-09

      iter #   4 total cpu time :   777.9 secs   av.it.:   7.5
      thresh= 9.153E-06 alpha_mix =  0.700 |ddv_scf|^2 =  4.266E-11

      iter #   5 total cpu time :   788.2 secs   av.it.:   7.5
      thresh= 6.531E-07 alpha_mix =  0.700 |ddv_scf|^2 =  4.636E-14

     End of self-consistent calculation

     Convergence has been achieved 

     Number of q in the star =   24
     List of q in the star:
          1  -0.125000000  -0.125000000   0.250000000
          2  -0.125000000  -0.250000000   0.125000000
          3   0.125000000  -0.250000000   0.125000000
          4  -0.125000000   0.125000000  -0.250000000
          5  -0.125000000   0.250000000  -0.125000000
          6   0.125000000   0.125000000  -0.250000000
          7   0.125000000   0.250000000  -0.125000000
          8   0.125000000  -0.250000000  -0.125000000
          9  -0.250000000   0.125000000  -0.125000000
         10   0.250000000   0.125000000   0.125000000
         11   0.125000000   0.125000000   0.250000000
         12  -0.250000000  -0.125000000   0.125000000
         13   0.250000000  -0.125000000  -0.125000000
         14   0.125000000  -0.125000000  -0.250000000
         15   0.125000000  -0.125000000   0.250000000
         16   0.125000000   0.250000000   0.125000000
         17  -0.125000000  -0.125000000  -0.250000000
         18  -0.125000000   0.125000000   0.250000000
         19  -0.125000000   0.250000000   0.125000000
         20  -0.125000000  -0.250000000  -0.125000000
         21   0.250000000   0.125000000  -0.125000000
         22  -0.250000000   0.125000000   0.125000000
         23   0.250000000  -0.125000000   0.125000000
         24  -0.250000000  -0.125000000  -0.125000000

     Diagonalizing the dynamical matrix

     q = (   -0.125000000  -0.125000000   0.250000000 ) 

 **************************************************************************
     freq (    1) =       1.862110 [THz] =      62.113310 [cm-1]
     freq (    2) =       2.051045 [THz] =      68.415488 [cm-1]
     freq (    3) =       3.548259 [THz] =     118.357179 [cm-1]
 **************************************************************************

     Mode symmetry, C_s (m)     point group:

     freq (  1 -  1) =         62.1  [cm-1]   --> A'                 
     freq (  2 -  2) =         68.4  [cm-1]   --> A''                
     freq (  3 -  3) =        118.4  [cm-1]   --> A'                 

     Calculation of q =   -0.1250000  -0.2500000   0.3750000

   Info: using nr1, nr2, nr3 values from input

   Info: using nr1, nr2, nr3 values from input

     Parallelization info
     --------------------
     sticks:   dense  smooth     PW     G-vecs:    dense   smooth      PW
     Min         245     121     43                 4869     1740     369
     Max         246     122     44                 4870     1742     372
     Sum         981     487    173                19477     6963    1481



     bravais-lattice index     =            3
     lattice parameter (alat)  =       7.4109  a.u.
     unit-cell volume          =     203.5084 (a.u.)^3
     number of atoms/cell      =            1
     number of atomic types    =            1
     number of electrons       =         9.00
     number of Kohn-Sham states=            9
     kinetic-energy cutoff     =      40.0000  Ry
     charge density cutoff     =     320.0000  Ry
     Exchange-correlation      = SLA  PW   PBE  PBE ( 1  4  3  4 0 0)

     celldm(1)=   7.410897  celldm(2)=   0.000000  celldm(3)=   0.000000
     celldm(4)=   0.000000  celldm(5)=   0.000000  celldm(6)=   0.000000

     crystal axes: (cart. coord. in units of alat)
               a(1) = (   0.500000   0.500000   0.500000 )  
               a(2) = (  -0.500000   0.500000   0.500000 )  
               a(3) = (  -0.500000  -0.500000   0.500000 )  

     reciprocal axes: (cart. coord. in units 2 pi/alat)
               b(1) = (  1.000000  0.000000  1.000000 )  
               b(2) = ( -1.000000  1.000000  0.000000 )  
               b(3) = (  0.000000 -1.000000  1.000000 )  


     PseudoPot. # 1 for Na read from file:
     /home/s1333534/quantum_espresso/qe-6.1/pseudo/Na_pbe_v1.uspp.F.UPF
     MD5 check sum: 76a99c7e9422403d3e93cbc85ab7bccb
     Pseudo is Ultrasoft, Zval =  9.0
     Generated by new atomic code, or converted to UPF format
     Using radial grid of  819 points,  5 beta functions with: 
                l(1) =   0
                l(2) =   0
                l(3) =   1
                l(4) =   1
                l(5) =   2
     Q(r) pseudized with  8 coefficients,  rinner =    1.250   1.250   1.250
                                                       1.250   1.250

     atomic species   valence    mass     pseudopotential
        Na             9.00    22.99000     Na( 1.00)

     48 Sym. Ops., with inversion, found



   Cartesian axes

     site n.     atom                  positions (alat units)
         1           Na  tau(   1) = (   0.0000000   0.0000000   0.0000000  )

     number of k points=  5488  Marzari-Vanderbilt smearing, width (Ry)=  0.0200

     Number of k-points >= 100: set verbosity='high' to print them.

     Dense  grid:    19477 G-vectors     FFT dimensions: (  40,  40,  40)

     Smooth grid:     6963 G-vectors     FFT dimensions: (  25,  25,  25)

     Estimated max dynamical RAM per process >       1.99MB

     Estimated total allocated dynamical RAM >       7.97MB

     The potential is recalculated from file :
     ./_ph0/na.bcc.save/charge-density.dat

     Starting wfc are    5 atomic +    4 random wfc

     Band Structure Calculation
     Davidson diagonalization with overlap

     ethr =  1.11E-10,  avg # of iterations = 19.3

     total cpu time spent up to now is      298.5 secs

     End of band structure calculation

     Number of k-points >= 100: set verbosity='high' to print the bands.

     the Fermi energy is     2.5788 ev

     Writing output data file na.bcc.save

                                                                                

     bravais-lattice index     =            3
     lattice parameter (alat)  =       7.4109  a.u.
     unit-cell volume          =     203.5084 (a.u.)^3
     number of atoms/cell      =            1
     number of atomic types    =            1
     kinetic-energy cut-off    =      40.0000  Ry
     charge density cut-off    =     320.0000  Ry
     convergence threshold     =      1.0E-12
     beta                      =       0.7000
     number of iterations used =            4
     Exchange-correlation      = SLA  PW   PBE  PBE ( 1  4  3  4 0 0)


     celldm(1)=    7.41090  celldm(2)=    0.00000  celldm(3)=    0.00000
     celldm(4)=    0.00000  celldm(5)=    0.00000  celldm(6)=    0.00000

     crystal axes: (cart. coord. in units of alat)
               a(1) = (  0.5000  0.5000  0.5000 )  
               a(2) = ( -0.5000  0.5000  0.5000 )  
               a(3) = ( -0.5000 -0.5000  0.5000 )  

     reciprocal axes: (cart. coord. in units 2 pi/alat)
               b(1) = (  1.0000  0.0000  1.0000 )  
               b(2) = ( -1.0000  1.0000  0.0000 )  
               b(3) = (  0.0000 -1.0000  1.0000 )  


     Atoms inside the unit cell: 

     Cartesian axes

     site n.  atom      mass           positions (alat units)
        1     Na  22.9900   tau(    1) = (    0.00000    0.00000    0.00000  )

     Computing dynamical matrix for 
                    q = (  -0.1250000  -0.2500000   0.3750000 )

     No symmetry!

     G cutoff =  445.1760  (   4869 G-vectors)     FFT grid: ( 40, 40, 40)
     G cutoff =  222.5880  (   1742 G-vectors)  smooth grid: ( 25, 25, 25)

     number of k points=  5488  Marzari-Vanderbilt smearing, width (Ry)=  0.0200

     PseudoPot. # 1 for Na read from file:
     /home/s1333534/quantum_espresso/qe-6.1/pseudo/Na_pbe_v1.uspp.F.UPF
     MD5 check sum: 76a99c7e9422403d3e93cbc85ab7bccb
     Pseudo is Ultrasoft, Zval =  9.0
     Generated by new atomic code, or converted to UPF format
     Using radial grid of  819 points,  5 beta functions with: 
                l(1) =   0
                l(2) =   0
                l(3) =   1
                l(4) =   1
                l(5) =   2
     Q(r) pseudized with  8 coefficients,  rinner =    1.250   1.250   1.250
                                                       1.250   1.250

     Mode symmetry, C_1 (1)     point group:


     Atomic displacements:
     There are   3 irreducible representations

     Representation     1      1 modes -A  To be done

     Representation     2      1 modes -A  To be done

     Representation     3      1 modes -A  To be done



     Alpha used in Ewald sum =   2.8000
     PHONON       : 13m59.30s CPU    15m16.38s WALL



     Representation #  1 mode #   1

     Self-consistent Calculation

      iter #   1 total cpu time :   934.1 secs   av.it.:   5.7
      thresh= 1.000E-02 alpha_mix =  0.700 |ddv_scf|^2 =  2.488E-05

      iter #   2 total cpu time :   955.6 secs   av.it.:   7.8
      thresh= 4.988E-04 alpha_mix =  0.700 |ddv_scf|^2 =  4.790E-05

      iter #   3 total cpu time :   971.9 secs   av.it.:   6.1
      thresh= 6.921E-04 alpha_mix =  0.700 |ddv_scf|^2 =  4.302E-06

      iter #   4 total cpu time :   991.0 secs   av.it.:   7.2
      thresh= 2.074E-04 alpha_mix =  0.700 |ddv_scf|^2 =  5.445E-09

      iter #   5 total cpu time :  1010.6 secs   av.it.:   7.9
      thresh= 7.379E-06 alpha_mix =  0.700 |ddv_scf|^2 =  1.490E-10

      iter #   6 total cpu time :  1030.9 secs   av.it.:   8.1
      thresh= 1.221E-06 alpha_mix =  0.700 |ddv_scf|^2 =  6.479E-12

      iter #   7 total cpu time :  1051.9 secs   av.it.:   8.3
      thresh= 2.545E-07 alpha_mix =  0.700 |ddv_scf|^2 =  1.093E-12

      iter #   8 total cpu time :  1071.3 secs   av.it.:   7.7
      thresh= 1.046E-07 alpha_mix =  0.700 |ddv_scf|^2 =  2.625E-12

      iter #   9 total cpu time :  1089.4 secs   av.it.:   6.9
      thresh= 1.620E-07 alpha_mix =  0.700 |ddv_scf|^2 =  1.819E-14

     End of self-consistent calculation

     Convergence has been achieved 


     Representation #  2 mode #   2

     Self-consistent Calculation

      iter #   1 total cpu time :  1107.7 secs   av.it.:   5.8
      thresh= 1.000E-02 alpha_mix =  0.700 |ddv_scf|^2 =  3.531E-04

      iter #   2 total cpu time :  1127.2 secs   av.it.:   7.2
      thresh= 1.879E-03 alpha_mix =  0.700 |ddv_scf|^2 =  1.847E-03

      iter #   3 total cpu time :  1142.8 secs   av.it.:   5.8
      thresh= 4.298E-03 alpha_mix =  0.700 |ddv_scf|^2 =  2.983E-07

      iter #   4 total cpu time :  1163.4 secs   av.it.:   8.1
      thresh= 5.462E-05 alpha_mix =  0.700 |ddv_scf|^2 =  7.769E-09

      iter #   5 total cpu time :  1183.5 secs   av.it.:   8.2
      thresh= 8.814E-06 alpha_mix =  0.700 |ddv_scf|^2 =  6.581E-10

      iter #   6 total cpu time :  1203.9 secs   av.it.:   8.2
      thresh= 2.565E-06 alpha_mix =  0.700 |ddv_scf|^2 =  2.054E-11

      iter #   7 total cpu time :  1223.4 secs   av.it.:   7.8
      thresh= 4.532E-07 alpha_mix =  0.700 |ddv_scf|^2 =  1.618E-12

      iter #   8 total cpu time :  1243.3 secs   av.it.:   7.8
      thresh= 1.272E-07 alpha_mix =  0.700 |ddv_scf|^2 =  1.531E-12

      iter #   9 total cpu time :  1260.6 secs   av.it.:   6.3
      thresh= 1.237E-07 alpha_mix =  0.700 |ddv_scf|^2 =  2.132E-14

     End of self-consistent calculation

     Convergence has been achieved 


     Representation #  3 mode #   3

     Self-consistent Calculation

      iter #   1 total cpu time :  1278.9 secs   av.it.:   5.8
      thresh= 1.000E-02 alpha_mix =  0.700 |ddv_scf|^2 =  3.424E-04

      iter #   2 total cpu time :  1298.9 secs   av.it.:   7.1
      thresh= 1.850E-03 alpha_mix =  0.700 |ddv_scf|^2 =  1.770E-03

      iter #   3 total cpu time :  1314.5 secs   av.it.:   5.8
      thresh= 4.207E-03 alpha_mix =  0.700 |ddv_scf|^2 =  2.304E-07

      iter #   4 total cpu time :  1335.2 secs   av.it.:   8.1
      thresh= 4.800E-05 alpha_mix =  0.700 |ddv_scf|^2 =  9.049E-09

      iter #   5 total cpu time :  1355.4 secs   av.it.:   8.3
      thresh= 9.512E-06 alpha_mix =  0.700 |ddv_scf|^2 =  4.443E-10

      iter #   6 total cpu time :  1376.0 secs   av.it.:   8.2
      thresh= 2.108E-06 alpha_mix =  0.700 |ddv_scf|^2 =  2.363E-11

      iter #   7 total cpu time :  1395.5 secs   av.it.:   7.8
      thresh= 4.861E-07 alpha_mix =  0.700 |ddv_scf|^2 =  9.147E-13

     End of self-consistent calculation

     Convergence has been achieved 

     Number of q in the star =   48
     List of q in the star:
          1  -0.125000000  -0.250000000   0.375000000
          2  -0.250000000  -0.125000000   0.375000000
          3  -0.125000000  -0.375000000   0.250000000
          4   0.125000000  -0.375000000   0.250000000
          5  -0.125000000   0.250000000  -0.375000000
          6  -0.125000000   0.375000000  -0.250000000
          7   0.125000000   0.250000000  -0.375000000
          8   0.125000000   0.375000000  -0.250000000
          9   0.250000000  -0.375000000  -0.125000000
         10  -0.375000000   0.125000000  -0.250000000
         11   0.375000000   0.125000000   0.250000000
         12   0.250000000   0.125000000   0.375000000
         13  -0.375000000  -0.125000000   0.250000000
         14   0.375000000  -0.125000000  -0.250000000
         15   0.125000000  -0.250000000  -0.375000000
         16   0.250000000  -0.125000000  -0.375000000
         17  -0.250000000   0.125000000  -0.375000000
         18  -0.375000000  -0.250000000   0.125000000
         19  -0.375000000   0.250000000  -0.125000000
         20   0.375000000   0.250000000   0.125000000
         21   0.250000000  -0.125000000   0.375000000
         22  -0.250000000   0.375000000  -0.125000000
         23   0.125000000  -0.375000000  -0.250000000
         24   0.125000000   0.375000000   0.250000000
         25   0.250000000   0.125000000  -0.375000000
         26  -0.125000000  -0.250000000  -0.375000000
         27  -0.250000000   0.125000000   0.375000000
         28  -0.125000000   0.375000000   0.250000000
         29  -0.125000000   0.250000000   0.375000000
         30   0.125000000  -0.250000000   0.375000000
         31  -0.125000000  -0.375000000  -0.250000000
         32   0.125000000   0.250000000   0.375000000
         33   0.375000000  -0.250000000  -0.125000000
         34   0.250000000   0.375000000   0.125000000
         35  -0.250000000  -0.375000000   0.125000000
         36   0.375000000   0.250000000  -0.125000000
         37  -0.375000000   0.250000000   0.125000000
         38   0.375000000  -0.250000000   0.125000000
         39  -0.375000000  -0.250000000  -0.125000000
         40  -0.250000000  -0.125000000  -0.375000000
         41   0.250000000  -0.375000000   0.125000000
         42  -0.250000000  -0.375000000  -0.125000000
         43   0.250000000   0.375000000  -0.125000000
         44  -0.250000000   0.375000000   0.125000000
         45  -0.375000000   0.125000000   0.250000000
         46  -0.375000000  -0.125000000  -0.250000000
         47   0.375000000  -0.125000000   0.250000000
         48   0.375000000   0.125000000  -0.250000000

     Diagonalizing the dynamical matrix

     q = (   -0.125000000  -0.250000000   0.375000000 ) 

 **************************************************************************
     freq (    1) =       1.854140 [THz] =      61.847455 [cm-1]
     freq (    2) =       2.962719 [THz] =      98.825667 [cm-1]
     freq (    3) =       4.633197 [THz] =     154.546826 [cm-1]
 **************************************************************************

     Mode symmetry, C_1 (1)     point group:

     freq (  1 -  1) =         61.8  [cm-1]   --> A                  
     freq (  2 -  2) =         98.8  [cm-1]   --> A                  
     freq (  3 -  3) =        154.5  [cm-1]   --> A                  

     Calculation of q =   -0.1250000   0.6250000  -0.5000000

   Info: using nr1, nr2, nr3 values from input

   Info: using nr1, nr2, nr3 values from input

     Parallelization info
     --------------------
     sticks:   dense  smooth     PW     G-vecs:    dense   smooth      PW
     Min         245     121     45                 4869     1740     400
     Max         246     122     46                 4870     1742     401
     Sum         981     487    181                19477     6963    1601



     bravais-lattice index     =            3
     lattice parameter (alat)  =       7.4109  a.u.
     unit-cell volume          =     203.5084 (a.u.)^3
     number of atoms/cell      =            1
     number of atomic types    =            1
     number of electrons       =         9.00
     number of Kohn-Sham states=            9
     kinetic-energy cutoff     =      40.0000  Ry
     charge density cutoff     =     320.0000  Ry
     Exchange-correlation      = SLA  PW   PBE  PBE ( 1  4  3  4 0 0)

     celldm(1)=   7.410897  celldm(2)=   0.000000  celldm(3)=   0.000000
     celldm(4)=   0.000000  celldm(5)=   0.000000  celldm(6)=   0.000000

     crystal axes: (cart. coord. in units of alat)
               a(1) = (   0.500000   0.500000   0.500000 )  
               a(2) = (  -0.500000   0.500000   0.500000 )  
               a(3) = (  -0.500000  -0.500000   0.500000 )  

     reciprocal axes: (cart. coord. in units 2 pi/alat)
               b(1) = (  1.000000  0.000000  1.000000 )  
               b(2) = ( -1.000000  1.000000  0.000000 )  
               b(3) = (  0.000000 -1.000000  1.000000 )  


     PseudoPot. # 1 for Na read from file:
     /home/s1333534/quantum_espresso/qe-6.1/pseudo/Na_pbe_v1.uspp.F.UPF
     MD5 check sum: 76a99c7e9422403d3e93cbc85ab7bccb
     Pseudo is Ultrasoft, Zval =  9.0
     Generated by new atomic code, or converted to UPF format
     Using radial grid of  819 points,  5 beta functions with: 
                l(1) =   0
                l(2) =   0
                l(3) =   1
                l(4) =   1
                l(5) =   2
     Q(r) pseudized with  8 coefficients,  rinner =    1.250   1.250   1.250
                                                       1.250   1.250

     atomic species   valence    mass     pseudopotential
        Na             9.00    22.99000     Na( 1.00)

     48 Sym. Ops., with inversion, found



   Cartesian axes

     site n.     atom                  positions (alat units)
         1           Na  tau(   1) = (   0.0000000   0.0000000   0.0000000  )

     number of k points=  5488  Marzari-Vanderbilt smearing, width (Ry)=  0.0200

     Number of k-points >= 100: set verbosity='high' to print them.

     Dense  grid:    19477 G-vectors     FFT dimensions: (  40,  40,  40)

     Smooth grid:     6963 G-vectors     FFT dimensions: (  25,  25,  25)

     Estimated max dynamical RAM per process >       1.99MB

     Estimated total allocated dynamical RAM >       7.97MB

     The potential is recalculated from file :
     ./_ph0/na.bcc.save/charge-density.dat

     Starting wfc are    5 atomic +    4 random wfc

     Band Structure Calculation
     Davidson diagonalization with overlap

     ethr =  1.11E-10,  avg # of iterations = 19.3

     total cpu time spent up to now is      417.3 secs

     End of band structure calculation

     Number of k-points >= 100: set verbosity='high' to print the bands.

     the Fermi energy is     2.5788 ev

     Writing output data file na.bcc.save

                                                                                

     bravais-lattice index     =            3
     lattice parameter (alat)  =       7.4109  a.u.
     unit-cell volume          =     203.5084 (a.u.)^3
     number of atoms/cell      =            1
     number of atomic types    =            1
     kinetic-energy cut-off    =      40.0000  Ry
     charge density cut-off    =     320.0000  Ry
     convergence threshold     =      1.0E-12
     beta                      =       0.7000
     number of iterations used =            4
     Exchange-correlation      = SLA  PW   PBE  PBE ( 1  4  3  4 0 0)


     celldm(1)=    7.41090  celldm(2)=    0.00000  celldm(3)=    0.00000
     celldm(4)=    0.00000  celldm(5)=    0.00000  celldm(6)=    0.00000

     crystal axes: (cart. coord. in units of alat)
[...]
     Exchange-correlation      = SLA  PW   PBE  PBE ( 1  4  3  4 0 0)


     celldm(1)=    7.41090  celldm(2)=    0.00000  celldm(3)=    0.00000
     celldm(4)=    0.00000  celldm(5)=    0.00000  celldm(6)=    0.00000

     crystal axes: (cart. coord. in units of alat)
               a(1) = (  0.5000  0.5000  0.5000 )  
               a(2) = ( -0.5000  0.5000  0.5000 )  
               a(3) = ( -0.5000 -0.5000  0.5000 )  

     reciprocal axes: (cart. coord. in units 2 pi/alat)
               b(1) = (  1.0000  0.0000  1.0000 )  
               b(2) = ( -1.0000  1.0000  0.0000 )  
               b(3) = (  0.0000 -1.0000  1.0000 )  


     Atoms inside the unit cell: 

     Cartesian axes

     site n.  atom      mass           positions (alat units)
        1     Na  22.9900   tau(    1) = (    0.00000    0.00000    0.00000  )

     Computing dynamical matrix for 
                    q = (   0.0000000   0.8750000  -0.1250000 )

      4 Sym.Ops. (no q -> -q+G )


     G cutoff =  445.1760  (   4870 G-vectors)     FFT grid: ( 40, 40, 40)
     G cutoff =  222.5880  (   1742 G-vectors)  smooth grid: ( 25, 25, 25)

     number of k points=  1568  Marzari-Vanderbilt smearing, width (Ry)=  0.0200

     PseudoPot. # 1 for Na read from file:
     /home/s1333534/quantum_espresso/qe-6.1/pseudo/Na_pbe_v1.uspp.F.UPF
     MD5 check sum: 76a99c7e9422403d3e93cbc85ab7bccb
     Pseudo is Ultrasoft, Zval =  9.0
     Generated by new atomic code, or converted to UPF format
     Using radial grid of  819 points,  5 beta functions with: 
                l(1) =   0
                l(2) =   0
                l(3) =   1
                l(4) =   1
                l(5) =   2
     Q(r) pseudized with  8 coefficients,  rinner =    1.250   1.250   1.250
                                                       1.250   1.250

     Mode symmetry, C_2v (mm2)  point group:


     Atomic displacements:
     There are   3 irreducible representations

     Representation     1      1 modes -A_1  D_1  S_1  To be done

     Representation     2      1 modes -B_1  D_3  S_3  To be done

     Representation     3      1 modes -B_2  D_4  S_4  To be done



     Alpha used in Ewald sum =   2.8000
     PHONON       :     1h28m CPU        1h37m WALL



     Representation #  1 mode #   1

     Self-consistent Calculation

      iter #   1 total cpu time :  5878.2 secs   av.it.:   5.7
      thresh= 1.000E-02 alpha_mix =  0.700 |ddv_scf|^2 =  2.932E-05

      iter #   2 total cpu time :  5883.9 secs   av.it.:   7.6
      thresh= 5.414E-04 alpha_mix =  0.700 |ddv_scf|^2 =  8.693E-07

      iter #   3 total cpu time :  5889.5 secs   av.it.:   7.6
      thresh= 9.324E-05 alpha_mix =  0.700 |ddv_scf|^2 =  3.052E-08

      iter #   4 total cpu time :  5895.3 secs   av.it.:   8.0
      thresh= 1.747E-05 alpha_mix =  0.700 |ddv_scf|^2 =  1.566E-09

      iter #   5 total cpu time :  5901.0 secs   av.it.:   8.0
      thresh= 3.958E-06 alpha_mix =  0.700 |ddv_scf|^2 =  1.194E-10

      iter #   6 total cpu time :  5907.1 secs   av.it.:   7.8
      thresh= 1.093E-06 alpha_mix =  0.700 |ddv_scf|^2 =  6.791E-13

     End of self-consistent calculation

     Convergence has been achieved 


     Representation #  2 mode #   2

     Self-consistent Calculation

      iter #   1 total cpu time :  5912.3 secs   av.it.:   5.5
      thresh= 1.000E-02 alpha_mix =  0.700 |ddv_scf|^2 =  2.660E-05

      iter #   2 total cpu time :  5917.8 secs   av.it.:   7.5
      thresh= 5.158E-04 alpha_mix =  0.700 |ddv_scf|^2 =  3.221E-07

      iter #   3 total cpu time :  5923.3 secs   av.it.:   7.5
      thresh= 5.675E-05 alpha_mix =  0.700 |ddv_scf|^2 =  2.983E-08

      iter #   4 total cpu time :  5928.9 secs   av.it.:   7.5
      thresh= 1.727E-05 alpha_mix =  0.700 |ddv_scf|^2 =  1.275E-10

      iter #   5 total cpu time :  5934.3 secs   av.it.:   7.4
      thresh= 1.129E-06 alpha_mix =  0.700 |ddv_scf|^2 =  5.407E-14

     End of self-consistent calculation

     Convergence has been achieved 


     Representation #  3 mode #   3

     Self-consistent Calculation

      iter #   1 total cpu time :  5939.6 secs   av.it.:   5.6
      thresh= 1.000E-02 alpha_mix =  0.700 |ddv_scf|^2 =  3.660E-05

      iter #   2 total cpu time :  5945.1 secs   av.it.:   7.4
      thresh= 6.050E-04 alpha_mix =  0.700 |ddv_scf|^2 =  1.493E-06

      iter #   3 total cpu time :  5950.6 secs   av.it.:   7.3
      thresh= 1.222E-04 alpha_mix =  0.700 |ddv_scf|^2 =  3.688E-08

      iter #   4 total cpu time :  5956.1 secs   av.it.:   7.6
      thresh= 1.920E-05 alpha_mix =  0.700 |ddv_scf|^2 =  1.195E-09

      iter #   5 total cpu time :  5961.5 secs   av.it.:   7.3
      thresh= 3.457E-06 alpha_mix =  0.700 |ddv_scf|^2 =  3.326E-12

      iter #   6 total cpu time :  5967.2 secs   av.it.:   7.8
      thresh= 1.824E-07 alpha_mix =  0.700 |ddv_scf|^2 =  4.420E-15

     End of self-consistent calculation

     Convergence has been achieved 

     Number of q in the star =   12
     List of q in the star:
          1   0.000000000   0.875000000  -0.125000000
          2   0.000000000  -0.875000000  -0.125000000
          3   0.875000000   0.000000000  -0.125000000
          4  -0.875000000   0.000000000  -0.125000000
          5   0.125000000   0.000000000  -0.875000000
          6   0.125000000   0.875000000   0.000000000
          7   0.000000000   0.875000000   0.125000000
          8   0.875000000   0.000000000   0.125000000
          9   0.125000000  -0.875000000   0.000000000
         10  -0.125000000  -0.875000000   0.000000000
         11   0.875000000  -0.125000000   0.000000000
         12   0.000000000  -0.875000000   0.125000000

     Diagonalizing the dynamical matrix

     q = (    0.000000000   0.875000000  -0.125000000 ) 

 **************************************************************************
     freq (    1) =       4.503971 [THz] =     150.236303 [cm-1]
     freq (    2) =       4.846035 [THz] =     161.646316 [cm-1]
     freq (    3) =       4.887740 [THz] =     163.037445 [cm-1]
 **************************************************************************

     Mode symmetry, C_2v (mm2)  point group:

     freq (  1 -  1) =        150.2  [cm-1]   --> B_1  D_3  S_3      
     freq (  2 -  2) =        161.6  [cm-1]   --> B_2  D_4  S_4      
     freq (  3 -  3) =        163.0  [cm-1]   --> A_1  D_1  S_1      

     Calculation of q =    0.0000000   0.0000000  -1.0000000

   Info: using nr1, nr2, nr3 values from input

   Info: using nr1, nr2, nr3 values from input

     Parallelization info
     --------------------
     sticks:   dense  smooth     PW     G-vecs:    dense   smooth      PW
     Min         245     121     45                 4869     1740     388
     Max         246     122     46                 4870     1742     389
     Sum         981     487    181                19477     6963    1553



     bravais-lattice index     =            3
     lattice parameter (alat)  =       7.4109  a.u.
     unit-cell volume          =     203.5084 (a.u.)^3
     number of atoms/cell      =            1
     number of atomic types    =            1
     number of electrons       =         9.00
     number of Kohn-Sham states=            9
     kinetic-energy cutoff     =      40.0000  Ry
     charge density cutoff     =     320.0000  Ry
     Exchange-correlation      = SLA  PW   PBE  PBE ( 1  4  3  4 0 0)

     celldm(1)=   7.410897  celldm(2)=   0.000000  celldm(3)=   0.000000
     celldm(4)=   0.000000  celldm(5)=   0.000000  celldm(6)=   0.000000

     crystal axes: (cart. coord. in units of alat)
               a(1) = (   0.500000   0.500000   0.500000 )  
               a(2) = (  -0.500000   0.500000   0.500000 )  
               a(3) = (  -0.500000  -0.500000   0.500000 )  

     reciprocal axes: (cart. coord. in units 2 pi/alat)
               b(1) = (  1.000000  0.000000  1.000000 )  
               b(2) = ( -1.000000  1.000000  0.000000 )  
               b(3) = (  0.000000 -1.000000  1.000000 )  


     PseudoPot. # 1 for Na read from file:
     /home/s1333534/quantum_espresso/qe-6.1/pseudo/Na_pbe_v1.uspp.F.UPF
     MD5 check sum: 76a99c7e9422403d3e93cbc85ab7bccb
     Pseudo is Ultrasoft, Zval =  9.0
     Generated by new atomic code, or converted to UPF format
     Using radial grid of  819 points,  5 beta functions with: 
                l(1) =   0
                l(2) =   0
                l(3) =   1
                l(4) =   1
                l(5) =   2
     Q(r) pseudized with  8 coefficients,  rinner =    1.250   1.250   1.250
                                                       1.250   1.250

     atomic species   valence    mass     pseudopotential
        Na             9.00    22.99000     Na( 1.00)

     48 Sym. Ops., with inversion, found



   Cartesian axes

     site n.     atom                  positions (alat units)
         1           Na  tau(   1) = (   0.0000000   0.0000000   0.0000000  )

     number of k points=   200  Marzari-Vanderbilt smearing, width (Ry)=  0.0200

     Number of k-points >= 100: set verbosity='high' to print them.

     Dense  grid:    19477 G-vectors     FFT dimensions: (  40,  40,  40)

     Smooth grid:     6963 G-vectors     FFT dimensions: (  25,  25,  25)

     Estimated max dynamical RAM per process >       1.99MB

     Estimated total allocated dynamical RAM >       7.97MB

     The potential is recalculated from file :
     ./_ph0/na.bcc.save/charge-density.dat

     Starting wfc are    5 atomic +    4 random wfc

     Band Structure Calculation
     Davidson diagonalization with overlap

     ethr =  1.11E-10,  avg # of iterations = 19.6

     total cpu time spent up to now is     1373.2 secs

     End of band structure calculation

     Number of k-points >= 100: set verbosity='high' to print the bands.

     the Fermi energy is     2.5788 ev

     Writing output data file na.bcc.save

                                                                                

     bravais-lattice index     =            3
     lattice parameter (alat)  =       7.4109  a.u.
     unit-cell volume          =     203.5084 (a.u.)^3
     number of atoms/cell      =            1
     number of atomic types    =            1
     kinetic-energy cut-off    =      40.0000  Ry
     charge density cut-off    =     320.0000  Ry
     convergence threshold     =      1.0E-12
     beta                      =       0.7000
     number of iterations used =            4
     Exchange-correlation      = SLA  PW   PBE  PBE ( 1  4  3  4 0 0)


     celldm(1)=    7.41090  celldm(2)=    0.00000  celldm(3)=    0.00000
     celldm(4)=    0.00000  celldm(5)=    0.00000  celldm(6)=    0.00000

     crystal axes: (cart. coord. in units of alat)
               a(1) = (  0.5000  0.5000  0.5000 )  
               a(2) = ( -0.5000  0.5000  0.5000 )  
               a(3) = ( -0.5000 -0.5000  0.5000 )  

     reciprocal axes: (cart. coord. in units 2 pi/alat)
               b(1) = (  1.0000  0.0000  1.0000 )  
               b(2) = ( -1.0000  1.0000  0.0000 )  
               b(3) = (  0.0000 -1.0000  1.0000 )  


     Atoms inside the unit cell: 

     Cartesian axes

     site n.  atom      mass           positions (alat units)
        1     Na  22.9900   tau(    1) = (    0.00000    0.00000    0.00000  )

     Computing dynamical matrix for 
                    q = (   0.0000000   0.0000000  -1.0000000 )

     49 Sym.Ops. (with q -> -q+G )


     G cutoff =  445.1760  (   4869 G-vectors)     FFT grid: ( 40, 40, 40)
     G cutoff =  222.5880  (   1742 G-vectors)  smooth grid: ( 25, 25, 25)

     number of k points=   200  Marzari-Vanderbilt smearing, width (Ry)=  0.0200

     PseudoPot. # 1 for Na read from file:
     /home/s1333534/quantum_espresso/qe-6.1/pseudo/Na_pbe_v1.uspp.F.UPF
     MD5 check sum: 76a99c7e9422403d3e93cbc85ab7bccb
     Pseudo is Ultrasoft, Zval =  9.0
     Generated by new atomic code, or converted to UPF format
     Using radial grid of  819 points,  5 beta functions with: 
                l(1) =   0
                l(2) =   0
                l(3) =   1
                l(4) =   1
                l(5) =   2
     Q(r) pseudized with  8 coefficients,  rinner =    1.250   1.250   1.250
                                                       1.250   1.250

     Mode symmetry, O_h (m-3m)  point group:


     Atomic displacements:
     There are   1 irreducible representations

     Representation     1      3 modes -T_1u G_15  G_4-  To be done



     Alpha used in Ewald sum =   2.8000
     PHONON       :     1h30m CPU        1h39m WALL



     Representation #  1 modes #   1  2  3

     Self-consistent Calculation

      iter #   1 total cpu time :  5975.6 secs   av.it.:   5.6
      thresh= 1.000E-02 alpha_mix =  0.700 |ddv_scf|^2 =  3.147E-06

      iter #   2 total cpu time :  5978.2 secs   av.it.:   8.3
      thresh= 1.774E-04 alpha_mix =  0.700 |ddv_scf|^2 =  4.108E-08

      iter #   3 total cpu time :  5980.8 secs   av.it.:   8.1
      thresh= 2.027E-05 alpha_mix =  0.700 |ddv_scf|^2 =  3.566E-09

      iter #   4 total cpu time :  5983.4 secs   av.it.:   8.2
      thresh= 5.972E-06 alpha_mix =  0.700 |ddv_scf|^2 =  1.464E-11

      iter #   5 total cpu time :  5985.9 secs   av.it.:   8.1
      thresh= 3.826E-07 alpha_mix =  0.700 |ddv_scf|^2 =  5.254E-15

     End of self-consistent calculation

     Convergence has been achieved 

     Number of q in the star =    1
     List of q in the star:
          1   0.000000000   0.000000000  -1.000000000

     Diagonalizing the dynamical matrix

     q = (    0.000000000   0.000000000  -1.000000000 ) 

 **************************************************************************
     freq (    1) =       4.687261 [THz] =     156.350189 [cm-1]
     freq (    2) =       4.687261 [THz] =     156.350189 [cm-1]
     freq (    3) =       4.687261 [THz] =     156.350189 [cm-1]
 **************************************************************************

     Mode symmetry, O_h (m-3m)  point group:

     freq (  1 -  3) =        156.4  [cm-1]   --> T_1u G_15  G_4-    

     init_run     :      5.21s CPU      5.27s WALL (      28 calls)
     electrons    :   1231.36s CPU   1322.32s WALL (      28 calls)

     Called by init_run:
     wfcinit      :      0.00s CPU      0.00s WALL (      28 calls)
     potinit      :      0.42s CPU      0.43s WALL (      28 calls)

     Called by electrons:
     c_bands      :   1231.06s CPU   1322.02s WALL (      28 calls)
     v_of_rho     :      0.33s CPU      0.34s WALL (      29 calls)
     newd         :      0.36s CPU      0.37s WALL (      29 calls)

     Called by c_bands:
     init_us_2    :     88.62s CPU     81.35s WALL (  906375 calls)
     cegterg      :   1135.24s CPU   1217.11s WALL (   80061 calls)

     Called by sum_band:

     Called by *egterg:
     h_psi        :   3500.46s CPU   3837.47s WALL ( 7588437 calls)
     s_psi        :    120.00s CPU    135.00s WALL (14449610 calls)
     g_psi        :      6.91s CPU     10.12s WALL ( 1224713 calls)
     cdiaghg      :    264.47s CPU    267.18s WALL ( 1287879 calls)

     Called by h_psi:
     h_psi:pot    :   3478.00s CPU   3809.86s WALL ( 7588437 calls)
     h_psi:calbec :    100.41s CPU    113.05s WALL ( 7588437 calls)
     vloc_psi     :   3297.71s CPU   3593.25s WALL ( 7588437 calls)
     add_vuspsi   :     65.27s CPU     81.24s WALL ( 7588437 calls)

     General routines
     calbec       :    216.60s CPU    222.75s WALL (16008793 calls)
     fft          :      3.10s CPU      3.30s WALL (    8947 calls)
     ffts         :      6.44s CPU      6.72s WALL (   97070 calls)
     fftw         :   3471.24s CPU   3737.50s WALL (73376059 calls)
     interpolate  :      0.53s CPU      0.62s WALL (    1241 calls)
     davcio       :     31.11s CPU     82.89s WALL ( 3428759 calls)

     Parallel routines
     fft_scatter  :    898.58s CPU   1075.68s WALL (73482076 calls)

     PHONON       :     1h30m CPU        1h39m WALL

     INITIALIZATION: 
     phq_setup    :      1.02s CPU      1.03s WALL (      29 calls)
     phq_init     :     95.22s CPU    101.15s WALL (      29 calls)

     phq_init     :     95.22s CPU    101.15s WALL (      29 calls)
     init_vloc    :      0.08s CPU      0.08s WALL (      29 calls)
     init_us_1    :      2.73s CPU      2.75s WALL (      29 calls)
     newd         :      0.36s CPU      0.37s WALL (      29 calls)
     dvanqq       :      1.38s CPU      1.38s WALL (      29 calls)
     drho         :     73.43s CPU     78.43s WALL (      29 calls)

     DYNAMICAL MATRIX:
     dynmat0      :     12.36s CPU     12.74s WALL (      29 calls)
     phqscf       :   4042.17s CPU   4502.83s WALL (      29 calls)
     dynmatrix    :      0.03s CPU      0.04s WALL (      29 calls)

     phqscf       :   4042.17s CPU   4502.83s WALL (      29 calls)
     solve_linter :   4021.19s CPU   4478.59s WALL (      76 calls)
     drhodv       :     20.89s CPU     21.85s WALL (      76 calls)

     dynmat0      :     12.36s CPU     12.74s WALL (      29 calls)
     dynmat_us    :     12.31s CPU     12.69s WALL (      29 calls)
     d2ionq       :      0.03s CPU      0.03s WALL (      29 calls)

     dynmat_us    :     12.31s CPU     12.69s WALL (      29 calls)
     addusdynmat  :      0.00s CPU      0.00s WALL (      29 calls)

     phqscf       :   4042.17s CPU   4502.83s WALL (      29 calls)
     solve_linter :   4021.19s CPU   4478.59s WALL (      76 calls)

     solve_linter :   4021.19s CPU   4478.59s WALL (      76 calls)
     dvqpsi_us    :    113.88s CPU    124.57s WALL (   95049 calls)
     ortho        :     40.25s CPU     45.80s WALL (  640676 calls)
     cgsolve      :   3114.22s CPU   3425.49s WALL (  640676 calls)
     incdrhoscf   :    339.95s CPU    379.35s WALL (  640676 calls)
     addusddens   :     10.83s CPU     10.92s WALL (     569 calls)
     vpsifft      :    261.63s CPU    292.97s WALL (  545627 calls)
     dv_of_drho   :      3.88s CPU      4.00s WALL (     548 calls)
     mix_pot      :      0.50s CPU      1.72s WALL (     493 calls)
     ef_shift     :      0.01s CPU      0.02s WALL (       6 calls)
     localdos     :      0.06s CPU      0.06s WALL (       1 calls)
     psymdvscf    :      8.53s CPU      8.67s WALL (     425 calls)
     newdq        :      9.71s CPU      9.78s WALL (     493 calls)
     adddvscf     :     15.06s CPU     15.09s WALL (  545627 calls)
     drhodvus     :      0.03s CPU      0.04s WALL (      76 calls)

     dvqpsi_us    :    113.88s CPU    124.57s WALL (   95049 calls)
     dvqpsi_us_on :     21.30s CPU     21.36s WALL (   95049 calls)

     cgsolve      :   3114.22s CPU   3425.49s WALL (  640676 calls)
     ch_psi       :   3039.24s CPU   3345.19s WALL ( 6220497 calls)

     ch_psi       :   3039.24s CPU   3345.19s WALL ( 6220497 calls)
     h_psi        :   3500.46s CPU   3837.47s WALL ( 7588437 calls)
     last         :    238.17s CPU    259.19s WALL ( 6220497 calls)

     h_psi        :   3500.46s CPU   3837.47s WALL ( 7588437 calls)
     add_vuspsi   :     65.27s CPU     81.24s WALL ( 7588437 calls)

     incdrhoscf   :    339.95s CPU    379.35s WALL (  640676 calls)
     addusdbec    :     18.52s CPU     18.92s WALL (  735725 calls)

     drhodvus     :      0.03s CPU      0.04s WALL (      76 calls)

      General routines
     calbec       :    216.60s CPU    222.75s WALL (16008793 calls)
     fft          :      3.10s CPU      3.30s WALL (    8947 calls)
     ffts         :      6.44s CPU      6.72s WALL (   97070 calls)
     fftw         :   3471.24s CPU   3737.50s WALL (73376059 calls)
     davcio       :     31.11s CPU     82.89s WALL ( 3428759 calls)
     write_rec    :      0.41s CPU      5.14s WALL (     569 calls)


     PHONON       :     1h30m CPU        1h39m WALL


   This run was terminated on:  13:32:53  21Dec2017            

=------------------------------------------------------------------------------=
   JOB DONE.
=------------------------------------------------------------------------------=
