
     Program PWSCF v.6.1 (svn rev. 13369) starts on 20Dec2017 at 13:23:51 

     This program is part of the open-source Quantum ESPRESSO suite
     for quantum simulation of materials; please cite
         "P. Giannozzi et al., J. Phys.:Condens. Matter 21 395502 (2009);
          URL http://www.quantum-espresso.org", 
     in publications or presentations arising from this work. More details at
     http://www.quantum-espresso.org/quote

     Parallel version (MPI), running on     4 processors
     R & G space division:  proc/nbgrp/npool/nimage =       4
     Waiting for input...
     Reading input from standard input

     Current dimensions of program PWSCF are:
     Max number of different atomic species (ntypx) = 10
     Max number of k-points (npk) =  40000
     Max angular momentum in pseudopotentials (lmaxx) =  3

     Subspace diagonalization in iterative solution of the eigenvalue problem:
     a serial algorithm will be used


     Parallelization info
     --------------------
     sticks:   dense  smooth     PW     G-vecs:    dense   smooth      PW
     Min         274     136     46                 5993     2097     409
     Max         275     137     47                 5994     2099     411
     Sum        1099     547    187                23973     8393    1639



     bravais-lattice index     =            2
     lattice parameter (alat)  =       9.9663  a.u.
     unit-cell volume          =     247.4846 (a.u.)^3
     number of atoms/cell      =            1
     number of atomic types    =            1
     number of electrons       =         9.00
     number of Kohn-Sham states=            9
     kinetic-energy cutoff     =      40.0000  Ry
     charge density cutoff     =     320.0000  Ry
     convergence threshold     =      1.0E-08
     mixing beta               =       0.7000
     number of iterations used =            8  plain     mixing
     Exchange-correlation      = SLA  PW   PBE  PBE ( 1  4  3  4 0 0)
     nstep                     =           50


     celldm(1)=   9.966348  celldm(2)=   0.000000  celldm(3)=   0.000000
     celldm(4)=   0.000000  celldm(5)=   0.000000  celldm(6)=   0.000000

     crystal axes: (cart. coord. in units of alat)
               a(1) = (  -0.500000   0.000000   0.500000 )  
               a(2) = (   0.000000   0.500000   0.500000 )  
               a(3) = (  -0.500000   0.500000   0.000000 )  

     reciprocal axes: (cart. coord. in units 2 pi/alat)
               b(1) = ( -1.000000 -1.000000  1.000000 )  
               b(2) = (  1.000000  1.000000  1.000000 )  
               b(3) = ( -1.000000  1.000000 -1.000000 )  


     PseudoPot. # 1 for Na read from file:
     /home/s1333534/quantum_espresso/qe-6.1/pseudo/Na_pbe_v1.uspp.F.UPF
     MD5 check sum: 76a99c7e9422403d3e93cbc85ab7bccb
     Pseudo is Ultrasoft, Zval =  9.0
     Generated by new atomic code, or converted to UPF format
     Using radial grid of  819 points,  5 beta functions with: 
                l(1) =   0
                l(2) =   0
                l(3) =   1
                l(4) =   1
                l(5) =   2
     Q(r) pseudized with  8 coefficients,  rinner =    1.250   1.250   1.250
                                                       1.250   1.250

     atomic species   valence    mass     pseudopotential
        Na             9.00    22.99000     Na( 1.00)

     48 Sym. Ops., with inversion, found



   Cartesian axes

     site n.     atom                  positions (alat units)
         1           Na  tau(   1) = (   0.0000000   0.0000000   0.0000000  )

     number of k points=   770  Marzari-Vanderbilt smearing, width (Ry)=  0.0200

     Number of k-points >= 100: set verbosity='high' to print them.

     Dense  grid:    23973 G-vectors     FFT dimensions: (  45,  45,  45)

     Smooth grid:     8393 G-vectors     FFT dimensions: (  30,  30,  30)

     Estimated max dynamical RAM per process >      32.38MB

     Estimated total allocated dynamical RAM >     129.50MB

     Initial potential from superposition of free atoms

     starting charge    8.99371, renormalised to    9.00000
     Starting wfc are    5 randomized atomic wfcs +    4 random wfc

     total cpu time spent up to now is        2.6 secs

     per-process dynamical memory:    41.3 Mb

     Self-consistent Calculation

     iteration #  1     ecut=    40.00 Ry     beta=0.70
     Davidson diagonalization with overlap
     ethr =  1.00E-02,  avg # of iterations =  5.5

     Threshold (ethr) on eigenvalues was too large:
     Diagonalizing with lowered threshold

     Davidson diagonalization with overlap
     ethr =  9.84E-06,  avg # of iterations =  4.0

     total cpu time spent up to now is       19.4 secs

     total energy              =     -95.10646535 Ry
     Harris-Foulkes estimate   =     -95.10667056 Ry
     estimated scf accuracy    <       0.00088343 Ry

     iteration #  2     ecut=    40.00 Ry     beta=0.70
     Davidson diagonalization with overlap
     ethr =  9.82E-06,  avg # of iterations =  2.0

     total cpu time spent up to now is       25.2 secs

     total energy              =     -95.10656295 Ry
     Harris-Foulkes estimate   =     -95.10658397 Ry
     estimated scf accuracy    <       0.00009637 Ry

     iteration #  3     ecut=    40.00 Ry     beta=0.70
     Davidson diagonalization with overlap
     ethr =  1.07E-06,  avg # of iterations =  2.1

     total cpu time spent up to now is       31.4 secs

     total energy              =     -95.10657469 Ry
     Harris-Foulkes estimate   =     -95.10657568 Ry
     estimated scf accuracy    <       0.00000578 Ry

     iteration #  4     ecut=    40.00 Ry     beta=0.70
     Davidson diagonalization with overlap
     ethr =  6.42E-08,  avg # of iterations =  1.0

     total cpu time spent up to now is       36.4 secs

     total energy              =     -95.10657524 Ry
     Harris-Foulkes estimate   =     -95.10657519 Ry
     estimated scf accuracy    <       0.00000001 Ry

     iteration #  5     ecut=    40.00 Ry     beta=0.70
     Davidson diagonalization with overlap
     ethr =  1.28E-10,  avg # of iterations =  3.0

     total cpu time spent up to now is       43.3 secs

     End of self-consistent calculation

     Number of k-points >= 100: set verbosity='high' to print the bands.

     the Fermi energy is     1.6488 ev

!    total energy              =     -95.10657528 Ry
     Harris-Foulkes estimate   =     -95.10657527 Ry
     estimated scf accuracy    <          1.6E-09 Ry

     The total energy is the sum of the following terms:

     one-electron contribution =     -87.91089248 Ry
     hartree contribution      =      44.33705855 Ry
     xc contribution           =     -14.26991424 Ry
     ewald contribution        =     -37.26278046 Ry
     smearing contrib. (-TS)   =      -0.00004664 Ry

     convergence has been achieved in   5 iterations

     Forces acting on atoms (cartesian axes, Ry/au):

     atom    1 type  1   force =     0.00000000    0.00000000    0.00000000

     Total force =     0.000000     Total SCF correction =     0.000000


     Computing stress (Cartesian axis) and pressure

          total   stress  (Ry/bohr**3)                   (kbar)     P=   -1.80
  -0.00001221   0.00000000   0.00000000         -1.80      0.00      0.00
   0.00000000  -0.00001221  -0.00000000          0.00     -1.80     -0.00
   0.00000000  -0.00000000  -0.00001221          0.00     -0.00     -1.80


     BFGS Geometry Optimization

     number of scf cycles    =   1
     number of bfgs steps    =   0

     enthalpy new            =     -95.1233989379 Ry

     new trust radius        =       0.0043865515 bohr
     new conv_thr            =       0.0000000100 Ry

     new unit-cell volume =    248.52112 a.u.^3 (    36.82703 Ang^3 )
     density =      1.03662 g/cm^3

CELL_PARAMETERS (alat=  9.96634774)
  -0.500697091  -0.000000000   0.500697091
   0.000000000   0.500697091   0.500697091
  -0.500697091   0.500697091  -0.000000000

ATOMIC_POSITIONS (crystal)
Na       0.000000000   0.000000000   0.000000000



     Writing output data file na.fcc.save
     NEW-OLD atomic charge density approx. for the potential
     extrapolated charge    9.03751, renormalised to    9.00000

     total cpu time spent up to now is       46.4 secs

     per-process dynamical memory:    52.6 Mb

     Self-consistent Calculation

     iteration #  1     ecut=    40.00 Ry     beta=0.70
     Davidson diagonalization with overlap
     ethr =  1.00E-06,  avg # of iterations =  2.2

     total cpu time spent up to now is       53.4 secs

     total energy              =     -95.10561527 Ry
     Harris-Foulkes estimate   =     -94.81371614 Ry
     estimated scf accuracy    <       0.00052749 Ry

     iteration #  2     ecut=    40.00 Ry     beta=0.70
     Davidson diagonalization with overlap
     ethr =  5.86E-06,  avg # of iterations =  3.0

     total cpu time spent up to now is       60.9 secs

     total energy              =     -95.10657883 Ry
     Harris-Foulkes estimate   =     -95.10696653 Ry
     estimated scf accuracy    <       0.00088306 Ry

     iteration #  3     ecut=    40.00 Ry     beta=0.70
     Davidson diagonalization with overlap
     ethr =  5.86E-06,  avg # of iterations =  1.7

     total cpu time spent up to now is       66.2 secs

     total energy              =     -95.10657887 Ry
     Harris-Foulkes estimate   =     -95.10663653 Ry
     estimated scf accuracy    <       0.00017278 Ry

     iteration #  4     ecut=    40.00 Ry     beta=0.70
     Davidson diagonalization with overlap
     ethr =  1.92E-06,  avg # of iterations =  1.0

     total cpu time spent up to now is       71.1 secs

     total energy              =     -95.10656550 Ry
     Harris-Foulkes estimate   =     -95.10658647 Ry
     estimated scf accuracy    <       0.00005794 Ry

     iteration #  5     ecut=    40.00 Ry     beta=0.70
     Davidson diagonalization with overlap
     ethr =  6.44E-07,  avg # of iterations =  1.0

     total cpu time spent up to now is       76.1 secs

     total energy              =     -95.10656351 Ry
     Harris-Foulkes estimate   =     -95.10656816 Ry
     estimated scf accuracy    <       0.00001770 Ry

     iteration #  6     ecut=    40.00 Ry     beta=0.70
     Davidson diagonalization with overlap
     ethr =  1.97E-07,  avg # of iterations =  1.0

     total cpu time spent up to now is       81.0 secs

     total energy              =     -95.10656115 Ry
     Harris-Foulkes estimate   =     -95.10656395 Ry
     estimated scf accuracy    <       0.00000848 Ry

     iteration #  7     ecut=    40.00 Ry     beta=0.70
     Davidson diagonalization with overlap
     ethr =  9.43E-08,  avg # of iterations =  1.0

     total cpu time spent up to now is       86.0 secs

     total energy              =     -95.10655922 Ry
     Harris-Foulkes estimate   =     -95.10656141 Ry
     estimated scf accuracy    <       0.00000314 Ry

     iteration #  8     ecut=    40.00 Ry     beta=0.70
     Davidson diagonalization with overlap
     ethr =  3.49E-08,  avg # of iterations =  2.0

     total cpu time spent up to now is       91.9 secs

     total energy              =     -95.10655999 Ry
     Harris-Foulkes estimate   =     -95.10655999 Ry
     estimated scf accuracy    <       0.00000001 Ry

     iteration #  9     ecut=    40.00 Ry     beta=0.70
     Davidson diagonalization with overlap
     ethr =  1.38E-10,  avg # of iterations =  1.6

     total cpu time spent up to now is       97.0 secs

     total energy              =     -95.10655998 Ry
     Harris-Foulkes estimate   =     -95.10655999 Ry
     estimated scf accuracy    <       0.00000001 Ry

     iteration # 10     ecut=    40.00 Ry     beta=0.70
     Davidson diagonalization with overlap
     ethr =  1.38E-10,  avg # of iterations =  2.0

     total cpu time spent up to now is      102.9 secs

     End of self-consistent calculation

     Number of k-points >= 100: set verbosity='high' to print the bands.

     the Fermi energy is     1.6313 ev

!    total energy              =     -95.10655998 Ry
     Harris-Foulkes estimate   =     -95.10655998 Ry
     estimated scf accuracy    <          1.8E-10 Ry

     The total energy is the sum of the following terms:

     one-electron contribution =     -88.00184834 Ry
     hartree contribution      =      44.37558047 Ry
     xc contribution           =     -14.26934357 Ry
     ewald contribution        =     -37.21090173 Ry
     smearing contrib. (-TS)   =      -0.00004681 Ry

     convergence has been achieved in  10 iterations

     Forces acting on atoms (cartesian axes, Ry/au):

     atom    1 type  1   force =     0.00000000    0.00000000    0.00000000

     Total force =     0.000000     Total SCF correction =     0.000000


     Computing stress (Cartesian axis) and pressure

          total   stress  (Ry/bohr**3)                   (kbar)     P=   -2.47
  -0.00001677  -0.00000000  -0.00000000         -2.47     -0.00     -0.00
  -0.00000000  -0.00001677   0.00000000         -0.00     -2.47      0.00
  -0.00000000   0.00000000  -0.00001677         -0.00      0.00     -2.47


     number of scf cycles    =   2
     number of bfgs steps    =   1

     enthalpy old            =     -95.1233989379 Ry
     enthalpy new            =     -95.1234541067 Ry

     CASE: enthalpy_new < enthalpy_old


     WARNING: bfgs curvature condition failed, Theta= 0.869
     new trust radius        =       0.0048285690 bohr
     new conv_thr            =            1.0E-10 Ry

     new unit-cell volume =    249.66468 a.u.^3 (    36.99649 Ang^3 )
     density =      1.03188 g/cm^3

CELL_PARAMETERS (alat=  9.96634774)
  -0.501463890  -0.000000000   0.501463890
   0.000000000   0.501463890   0.501463890
  -0.501463890   0.501463890  -0.000000000

ATOMIC_POSITIONS (crystal)
Na       0.000000000   0.000000000   0.000000000



     Writing output data file na.fcc.save
     NEW-OLD atomic charge density approx. for the potential
     extrapolated charge    9.04119, renormalised to    9.00000

     total cpu time spent up to now is      105.8 secs

     per-process dynamical memory:    52.6 Mb

     Self-consistent Calculation

     iteration #  1     ecut=    40.00 Ry     beta=0.70
     Davidson diagonalization with overlap
     ethr =  1.00E-06,  avg # of iterations =  2.2

     total cpu time spent up to now is      112.8 secs

     total energy              =     -95.10539933 Ry
     Harris-Foulkes estimate   =     -94.78453540 Ry
     estimated scf accuracy    <       0.00063618 Ry

     iteration #  2     ecut=    40.00 Ry     beta=0.70
     Davidson diagonalization with overlap
     ethr =  7.07E-06,  avg # of iterations =  3.0

     total cpu time spent up to now is      120.3 secs

     total energy              =     -95.10656300 Ry
     Harris-Foulkes estimate   =     -95.10703108 Ry
     estimated scf accuracy    <       0.00106645 Ry

     iteration #  3     ecut=    40.00 Ry     beta=0.70
     Davidson diagonalization with overlap
     ethr =  7.07E-06,  avg # of iterations =  1.7

     total cpu time spent up to now is      125.6 secs

     total energy              =     -95.10656270 Ry
     Harris-Foulkes estimate   =     -95.10663259 Ry
     estimated scf accuracy    <       0.00020898 Ry

     iteration #  4     ecut=    40.00 Ry     beta=0.70
     Davidson diagonalization with overlap
     ethr =  2.32E-06,  avg # of iterations =  1.0

     total cpu time spent up to now is      130.6 secs

     total energy              =     -95.10654640 Ry
     Harris-Foulkes estimate   =     -95.10657190 Ry
     estimated scf accuracy    <       0.00006991 Ry

     iteration #  5     ecut=    40.00 Ry     beta=0.70
     Davidson diagonalization with overlap
     ethr =  7.77E-07,  avg # of iterations =  1.0

     total cpu time spent up to now is      135.5 secs

     total energy              =     -95.10654417 Ry
     Harris-Foulkes estimate   =     -95.10654966 Ry
     estimated scf accuracy    <       0.00002105 Ry

     iteration #  6     ecut=    40.00 Ry     beta=0.70
     Davidson diagonalization with overlap
     ethr =  2.34E-07,  avg # of iterations =  1.0

     total cpu time spent up to now is      140.5 secs

     total energy              =     -95.10654173 Ry
     Harris-Foulkes estimate   =     -95.10654469 Ry
     estimated scf accuracy    <       0.00001015 Ry

     iteration #  7     ecut=    40.00 Ry     beta=0.70
     Davidson diagonalization with overlap
     ethr =  1.13E-07,  avg # of iterations =  1.0

     total cpu time spent up to now is      145.5 secs

     total energy              =     -95.10653889 Ry
     Harris-Foulkes estimate   =     -95.10654197 Ry
     estimated scf accuracy    <       0.00000444 Ry

     iteration #  8     ecut=    40.00 Ry     beta=0.70
     Davidson diagonalization with overlap
     ethr =  4.93E-08,  avg # of iterations =  2.0

     total cpu time spent up to now is      151.4 secs

     total energy              =     -95.10653994 Ry
     Harris-Foulkes estimate   =     -95.10653994 Ry
     estimated scf accuracy    <       0.00000001 Ry

     iteration #  9     ecut=    40.00 Ry     beta=0.70
     Davidson diagonalization with overlap
     ethr =  1.31E-10,  avg # of iterations =  1.8

     total cpu time spent up to now is      156.8 secs

     total energy              =     -95.10653994 Ry
     Harris-Foulkes estimate   =     -95.10653994 Ry
     estimated scf accuracy    <       0.00000001 Ry

     iteration # 10     ecut=    40.00 Ry     beta=0.70
     Davidson diagonalization with overlap
     ethr =  1.31E-10,  avg # of iterations =  1.0

     total cpu time spent up to now is      161.7 secs

     total energy              =     -95.10653994 Ry
     Harris-Foulkes estimate   =     -95.10653994 Ry
     estimated scf accuracy    <          4.9E-09 Ry

     iteration # 11     ecut=    40.00 Ry     beta=0.70
     Davidson diagonalization with overlap
     ethr =  5.45E-11,  avg # of iterations =  2.0

     total cpu time spent up to now is      167.5 secs

     total energy              =     -95.10653994 Ry
     Harris-Foulkes estimate   =     -95.10653994 Ry
     estimated scf accuracy    <          1.2E-09 Ry

     iteration # 12     ecut=    40.00 Ry     beta=0.70
     Davidson diagonalization with overlap
     ethr =  1.34E-11,  avg # of iterations =  1.0

     total cpu time spent up to now is      172.4 secs

     total energy              =     -95.10653994 Ry
     Harris-Foulkes estimate   =     -95.10653994 Ry
     estimated scf accuracy    <          2.5E-10 Ry

     iteration # 13     ecut=    40.00 Ry     beta=0.70
     Davidson diagonalization with overlap
     ethr =  2.82E-12,  avg # of iterations =  1.0

     total cpu time spent up to now is      177.4 secs

     End of self-consistent calculation

     Number of k-points >= 100: set verbosity='high' to print the bands.

     the Fermi energy is     1.6121 ev

!    total energy              =     -95.10653994 Ry
     Harris-Foulkes estimate   =     -95.10653994 Ry
     estimated scf accuracy    <          7.1E-11 Ry

     The total energy is the sum of the following terms:

     one-electron contribution =     -88.10179962 Ry
     hartree contribution      =      44.41806480 Ry
     xc contribution           =     -14.26875641 Ry
     ewald contribution        =     -37.15400171 Ry
     smearing contrib. (-TS)   =      -0.00004700 Ry

     convergence has been achieved in  13 iterations

     Forces acting on atoms (cartesian axes, Ry/au):

     atom    1 type  1   force =     0.00000000    0.00000000    0.00000000

     Total force =     0.000000     Total SCF correction =     0.000000


     Computing stress (Cartesian axis) and pressure

          total   stress  (Ry/bohr**3)                   (kbar)     P=   -2.79
  -0.00001898  -0.00000000  -0.00000000         -2.79     -0.00     -0.00
  -0.00000000  -0.00001898   0.00000000         -0.00     -2.79      0.00
  -0.00000000   0.00000000  -0.00001898         -0.00      0.00     -2.79


     number of scf cycles    =   3
     number of bfgs steps    =   2

     enthalpy old            =     -95.1234541067 Ry
     enthalpy new            =     -95.1235117984 Ry

     CASE: enthalpy_new < enthalpy_old

     new trust radius        =       0.0072483975 bohr
     new conv_thr            =            1.0E-10 Ry

     new unit-cell volume =    251.38658 a.u.^3 (    37.25165 Ang^3 )
     density =      1.02481 g/cm^3

CELL_PARAMETERS (alat=  9.96634774)
  -0.502614089  -0.000000000   0.502614089
   0.000000000   0.502614089   0.502614089
  -0.502614089   0.502614089  -0.000000000

ATOMIC_POSITIONS (crystal)
Na       0.000000000   0.000000000   0.000000000



     Writing output data file na.fcc.save
     NEW-OLD atomic charge density approx. for the potential
     extrapolated charge    9.06160, renormalised to    9.00000

     total cpu time spent up to now is      180.3 secs

     per-process dynamical memory:    52.6 Mb

     Self-consistent Calculation

     iteration #  1     ecut=    40.00 Ry     beta=0.70
     Davidson diagonalization with overlap
     ethr =  1.00E-06,  avg # of iterations =  2.7

     total cpu time spent up to now is      187.7 secs

     total energy              =     -95.10392969 Ry
     Harris-Foulkes estimate   =     -94.62392193 Ry
     estimated scf accuracy    <       0.00143561 Ry

     iteration #  2     ecut=    40.00 Ry     beta=0.70
     Davidson diagonalization with overlap
     ethr =  1.60E-05,  avg # of iterations =  3.0

     total cpu time spent up to now is      195.2 secs

     total energy              =     -95.10655750 Ry
     Harris-Foulkes estimate   =     -95.10761342 Ry
     estimated scf accuracy    <       0.00240556 Ry

     iteration #  3     ecut=    40.00 Ry     beta=0.70
     Davidson diagonalization with overlap
     ethr =  1.60E-05,  avg # of iterations =  1.7

     total cpu time spent up to now is      200.5 secs

     total energy              =     -95.10655558 Ry
     Harris-Foulkes estimate   =     -95.10671370 Ry
     estimated scf accuracy    <       0.00047365 Ry

     iteration #  4     ecut=    40.00 Ry     beta=0.70
     Davidson diagonalization with overlap
     ethr =  5.26E-06,  avg # of iterations =  1.0

     total cpu time spent up to now is      205.4 secs

     total energy              =     -95.10651864 Ry
     Harris-Foulkes estimate   =     -95.10657640 Ry
     estimated scf accuracy    <       0.00015891 Ry

     iteration #  5     ecut=    40.00 Ry     beta=0.70
     Davidson diagonalization with overlap
     ethr =  1.77E-06,  avg # of iterations =  1.0

     total cpu time spent up to now is      210.4 secs

     total energy              =     -95.10651300 Ry
     Harris-Foulkes estimate   =     -95.10652597 Ry
     estimated scf accuracy    <       0.00004830 Ry

     iteration #  6     ecut=    40.00 Ry     beta=0.70
     Davidson diagonalization with overlap
     ethr =  5.37E-07,  avg # of iterations =  1.0

     total cpu time spent up to now is      215.4 secs

     total energy              =     -95.10650685 Ry
     Harris-Foulkes estimate   =     -95.10651424 Ry
     estimated scf accuracy    <       0.00002264 Ry

     iteration #  7     ecut=    40.00 Ry     beta=0.70
     Davidson diagonalization with overlap
     ethr =  2.52E-07,  avg # of iterations =  1.0

     total cpu time spent up to now is      220.3 secs

     total energy              =     -95.10650157 Ry
     Harris-Foulkes estimate   =     -95.10650753 Ry
     estimated scf accuracy    <       0.00000855 Ry

     iteration #  8     ecut=    40.00 Ry     beta=0.70
     Davidson diagonalization with overlap
     ethr =  9.50E-08,  avg # of iterations =  2.0

     total cpu time spent up to now is      226.2 secs

     total energy              =     -95.10650364 Ry
     Harris-Foulkes estimate   =     -95.10650364 Ry
     estimated scf accuracy    <       0.00000003 Ry

     iteration #  9     ecut=    40.00 Ry     beta=0.70
     Davidson diagonalization with overlap
     ethr =  3.27E-10,  avg # of iterations =  1.6

     total cpu time spent up to now is      231.4 secs

     total energy              =     -95.10650362 Ry
     Harris-Foulkes estimate   =     -95.10650364 Ry
     estimated scf accuracy    <       0.00000003 Ry

     iteration # 10     ecut=    40.00 Ry     beta=0.70
     Davidson diagonalization with overlap
     ethr =  3.27E-10,  avg # of iterations =  2.0

     total cpu time spent up to now is      237.4 secs

     total energy              =     -95.10650364 Ry
     Harris-Foulkes estimate   =     -95.10650364 Ry
     estimated scf accuracy    <       0.00000002 Ry

     iteration # 11     ecut=    40.00 Ry     beta=0.70
     Davidson diagonalization with overlap
     ethr =  2.18E-10,  avg # of iterations =  1.0

     total cpu time spent up to now is      242.4 secs

     total energy              =     -95.10650363 Ry
     Harris-Foulkes estimate   =     -95.10650364 Ry
     estimated scf accuracy    <       0.00000002 Ry

     iteration # 12     ecut=    40.00 Ry     beta=0.70
     Davidson diagonalization with overlap
     ethr =  1.85E-10,  avg # of iterations =  2.0

     total cpu time spent up to now is      248.3 secs

     End of self-consistent calculation

     Number of k-points >= 100: set verbosity='high' to print the bands.

     the Fermi energy is     1.5835 ev

!    total energy              =     -95.10650363 Ry
     Harris-Foulkes estimate   =     -95.10650363 Ry
     estimated scf accuracy    <          6.3E-11 Ry

     The total energy is the sum of the following terms:

     one-electron contribution =     -88.25106358 Ry
     hartree contribution      =      44.48143927 Ry
     xc contribution           =     -14.26785484 Ry
     ewald contribution        =     -37.06897722 Ry
     smearing contrib. (-TS)   =      -0.00004728 Ry

     convergence has been achieved in  12 iterations

     Forces acting on atoms (cartesian axes, Ry/au):

     atom    1 type  1   force =     0.00000000    0.00000000    0.00000000

     Total force =     0.000000     Total SCF correction =     0.000000


     Computing stress (Cartesian axis) and pressure

          total   stress  (Ry/bohr**3)                   (kbar)     P=   -3.47
  -0.00002359  -0.00000000   0.00000000         -3.47     -0.00      0.00
  -0.00000000  -0.00002359   0.00000000         -0.00     -3.47      0.00
   0.00000000   0.00000000  -0.00002359          0.00      0.00     -3.47


     number of scf cycles    =   4
     number of bfgs steps    =   3

     enthalpy old            =     -95.1235117984 Ry
     enthalpy new            =     -95.1235925471 Ry

     CASE: enthalpy_new < enthalpy_old

     new trust radius        =       0.0108850583 bohr
     new conv_thr            =            1.0E-10 Ry

     new unit-cell volume =    253.98424 a.u.^3 (    37.63658 Ang^3 )
     density =      1.01433 g/cm^3

CELL_PARAMETERS (alat=  9.96634774)
  -0.504339389  -0.000000000   0.504339389
   0.000000000   0.504339389   0.504339389
  -0.504339389   0.504339389  -0.000000000

ATOMIC_POSITIONS (crystal)
Na       0.000000000   0.000000000   0.000000000



     Writing output data file na.fcc.save
     NEW-OLD atomic charge density approx. for the potential
     extrapolated charge    9.09198, renormalised to    9.00000

     total cpu time spent up to now is      251.2 secs

     per-process dynamical memory:    52.6 Mb

     Self-consistent Calculation

     iteration #  1     ecut=    40.00 Ry     beta=0.70
     Davidson diagonalization with overlap
     ethr =  1.00E-06,  avg # of iterations =  3.2

     total cpu time spent up to now is      259.3 secs

     total energy              =     -95.10062207 Ry
     Harris-Foulkes estimate   =     -94.38353241 Ry
     estimated scf accuracy    <       0.00323985 Ry

     iteration #  2     ecut=    40.00 Ry     beta=0.70
     Davidson diagonalization with overlap
     ethr =  3.60E-05,  avg # of iterations =  3.0

     total cpu time spent up to now is      266.8 secs

     total energy              =     -95.10656384 Ry
     Harris-Foulkes estimate   =     -95.10894754 Ry
     estimated scf accuracy    <       0.00543093 Ry

     iteration #  3     ecut=    40.00 Ry     beta=0.70
     Davidson diagonalization with overlap
     ethr =  3.60E-05,  avg # of iterations =  1.6

     total cpu time spent up to now is      272.1 secs

     total energy              =     -95.10655522 Ry
     Harris-Foulkes estimate   =     -95.10691370 Ry
     estimated scf accuracy    <       0.00107790 Ry

     iteration #  4     ecut=    40.00 Ry     beta=0.70
     Davidson diagonalization with overlap
     ethr =  1.20E-05,  avg # of iterations =  1.0

     total cpu time spent up to now is      277.1 secs

     total energy              =     -95.10647108 Ry
     Harris-Foulkes estimate   =     -95.10660244 Ry
     estimated scf accuracy    <       0.00036383 Ry

     iteration #  5     ecut=    40.00 Ry     beta=0.70
     Davidson diagonalization with overlap
     ethr =  4.04E-06,  avg # of iterations =  1.0

     total cpu time spent up to now is      282.0 secs

     total energy              =     -95.10645554 Ry
     Harris-Foulkes estimate   =     -95.10648750 Ry
     estimated scf accuracy    <       0.00011240 Ry

     iteration #  6     ecut=    40.00 Ry     beta=0.70
     Davidson diagonalization with overlap
     ethr =  1.25E-06,  avg # of iterations =  1.0

     total cpu time spent up to now is      287.0 secs

     total energy              =     -95.10643851 Ry
     Harris-Foulkes estimate   =     -95.10645866 Ry
     estimated scf accuracy    <       0.00004955 Ry

     iteration #  7     ecut=    40.00 Ry     beta=0.70
     Davidson diagonalization with overlap
     ethr =  5.51E-07,  avg # of iterations =  1.0

     total cpu time spent up to now is      291.9 secs

     total energy              =     -95.10643221 Ry
     Harris-Foulkes estimate   =     -95.10644100 Ry
     estimated scf accuracy    <       0.00001248 Ry

     iteration #  8     ecut=    40.00 Ry     beta=0.70
     Davidson diagonalization with overlap
     ethr =  1.39E-07,  avg # of iterations =  2.0

     total cpu time spent up to now is      297.9 secs

     total energy              =     -95.10643541 Ry
     Harris-Foulkes estimate   =     -95.10643547 Ry
     estimated scf accuracy    <       0.00000008 Ry

     iteration #  9     ecut=    40.00 Ry     beta=0.70
     Davidson diagonalization with overlap
     ethr =  8.59E-10,  avg # of iterations =  2.0

     total cpu time spent up to now is      304.0 secs

     total energy              =     -95.10643543 Ry
     Harris-Foulkes estimate   =     -95.10643544 Ry
     estimated scf accuracy    <       0.00000002 Ry

     iteration # 10     ecut=    40.00 Ry     beta=0.70
     Davidson diagonalization with overlap
     ethr =  1.70E-10,  avg # of iterations =  2.0

     total cpu time spent up to now is      309.9 secs

     total energy              =     -95.10643544 Ry
     Harris-Foulkes estimate   =     -95.10643544 Ry
     estimated scf accuracy    <          4.9E-09 Ry

     iteration # 11     ecut=    40.00 Ry     beta=0.70
     Davidson diagonalization with overlap
     ethr =  5.46E-11,  avg # of iterations =  1.0

     total cpu time spent up to now is      314.9 secs

     total energy              =     -95.10643544 Ry
     Harris-Foulkes estimate   =     -95.10643544 Ry
     estimated scf accuracy    <          3.7E-09 Ry

     iteration # 12     ecut=    40.00 Ry     beta=0.70
     Davidson diagonalization with overlap
     ethr =  4.09E-11,  avg # of iterations =  2.0

     total cpu time spent up to now is      320.7 secs

     End of self-consistent calculation

     Number of k-points >= 100: set verbosity='high' to print the bands.

     the Fermi energy is     1.5412 ev

!    total energy              =     -95.10643544 Ry
     Harris-Foulkes estimate   =     -95.10643544 Ry
     estimated scf accuracy    <          2.6E-11 Ry

     The total energy is the sum of the following terms:

     one-electron contribution =     -88.47381535 Ry
     hartree contribution      =      44.57612486 Ry
     xc contribution           =     -14.26652962 Ry
     ewald contribution        =     -36.94216762 Ry
     smearing contrib. (-TS)   =      -0.00004770 Ry

     convergence has been achieved in  12 iterations

     Forces acting on atoms (cartesian axes, Ry/au):

     atom    1 type  1   force =     0.00000000    0.00000000    0.00000000

     Total force =     0.000000     Total SCF correction =     0.000000


     Computing stress (Cartesian axis) and pressure

          total   stress  (Ry/bohr**3)                   (kbar)     P=   -4.35
  -0.00002954   0.00000000   0.00000000         -4.35      0.00      0.00
   0.00000000  -0.00002954  -0.00000000          0.00     -4.35     -0.00
   0.00000000  -0.00000000  -0.00002954          0.00     -0.00     -4.35


     number of scf cycles    =   5
     number of bfgs steps    =   4

     enthalpy old            =     -95.1235925471 Ry
     enthalpy new            =     -95.1237009374 Ry

     CASE: enthalpy_new < enthalpy_old

     new trust radius        =       0.0163555869 bohr
     new conv_thr            =            1.0E-10 Ry

     new unit-cell volume =    257.91419 a.u.^3 (    38.21894 Ang^3 )
     density =      0.99887 g/cm^3

CELL_PARAMETERS (alat=  9.96634774)
  -0.506927337  -0.000000000   0.506927337
   0.000000000   0.506927337   0.506927337
  -0.506927337   0.506927337  -0.000000000

ATOMIC_POSITIONS (crystal)
Na       0.000000000   0.000000000   0.000000000



     Writing output data file na.fcc.save
     NEW-OLD atomic charge density approx. for the potential
     extrapolated charge    9.13704, renormalised to    9.00000

     total cpu time spent up to now is      323.6 secs

     per-process dynamical memory:    52.6 Mb

     Self-consistent Calculation

     iteration #  1     ecut=    40.00 Ry     beta=0.70
     Davidson diagonalization with overlap
     ethr =  1.00E-06,  avg # of iterations =  3.5

     total cpu time spent up to now is      332.4 secs

     total energy              =     -95.09314385 Ry
     Harris-Foulkes estimate   =     -94.02417261 Ry
     estimated scf accuracy    <       0.00732847 Ry

     iteration #  2     ecut=    40.00 Ry     beta=0.70
     Davidson diagonalization with overlap
     ethr =  8.14E-05,  avg # of iterations =  3.0

     total cpu time spent up to now is      340.0 secs

     total energy              =     -95.10661596 Ry
     Harris-Foulkes estimate   =     -95.11200762 Ry
     estimated scf accuracy    <       0.01228396 Ry

     iteration #  3     ecut=    40.00 Ry     beta=0.70
     Davidson diagonalization with overlap
     ethr =  8.14E-05,  avg # of iterations =  1.6

     total cpu time spent up to now is      345.2 secs

     total energy              =     -95.10657923 Ry
     Harris-Foulkes estimate   =     -95.10739840 Ry
     estimated scf accuracy    <       0.00246510 Ry

     iteration #  4     ecut=    40.00 Ry     beta=0.70
     Davidson diagonalization with overlap
     ethr =  2.74E-05,  avg # of iterations =  1.0

     total cpu time spent up to now is      350.2 secs

     total energy              =     -95.10638693 Ry
     Harris-Foulkes estimate   =     -95.10668722 Ry
     estimated scf accuracy    <       0.00083401 Ry

     iteration #  5     ecut=    40.00 Ry     beta=0.70
     Davidson diagonalization with overlap
     ethr =  9.27E-06,  avg # of iterations =  1.0

     total cpu time spent up to now is      355.1 secs

     total energy              =     -95.10634364 Ry
     Harris-Foulkes estimate   =     -95.10642402 Ry
     estimated scf accuracy    <       0.00026022 Ry

     iteration #  6     ecut=    40.00 Ry     beta=0.70
     Davidson diagonalization with overlap
     ethr =  2.89E-06,  avg # of iterations =  1.0

     total cpu time spent up to now is      360.1 secs

     total energy              =     -95.10629920 Ry
     Harris-Foulkes estimate   =     -95.10635190 Ry
     estimated scf accuracy    <       0.00010398 Ry

     iteration #  7     ecut=    40.00 Ry     beta=0.70
     Davidson diagonalization with overlap
     ethr =  1.16E-06,  avg # of iterations =  1.0

     total cpu time spent up to now is      365.1 secs

     total energy              =     -95.10629949 Ry
     Harris-Foulkes estimate   =     -95.10630831 Ry
     estimated scf accuracy    <       0.00001237 Ry

     iteration #  8     ecut=    40.00 Ry     beta=0.70
     Davidson diagonalization with overlap
     ethr =  1.37E-07,  avg # of iterations =  2.0

     total cpu time spent up to now is      371.2 secs

     total energy              =     -95.10630325 Ry
     Harris-Foulkes estimate   =     -95.10630328 Ry
     estimated scf accuracy    <       0.00000013 Ry

     iteration #  9     ecut=    40.00 Ry     beta=0.70
     Davidson diagonalization with overlap
     ethr =  1.47E-09,  avg # of iterations =  1.5

     total cpu time spent up to now is      376.3 secs

     total energy              =     -95.10630327 Ry
     Harris-Foulkes estimate   =     -95.10630325 Ry
     estimated scf accuracy    <       0.00000006 Ry

     iteration # 10     ecut=    40.00 Ry     beta=0.70
     Davidson diagonalization with overlap
     ethr =  7.14E-10,  avg # of iterations =  1.0

     total cpu time spent up to now is      381.3 secs

     total energy              =     -95.10630320 Ry
     Harris-Foulkes estimate   =     -95.10630327 Ry
     estimated scf accuracy    <       0.00000009 Ry

     iteration # 11     ecut=    40.00 Ry     beta=0.70
     Davidson diagonalization with overlap
     ethr =  7.14E-10,  avg # of iterations =  2.0

     total cpu time spent up to now is      387.3 secs

     total energy              =     -95.10630322 Ry
     Harris-Foulkes estimate   =     -95.10630322 Ry
     estimated scf accuracy    <          7.1E-10 Ry

     iteration # 12     ecut=    40.00 Ry     beta=0.70
     Davidson diagonalization with overlap
     ethr =  7.86E-12,  avg # of iterations =  1.0

     total cpu time spent up to now is      392.3 secs

     End of self-consistent calculation

     Number of k-points >= 100: set verbosity='high' to print the bands.

     the Fermi energy is     1.4789 ev

!    total energy              =     -95.10630322 Ry
     Harris-Foulkes estimate   =     -95.10630322 Ry
     estimated scf accuracy    <          7.9E-11 Ry

     The total energy is the sum of the following terms:

     one-electron contribution =     -88.80525925 Ry
     hartree contribution      =      44.71714843 Ry
     xc contribution           =     -14.26457235 Ry
     ewald contribution        =     -36.75357170 Ry
     smearing contrib. (-TS)   =      -0.00004835 Ry

     convergence has been achieved in  12 iterations

     Forces acting on atoms (cartesian axes, Ry/au):

     atom    1 type  1   force =     0.00000000    0.00000000    0.00000000

     Total force =     0.000000     Total SCF correction =     0.000000


     Computing stress (Cartesian axis) and pressure

          total   stress  (Ry/bohr**3)                   (kbar)     P=   -5.56
  -0.00003780   0.00000000   0.00000000         -5.56      0.00      0.00
   0.00000000  -0.00003780   0.00000000          0.00     -5.56      0.00
   0.00000000   0.00000000  -0.00003780          0.00      0.00     -5.56


     number of scf cycles    =   6
     number of bfgs steps    =   5

     enthalpy old            =     -95.1237009374 Ry
     enthalpy new            =     -95.1238358768 Ry

     CASE: enthalpy_new < enthalpy_old

     new trust radius        =       0.0245962446 bohr
     new conv_thr            =            1.0E-10 Ry

     new unit-cell volume =    263.88481 a.u.^3 (    39.10369 Ang^3 )
     density =      0.97627 g/cm^3

CELL_PARAMETERS (alat=  9.96634774)
  -0.510809260  -0.000000000   0.510809260
   0.000000000   0.510809260   0.510809260
  -0.510809260   0.510809260  -0.000000000

ATOMIC_POSITIONS (crystal)
Na       0.000000000   0.000000000   0.000000000



     Writing output data file na.fcc.save
     NEW-OLD atomic charge density approx. for the potential
     extrapolated charge    9.20349, renormalised to    9.00000

     total cpu time spent up to now is      395.1 secs

     per-process dynamical memory:    52.6 Mb

     Self-consistent Calculation

     iteration #  1     ecut=    40.00 Ry     beta=0.70
     Davidson diagonalization with overlap
     ethr =  1.00E-06,  avg # of iterations =  3.9

     total cpu time spent up to now is      404.4 secs

     total energy              =     -95.07614970 Ry
     Harris-Foulkes estimate   =     -93.48798949 Ry
     estimated scf accuracy    <       0.01663251 Ry

     iteration #  2     ecut=    40.00 Ry     beta=0.70
     Davidson diagonalization with overlap
     ethr =  1.85E-04,  avg # of iterations =  3.0

     total cpu time spent up to now is      412.0 secs

     total energy              =     -95.10682545 Ry
     Harris-Foulkes estimate   =     -95.11905789 Ry
     estimated scf accuracy    <       0.02786518 Ry

     iteration #  3     ecut=    40.00 Ry     beta=0.70
     Davidson diagonalization with overlap
     ethr =  1.85E-04,  avg # of iterations =  1.5

     total cpu time spent up to now is      417.2 secs

     total energy              =     -95.10668061 Ry
     Harris-Foulkes estimate   =     -95.10857067 Ry
     estimated scf accuracy    <       0.00568365 Ry

     iteration #  4     ecut=    40.00 Ry     beta=0.70
     Davidson diagonalization with overlap
     ethr =  6.32E-05,  avg # of iterations =  1.0

     total cpu time spent up to now is      422.1 secs

     total energy              =     -95.10624166 Ry
     Harris-Foulkes estimate   =     -95.10693078 Ry
     estimated scf accuracy    <       0.00192316 Ry

     iteration #  5     ecut=    40.00 Ry     beta=0.70
     Davidson diagonalization with overlap
     ethr =  2.14E-05,  avg # of iterations =  1.0

     total cpu time spent up to now is      427.1 secs

     total energy              =     -95.10611483 Ry
     Harris-Foulkes estimate   =     -95.10632517 Ry
     estimated scf accuracy    <       0.00060991 Ry

     iteration #  6     ecut=    40.00 Ry     beta=0.70
     Davidson diagonalization with overlap
     ethr =  6.78E-06,  avg # of iterations =  1.1

     total cpu time spent up to now is      432.1 secs

     total energy              =     -95.10601509 Ry
     Harris-Foulkes estimate   =     -95.10613826 Ry
     estimated scf accuracy    <       0.00020884 Ry

     iteration #  7     ecut=    40.00 Ry     beta=0.70
     Davidson diagonalization with overlap
     ethr =  2.32E-06,  avg # of iterations =  2.1

     total cpu time spent up to now is      438.0 secs

     total energy              =     -95.10603883 Ry
     Harris-Foulkes estimate   =     -95.10604445 Ry
     estimated scf accuracy    <       0.00000763 Ry

     iteration #  8     ecut=    40.00 Ry     beta=0.70
     Davidson diagonalization with overlap
     ethr =  8.48E-08,  avg # of iterations =  2.0

     total cpu time spent up to now is      443.9 secs

     total energy              =     -95.10604110 Ry
     Harris-Foulkes estimate   =     -95.10604110 Ry
     estimated scf accuracy    <       0.00000020 Ry

     iteration #  9     ecut=    40.00 Ry     beta=0.70
     Davidson diagonalization with overlap
     ethr =  2.27E-09,  avg # of iterations =  1.5

     total cpu time spent up to now is      449.1 secs

     total energy              =     -95.10604118 Ry
     Harris-Foulkes estimate   =     -95.10604111 Ry
     estimated scf accuracy    <       0.00000021 Ry

     iteration # 10     ecut=    40.00 Ry     beta=0.70
     Davidson diagonalization with overlap
     ethr =  2.27E-09,  avg # of iterations =  1.0

     total cpu time spent up to now is      454.1 secs

     total energy              =     -95.10604092 Ry
     Harris-Foulkes estimate   =     -95.10604118 Ry
     estimated scf accuracy    <       0.00000037 Ry

     iteration # 11     ecut=    40.00 Ry     beta=0.70
     Davidson diagonalization with overlap
     ethr =  2.27E-09,  avg # of iterations =  2.0

     total cpu time spent up to now is      460.0 secs

     total energy              =     -95.10604101 Ry
     Harris-Foulkes estimate   =     -95.10604101 Ry
     estimated scf accuracy    <          5.5E-09 Ry

     iteration # 12     ecut=    40.00 Ry     beta=0.70
     Davidson diagonalization with overlap
     ethr =  6.15E-11,  avg # of iterations =  1.1

     total cpu time spent up to now is      465.0 secs

     total energy              =     -95.10604101 Ry
     Harris-Foulkes estimate   =     -95.10604101 Ry
     estimated scf accuracy    <          5.4E-10 Ry

     iteration # 13     ecut=    40.00 Ry     beta=0.70
     Davidson diagonalization with overlap
     ethr =  6.04E-12,  avg # of iterations =  2.0

     total cpu time spent up to now is      471.0 secs

     End of self-consistent calculation

     Number of k-points >= 100: set verbosity='high' to print the bands.

     the Fermi energy is     1.3878 ev

!    total energy              =     -95.10604101 Ry
     Harris-Foulkes estimate   =     -95.10604101 Ry
     estimated scf accuracy    <          1.3E-11 Ry

     The total energy is the sum of the following terms:

     one-electron contribution =     -89.29636566 Ry
     hartree contribution      =      44.92631178 Ry
     xc contribution           =     -14.26167687 Ry
     ewald contribution        =     -36.47426092 Ry
     smearing contrib. (-TS)   =      -0.00004934 Ry

     convergence has been achieved in  13 iterations

     Forces acting on atoms (cartesian axes, Ry/au):

     atom    1 type  1   force =     0.00000000    0.00000000    0.00000000

     Total force =     0.000000     Total SCF correction =     0.000000


     Computing stress (Cartesian axis) and pressure

          total   stress  (Ry/bohr**3)                   (kbar)     P=   -7.33
  -0.00004984  -0.00000000  -0.00000000         -7.33     -0.00     -0.00
  -0.00000000  -0.00004984  -0.00000000         -0.00     -7.33     -0.00
  -0.00000000  -0.00000000  -0.00004984         -0.00     -0.00     -7.33


     number of scf cycles    =   7
     number of bfgs steps    =   6

     enthalpy old            =     -95.1238358768 Ry
     enthalpy new            =     -95.1239795389 Ry

     CASE: enthalpy_new < enthalpy_old

     new trust radius        =       0.0370353614 bohr
     new conv_thr            =            1.0E-10 Ry

     new unit-cell volume =    273.01240 a.u.^3 (    40.45626 Ang^3 )
     density =      0.94363 g/cm^3

CELL_PARAMETERS (alat=  9.96634774)
  -0.516632144  -0.000000000   0.516632144
   0.000000000   0.516632144   0.516632144
  -0.516632144   0.516632144  -0.000000000

ATOMIC_POSITIONS (crystal)
Na       0.000000000   0.000000000   0.000000000



     Writing output data file na.fcc.save
     NEW-OLD atomic charge density approx. for the potential
     extrapolated charge    9.30069, renormalised to    9.00000

     total cpu time spent up to now is      473.9 secs

     per-process dynamical memory:    52.6 Mb

     Self-consistent Calculation

     iteration #  1     ecut=    40.00 Ry     beta=0.70
     Davidson diagonalization with overlap
     ethr =  1.00E-06,  avg # of iterations =  4.4

     total cpu time spent up to now is      483.5 secs

     total energy              =     -95.03721894 Ry
     Harris-Foulkes estimate   =     -92.69047901 Ry
     estimated scf accuracy    <       0.03797437 Ry

     iteration #  2     ecut=    40.00 Ry     beta=0.70
     Davidson diagonalization with overlap
     ethr =  4.22E-04,  avg # of iterations =  3.0

     total cpu time spent up to now is      491.1 secs

     total energy              =     -95.10755762 Ry
     Harris-Foulkes estimate   =     -95.13545706 Ry
     estimated scf accuracy    <       0.06351909 Ry

     iteration #  3     ecut=    40.00 Ry     beta=0.70
     Davidson diagonalization with overlap
     ethr =  4.22E-04,  avg # of iterations =  1.4

     total cpu time spent up to now is      496.2 secs

     total energy              =     -95.10698164 Ry
     Harris-Foulkes estimate   =     -95.11144191 Ry
     estimated scf accuracy    <       0.01324985 Ry

     iteration #  4     ecut=    40.00 Ry     beta=0.70
     Davidson diagonalization with overlap
     ethr =  1.47E-04,  avg # of iterations =  1.0

     total cpu time spent up to now is      501.2 secs

     total energy              =     -95.10597828 Ry
     Harris-Foulkes estimate   =     -95.10757342 Ry
     estimated scf accuracy    <       0.00442484 Ry

     iteration #  5     ecut=    40.00 Ry     beta=0.70
     Davidson diagonalization with overlap
     ethr =  4.92E-05,  avg # of iterations =  1.0

     total cpu time spent up to now is      506.2 secs

     total energy              =     -95.10562717 Ry
     Harris-Foulkes estimate   =     -95.10617077 Ry
     estimated scf accuracy    <       0.00139994 Ry

     iteration #  6     ecut=    40.00 Ry     beta=0.70
     Davidson diagonalization with overlap
     ethr =  1.56E-05,  avg # of iterations =  1.0

     total cpu time spent up to now is      511.2 secs

     total energy              =     -95.10544757 Ry
     Harris-Foulkes estimate   =     -95.10569497 Ry
     estimated scf accuracy    <       0.00038827 Ry

     iteration #  7     ecut=    40.00 Ry     beta=0.70
     Davidson diagonalization with overlap
     ethr =  4.31E-06,  avg # of iterations =  2.2

     total cpu time spent up to now is      517.2 secs

     total energy              =     -95.10551483 Ry
     Harris-Foulkes estimate   =     -95.10551727 Ry
     estimated scf accuracy    <       0.00000361 Ry

     iteration #  8     ecut=    40.00 Ry     beta=0.70
     Davidson diagonalization with overlap
     ethr =  4.01E-08,  avg # of iterations =  2.1

     total cpu time spent up to now is      523.3 secs

     total energy              =     -95.10551608 Ry
     Harris-Foulkes estimate   =     -95.10551577 Ry
     estimated scf accuracy    <          7.7E-09 Ry

     iteration #  9     ecut=    40.00 Ry     beta=0.70
     Davidson diagonalization with overlap
     ethr =  8.60E-11,  avg # of iterations =  3.0

     total cpu time spent up to now is      530.5 secs

     total energy              =     -95.10551576 Ry
     Harris-Foulkes estimate   =     -95.10551631 Ry
     estimated scf accuracy    <       0.00000115 Ry

     iteration # 10     ecut=    40.00 Ry     beta=0.70
     Davidson diagonalization with overlap
     ethr =  8.60E-11,  avg # of iterations =  3.0

     total cpu time spent up to now is      537.5 secs

     total energy              =     -95.10551574 Ry
     Harris-Foulkes estimate   =     -95.10551585 Ry
     estimated scf accuracy    <       0.00000017 Ry

     iteration # 11     ecut=    40.00 Ry     beta=0.70
     Davidson diagonalization with overlap
     ethr =  8.60E-11,  avg # of iterations =  3.0

     total cpu time spent up to now is      544.4 secs

     total energy              =     -95.10551577 Ry
     Harris-Foulkes estimate   =     -95.10551577 Ry
     estimated scf accuracy    <          9.8E-10 Ry

     iteration # 12     ecut=    40.00 Ry     beta=0.70
     Davidson diagonalization with overlap
     ethr =  1.09E-11,  avg # of iterations =  2.0

     total cpu time spent up to now is      550.2 secs

     total energy              =     -95.10551577 Ry
     Harris-Foulkes estimate   =     -95.10551577 Ry
     estimated scf accuracy    <          1.2E-10 Ry

     iteration # 13     ecut=    40.00 Ry     beta=0.70
     Davidson diagonalization with overlap
     ethr =  1.34E-12,  avg # of iterations =  1.6

     total cpu time spent up to now is      555.4 secs

     End of self-consistent calculation

     Number of k-points >= 100: set verbosity='high' to print the bands.

     the Fermi energy is     1.2566 ev

!    total energy              =     -95.10551577 Ry
     Harris-Foulkes estimate   =     -95.10551577 Ry
     estimated scf accuracy    <          1.7E-12 Ry

     The total energy is the sum of the following terms:

     one-electron contribution =     -90.01992352 Ry
     hartree contribution      =      45.23509634 Ry
     xc contribution           =     -14.25747279 Ry
     ewald contribution        =     -36.06316493 Ry
     smearing contrib. (-TS)   =      -0.00005086 Ry

     convergence has been achieved in  13 iterations

     Forces acting on atoms (cartesian axes, Ry/au):

     atom    1 type  1   force =     0.00000000    0.00000000    0.00000000

     Total force =     0.000000     Total SCF correction =     0.000000


     Computing stress (Cartesian axis) and pressure

          total   stress  (Ry/bohr**3)                   (kbar)     P=   -9.55
  -0.00006491   0.00000000   0.00000000         -9.55      0.00      0.00
   0.00000000  -0.00006491  -0.00000000          0.00     -9.55     -0.00
   0.00000000  -0.00000000  -0.00006491          0.00     -0.00     -9.55


     bfgs converged in   8 scf cycles and   7 bfgs steps
     (criteria: energy <  1.0E-04 Ry, force <  1.0E-03Ry/Bohr, cell <  5.0E-01kbar)

     End of BFGS Geometry Optimization

     Final enthalpy =     -95.1240747804 Ry
Begin final coordinates
     new unit-cell volume =    273.01240 a.u.^3 (    40.45626 Ang^3 )
     density =      0.94363 g/cm^3

CELL_PARAMETERS (alat=  9.96634774)
  -0.516632144  -0.000000000   0.516632144
   0.000000000   0.516632144   0.516632144
  -0.516632144   0.516632144  -0.000000000

ATOMIC_POSITIONS (crystal)
Na       0.000000000   0.000000000   0.000000000
End final coordinates



     A final scf calculation at the relaxed structure.
     The G-vectors are recalculated for the final unit cell
     Results may differ from those at the preceding step.

     Parallelization info
     --------------------
     sticks:   dense  smooth     PW     G-vecs:    dense   smooth      PW
     Min         289     145     49                 6614     2342     451
     Max         290     146     50                 6619     2345     453
     Sum        1159     583    199                26469     9377    1807



     bravais-lattice index     =            2
     lattice parameter (alat)  =       9.9663  a.u.
     unit-cell volume          =     273.0124 (a.u.)^3
     number of atoms/cell      =            1
     number of atomic types    =            1
     number of electrons       =         9.00
     number of Kohn-Sham states=            9
     kinetic-energy cutoff     =      40.0000  Ry
     charge density cutoff     =     320.0000  Ry
     convergence threshold     =      1.0E-10
     mixing beta               =       0.7000
     number of iterations used =            8  plain     mixing
     Exchange-correlation      = SLA  PW   PBE  PBE ( 1  4  3  4 0 0)

     celldm(1)=   9.966348  celldm(2)=   0.000000  celldm(3)=   0.000000
     celldm(4)=   0.000000  celldm(5)=   0.000000  celldm(6)=   0.000000

     crystal axes: (cart. coord. in units of alat)
               a(1) = (  -0.516632  -0.000000   0.516632 )  
               a(2) = (   0.000000   0.516632   0.516632 )  
               a(3) = (  -0.516632   0.516632  -0.000000 )  

     reciprocal axes: (cart. coord. in units 2 pi/alat)
               b(1) = ( -0.967807 -0.967807  0.967807 )  
               b(2) = (  0.967807  0.967807  0.967807 )  
               b(3) = ( -0.967807  0.967807 -0.967807 )  


     PseudoPot. # 1 for Na read from file:
     /home/s1333534/quantum_espresso/qe-6.1/pseudo/Na_pbe_v1.uspp.F.UPF
     MD5 check sum: 76a99c7e9422403d3e93cbc85ab7bccb
     Pseudo is Ultrasoft, Zval =  9.0
     Generated by new atomic code, or converted to UPF format
     Using radial grid of  819 points,  5 beta functions with: 
                l(1) =   0
                l(2) =   0
                l(3) =   1
                l(4) =   1
                l(5) =   2
     Q(r) pseudized with  8 coefficients,  rinner =    1.250   1.250   1.250
                                                       1.250   1.250

     atomic species   valence    mass     pseudopotential
        Na             9.00    22.99000     Na( 1.00)

     48 Sym. Ops., with inversion, found



   Cartesian axes

     site n.     atom                  positions (alat units)
         1           Na  tau(   1) = (   0.0000000   0.0000000   0.0000000  )

     number of k points=   770  Marzari-Vanderbilt smearing, width (Ry)=  0.0200

     Number of k-points >= 100: set verbosity='high' to print them.

     Dense  grid:    26469 G-vectors     FFT dimensions: (  45,  45,  45)

     Smooth grid:     9377 G-vectors     FFT dimensions: (  30,  30,  30)

     Estimated max dynamical RAM per process >      35.52MB

     Estimated total allocated dynamical RAM >     142.07MB

     Initial potential from superposition of free atoms

     starting charge    8.99371, renormalised to    9.00000
     Starting wfc are    5 randomized atomic wfcs +    4 random wfc

     Writing output data file na.fcc.save

     total cpu time spent up to now is      560.4 secs

     per-process dynamical memory:    53.5 Mb

     Self-consistent Calculation

     iteration #  1     ecut=    40.00 Ry     beta=0.70
     Davidson diagonalization with overlap
     c_bands:  1 eigenvalues not converged
     c_bands:  1 eigenvalues not converged
     c_bands:  1 eigenvalues not converged
     c_bands:  1 eigenvalues not converged
     c_bands:  1 eigenvalues not converged
     c_bands:  1 eigenvalues not converged
     c_bands:  1 eigenvalues not converged
     c_bands:  1 eigenvalues not converged
     c_bands:  1 eigenvalues not converged
     c_bands:  1 eigenvalues not converged
     c_bands:  1 eigenvalues not converged
     c_bands:  1 eigenvalues not converged
     c_bands:  1 eigenvalues not converged
     c_bands:  1 eigenvalues not converged
     c_bands:  1 eigenvalues not converged
     c_bands:  1 eigenvalues not converged
     c_bands:  1 eigenvalues not converged
     c_bands:  1 eigenvalues not converged
     c_bands:  1 eigenvalues not converged
     c_bands:  1 eigenvalues not converged
     c_bands:  1 eigenvalues not converged
     c_bands:  1 eigenvalues not converged
     ethr =  1.00E-06,  avg # of iterations = 11.8

     total cpu time spent up to now is      577.8 secs

     total energy              =     -95.10600108 Ry
     Harris-Foulkes estimate   =     -95.10615055 Ry
     estimated scf accuracy    <       0.00087277 Ry

     iteration #  2     ecut=    40.00 Ry     beta=0.70
     Davidson diagonalization with overlap
     ethr =  9.70E-06,  avg # of iterations =  2.0

     total cpu time spent up to now is      583.5 secs

     total energy              =     -95.10609626 Ry
     Harris-Foulkes estimate   =     -95.10611535 Ry
     estimated scf accuracy    <       0.00009671 Ry

     iteration #  3     ecut=    40.00 Ry     beta=0.70
     Davidson diagonalization with overlap
     ethr =  1.07E-06,  avg # of iterations =  2.0

     total cpu time spent up to now is      589.5 secs

     total energy              =     -95.10610777 Ry
     Harris-Foulkes estimate   =     -95.10610874 Ry
     estimated scf accuracy    <       0.00000597 Ry

     iteration #  4     ecut=    40.00 Ry     beta=0.70
     Davidson diagonalization with overlap
     ethr =  6.64E-08,  avg # of iterations =  1.0

     total cpu time spent up to now is      594.7 secs

     total energy              =     -95.10610835 Ry
     Harris-Foulkes estimate   =     -95.10610830 Ry
     estimated scf accuracy    <       0.00000001 Ry

     iteration #  5     ecut=    40.00 Ry     beta=0.70
     Davidson diagonalization with overlap
     ethr =  1.41E-10,  avg # of iterations =  3.0

     total cpu time spent up to now is      601.7 secs

     total energy              =     -95.10610838 Ry
     Harris-Foulkes estimate   =     -95.10610838 Ry
     estimated scf accuracy    <          1.9E-09 Ry

     iteration #  6     ecut=    40.00 Ry     beta=0.70
     Davidson diagonalization with overlap
     ethr =  2.06E-11,  avg # of iterations =  1.6

     total cpu time spent up to now is      607.1 secs

     End of self-consistent calculation

     Number of k-points >= 100: set verbosity='high' to print the bands.

     the Fermi energy is     1.2572 ev

!    total energy              =     -95.10610838 Ry
     Harris-Foulkes estimate   =     -95.10610838 Ry
     estimated scf accuracy    <          5.1E-11 Ry

     The total energy is the sum of the following terms:

     one-electron contribution =     -90.02054390 Ry
     hartree contribution      =      45.23526556 Ry
     xc contribution           =     -14.25761424 Ry
     ewald contribution        =     -36.06316493 Ry
     smearing contrib. (-TS)   =      -0.00005088 Ry

     convergence has been achieved in   6 iterations

     Forces acting on atoms (cartesian axes, Ry/au):

     atom    1 type  1   force =     0.00000000    0.00000000    0.00000000

     Total force =     0.000000     Total SCF correction =     0.000000


     Computing stress (Cartesian axis) and pressure

          total   stress  (Ry/bohr**3)                   (kbar)     P=   -8.27
  -0.00005620  -0.00000000  -0.00000000         -8.27     -0.00     -0.00
  -0.00000000  -0.00005620   0.00000000         -0.00     -8.27      0.00
  -0.00000000   0.00000000  -0.00005620         -0.00      0.00     -8.27


     Writing output data file na.fcc.save

     init_run     :      4.65s CPU      4.85s WALL (       2 calls)
     electrons    :    552.89s CPU    579.10s WALL (       9 calls)
     update_pot   :      1.63s CPU      1.63s WALL (       7 calls)
     forces       :      2.48s CPU      2.52s WALL (       9 calls)
     stress       :     14.55s CPU     14.60s WALL (       9 calls)

     Called by init_run:
     wfcinit      :      3.83s CPU      4.02s WALL (       2 calls)
     potinit      :      0.11s CPU      0.11s WALL (       2 calls)

     Called by electrons:
     c_bands      :    453.99s CPU    476.17s WALL (      97 calls)
     sum_band     :     95.54s CPU     99.50s WALL (      97 calls)
     v_of_rho     :      1.86s CPU      1.89s WALL (     105 calls)
     newd         :      1.50s CPU      1.51s WALL (     105 calls)
     mix_rho      :      0.15s CPU      0.15s WALL (      97 calls)

     Called by c_bands:
     init_us_2    :     18.46s CPU     18.14s WALL (  164780 calls)
     cegterg      :    435.12s CPU    456.96s WALL (   74690 calls)

     Called by sum_band:
     sum_band:bec :      0.04s CPU      0.25s WALL (   74690 calls)
     addusdens    :      1.82s CPU      1.83s WALL (      97 calls)

     Called by *egterg:
     h_psi        :    377.27s CPU    396.93s WALL (  220826 calls)
     s_psi        :      4.12s CPU      3.38s WALL (  220826 calls)
     g_psi        :      2.07s CPU      2.15s WALL (  144596 calls)
     cdiaghg      :     28.26s CPU     29.33s WALL (  213126 calls)

     Called by h_psi:
     h_psi:pot    :    376.24s CPU    395.34s WALL (  220826 calls)
     h_psi:calbec :      7.58s CPU      5.98s WALL (  220826 calls)
     vloc_psi     :    366.24s CPU    385.15s WALL (  220826 calls)
     add_vuspsi   :      2.14s CPU      3.64s WALL (  220826 calls)

     General routines
     calbec       :     12.95s CPU     10.83s WALL (  330166 calls)
     fft          :      0.90s CPU      0.92s WALL (    1727 calls)
     ffts         :      0.03s CPU      0.03s WALL (     202 calls)
     fftw         :    393.52s CPU    406.13s WALL ( 3968612 calls)
     interpolate  :      0.15s CPU      0.15s WALL (     202 calls)
     davcio       :      0.01s CPU      0.03s WALL (    1540 calls)

     Parallel routines
     fft_scatter  :     49.56s CPU     71.21s WALL ( 3970541 calls)

     PWSCF        :  9m42.49s CPU    10m 9.68s WALL


   This run was terminated on:  13:34: 1  20Dec2017            

=------------------------------------------------------------------------------=
   JOB DONE.
=------------------------------------------------------------------------------=
