
     Program PWSCF v.6.1 (svn rev. 13369) starts on 20Dec2017 at 13:47:38 

     This program is part of the open-source Quantum ESPRESSO suite
     for quantum simulation of materials; please cite
         "P. Giannozzi et al., J. Phys.:Condens. Matter 21 395502 (2009);
          URL http://www.quantum-espresso.org", 
     in publications or presentations arising from this work. More details at
     http://www.quantum-espresso.org/quote

     Parallel version (MPI), running on     4 processors
     R & G space division:  proc/nbgrp/npool/nimage =       4
     Waiting for input...
     Reading input from standard input

     Current dimensions of program PWSCF are:
     Max number of different atomic species (ntypx) = 10
     Max number of k-points (npk) =  40000
     Max angular momentum in pseudopotentials (lmaxx) =  3

     Subspace diagonalization in iterative solution of the eigenvalue problem:
     a serial algorithm will be used


     Parallelization info
     --------------------
     sticks:   dense  smooth     PW     G-vecs:    dense   smooth      PW
     Min         241     124     40                 4996     1779     351
     Max         244     126     41                 4997     1781     354
     Sum         967     499    163                19987     7119    1411



     bravais-lattice index     =            2
     lattice parameter (alat)  =       9.3967  a.u.
     unit-cell volume          =     207.4272 (a.u.)^3
     number of atoms/cell      =            1
     number of atomic types    =            1
     number of electrons       =         9.00
     number of Kohn-Sham states=            9
     kinetic-energy cutoff     =      40.0000  Ry
     charge density cutoff     =     320.0000  Ry
     convergence threshold     =      1.0E-08
     mixing beta               =       0.7000
     number of iterations used =            8  plain     mixing
     Exchange-correlation      = SLA  PW   PBE  PBE ( 1  4  3  4 0 0)
     nstep                     =           50


     celldm(1)=   9.396697  celldm(2)=   0.000000  celldm(3)=   0.000000
     celldm(4)=   0.000000  celldm(5)=   0.000000  celldm(6)=   0.000000

     crystal axes: (cart. coord. in units of alat)
               a(1) = (  -0.500000   0.000000   0.500000 )  
               a(2) = (   0.000000   0.500000   0.500000 )  
               a(3) = (  -0.500000   0.500000   0.000000 )  

     reciprocal axes: (cart. coord. in units 2 pi/alat)
               b(1) = ( -1.000000 -1.000000  1.000000 )  
               b(2) = (  1.000000  1.000000  1.000000 )  
               b(3) = ( -1.000000  1.000000 -1.000000 )  


     PseudoPot. # 1 for Na read from file:
     /home/s1333534/quantum_espresso/qe-6.1/pseudo/Na_pbe_v1.uspp.F.UPF
     MD5 check sum: 76a99c7e9422403d3e93cbc85ab7bccb
     Pseudo is Ultrasoft, Zval =  9.0
     Generated by new atomic code, or converted to UPF format
     Using radial grid of  819 points,  5 beta functions with: 
                l(1) =   0
                l(2) =   0
                l(3) =   1
                l(4) =   1
                l(5) =   2
     Q(r) pseudized with  8 coefficients,  rinner =    1.250   1.250   1.250
                                                       1.250   1.250

     atomic species   valence    mass     pseudopotential
        Na             9.00    22.99000     Na( 1.00)

     48 Sym. Ops., with inversion, found



   Cartesian axes

     site n.     atom                  positions (alat units)
         1           Na  tau(   1) = (   0.0000000   0.0000000   0.0000000  )

     number of k points=   770  Marzari-Vanderbilt smearing, width (Ry)=  0.0200

     Number of k-points >= 100: set verbosity='high' to print them.

     Dense  grid:    19987 G-vectors     FFT dimensions: (  40,  40,  40)

     Smooth grid:     7119 G-vectors     FFT dimensions: (  27,  27,  27)

     Estimated max dynamical RAM per process >      26.80MB

     Estimated total allocated dynamical RAM >     107.21MB

     Initial potential from superposition of free atoms

     starting charge    8.99371, renormalised to    9.00000
     Starting wfc are    5 randomized atomic wfcs +    4 random wfc

     total cpu time spent up to now is        2.1 secs

     per-process dynamical memory:    34.8 Mb

     Self-consistent Calculation

     iteration #  1     ecut=    40.00 Ry     beta=0.70
     Davidson diagonalization with overlap
     ethr =  1.00E-02,  avg # of iterations =  5.3

     Threshold (ethr) on eigenvalues was too large:
     Diagonalizing with lowered threshold

     Davidson diagonalization with overlap
     ethr =  1.12E-05,  avg # of iterations =  3.6

     total cpu time spent up to now is       15.0 secs

     total energy              =     -95.10389096 Ry
     Harris-Foulkes estimate   =     -95.10420700 Ry
     estimated scf accuracy    <       0.00100222 Ry

     iteration #  2     ecut=    40.00 Ry     beta=0.70
     Davidson diagonalization with overlap
     ethr =  1.11E-05,  avg # of iterations =  2.0

     total cpu time spent up to now is       19.5 secs

     total energy              =     -95.10401128 Ry
     Harris-Foulkes estimate   =     -95.10403959 Ry
     estimated scf accuracy    <       0.00011119 Ry

     iteration #  3     ecut=    40.00 Ry     beta=0.70
     Davidson diagonalization with overlap
     ethr =  1.24E-06,  avg # of iterations =  2.1

     total cpu time spent up to now is       24.2 secs

     total energy              =     -95.10402437 Ry
     Harris-Foulkes estimate   =     -95.10402565 Ry
     estimated scf accuracy    <       0.00000663 Ry

     iteration #  4     ecut=    40.00 Ry     beta=0.70
     Davidson diagonalization with overlap
     ethr =  7.36E-08,  avg # of iterations =  1.0

     total cpu time spent up to now is       28.2 secs

     End of self-consistent calculation

     Number of k-points >= 100: set verbosity='high' to print the bands.

     the Fermi energy is     2.4671 ev

!    total energy              =     -95.10402499 Ry
     Harris-Foulkes estimate   =     -95.10402493 Ry
     estimated scf accuracy    <          9.1E-09 Ry

     The total energy is the sum of the following terms:

     one-electron contribution =     -83.95580613 Ry
     hartree contribution      =      42.66759296 Ry
     xc contribution           =     -14.29402970 Ry
     ewald contribution        =     -39.52174188 Ry
     smearing contrib. (-TS)   =      -0.00004024 Ry

     convergence has been achieved in   4 iterations

     Forces acting on atoms (cartesian axes, Ry/au):

     atom    1 type  1   force =     0.00000000    0.00000000    0.00000000

     Total force =     0.000000     Total SCF correction =     0.000000


     Computing stress (Cartesian axis) and pressure

          total   stress  (Ry/bohr**3)                   (kbar)     P=   16.94
   0.00011516  -0.00000000  -0.00000000         16.94     -0.00     -0.00
  -0.00000000   0.00011516   0.00000000         -0.00     16.94      0.00
  -0.00000000   0.00000000   0.00011516         -0.00      0.00     16.94


     BFGS Geometry Optimization

     number of scf cycles    =   1
     number of bfgs steps    =   0

     enthalpy new            =     -95.0758237553 Ry

     new trust radius        =       0.0014977244 bohr
     new conv_thr            =       0.0000000100 Ry

     new unit-cell volume =    207.10379 a.u.^3 (    30.68961 Ang^3 )
     density =      1.24393 g/cm^3

CELL_PARAMETERS (alat=  9.39669686)
  -0.499740021   0.000000000   0.499740021
  -0.000000000   0.499740021   0.499740021
  -0.499740021   0.499740021   0.000000000

ATOMIC_POSITIONS (crystal)
Na       0.000000000   0.000000000   0.000000000



     Writing output data file na.fcc.save
     NEW-OLD atomic charge density approx. for the potential
     extrapolated charge    8.98596, renormalised to    9.00000

     total cpu time spent up to now is       30.7 secs

     per-process dynamical memory:    44.2 Mb

     Self-consistent Calculation

     iteration #  1     ecut=    40.00 Ry     beta=0.70
     Davidson diagonalization with overlap
     ethr =  1.00E-06,  avg # of iterations =  2.1

     total cpu time spent up to now is       36.3 secs

     total energy              =     -95.10385941 Ry
     Harris-Foulkes estimate   =     -95.20809580 Ry
     estimated scf accuracy    <       0.00007173 Ry

     iteration #  2     ecut=    40.00 Ry     beta=0.70
     Davidson diagonalization with overlap
     ethr =  7.97E-07,  avg # of iterations =  2.9

     total cpu time spent up to now is       41.7 secs

     total energy              =     -95.10398943 Ry
     Harris-Foulkes estimate   =     -95.10404202 Ry
     estimated scf accuracy    <       0.00011973 Ry

     iteration #  3     ecut=    40.00 Ry     beta=0.70
     Davidson diagonalization with overlap
     ethr =  7.97E-07,  avg # of iterations =  1.5

     total cpu time spent up to now is       45.9 secs

     total energy              =     -95.10399018 Ry
     Harris-Foulkes estimate   =     -95.10399730 Ry
     estimated scf accuracy    <       0.00002328 Ry

     iteration #  4     ecut=    40.00 Ry     beta=0.70
     Davidson diagonalization with overlap
     ethr =  2.59E-07,  avg # of iterations =  1.0

     total cpu time spent up to now is       49.9 secs

     total energy              =     -95.10398871 Ry
     Harris-Foulkes estimate   =     -95.10399117 Ry
     estimated scf accuracy    <       0.00000863 Ry

     iteration #  5     ecut=    40.00 Ry     beta=0.70
     Davidson diagonalization with overlap
     ethr =  9.59E-08,  avg # of iterations =  1.0

     total cpu time spent up to now is       53.8 secs

     total energy              =     -95.10398805 Ry
     Harris-Foulkes estimate   =     -95.10398893 Ry
     estimated scf accuracy    <       0.00000379 Ry

     iteration #  6     ecut=    40.00 Ry     beta=0.70
     Davidson diagonalization with overlap
     ethr =  4.21E-08,  avg # of iterations =  1.0

     total cpu time spent up to now is       57.8 secs

     total energy              =     -95.10398699 Ry
     Harris-Foulkes estimate   =     -95.10398811 Ry
     estimated scf accuracy    <       0.00000202 Ry

     iteration #  7     ecut=    40.00 Ry     beta=0.70
     Davidson diagonalization with overlap
     ethr =  2.24E-08,  avg # of iterations =  1.9

     total cpu time spent up to now is       62.2 secs

     total energy              =     -95.10398715 Ry
     Harris-Foulkes estimate   =     -95.10398722 Ry
     estimated scf accuracy    <       0.00000012 Ry

     iteration #  8     ecut=    40.00 Ry     beta=0.70
     Davidson diagonalization with overlap
     ethr =  1.39E-09,  avg # of iterations =  2.0

     total cpu time spent up to now is       66.8 secs

     End of self-consistent calculation

     Number of k-points >= 100: set verbosity='high' to print the bands.

     the Fermi energy is     2.4748 ev

!    total energy              =     -95.10398717 Ry
     Harris-Foulkes estimate   =     -95.10398717 Ry
     estimated scf accuracy    <          4.1E-09 Ry

     The total energy is the sum of the following terms:

     one-electron contribution =     -83.91984718 Ry
     hartree contribution      =      42.65244051 Ry
     xc contribution           =     -14.29423806 Ry
     ewald contribution        =     -39.54230226 Ry
     smearing contrib. (-TS)   =      -0.00004019 Ry

     convergence has been achieved in   8 iterations

     Forces acting on atoms (cartesian axes, Ry/au):

     atom    1 type  1   force =     0.00000000    0.00000000    0.00000000

     Total force =     0.000000     Total SCF correction =     0.000000


     Computing stress (Cartesian axis) and pressure

          total   stress  (Ry/bohr**3)                   (kbar)     P=   16.72
   0.00011364  -0.00000000   0.00000000         16.72     -0.00      0.00
  -0.00000000   0.00011364  -0.00000000         -0.00     16.72     -0.00
   0.00000000  -0.00000000   0.00011364          0.00     -0.00     16.72


     number of scf cycles    =   2
     number of bfgs steps    =   1

     enthalpy old            =     -95.0758237553 Ry
     enthalpy new            =     -95.0758299056 Ry

     CASE: enthalpy_new < enthalpy_old


     WARNING: bfgs curvature condition failed, Theta= 0.746
     new trust radius        =       0.0006562549 bohr
     new conv_thr            =            1.0E-10 Ry

     new unit-cell volume =    206.96215 a.u.^3 (    30.66863 Ang^3 )
     density =      1.24478 g/cm^3

CELL_PARAMETERS (alat=  9.39669686)
  -0.499626076   0.000000000   0.499626076
  -0.000000000   0.499626076   0.499626076
  -0.499626076   0.499626076   0.000000000

ATOMIC_POSITIONS (crystal)
Na       0.000000000   0.000000000   0.000000000



     Writing output data file na.fcc.save
     NEW-OLD atomic charge density approx. for the potential
     extrapolated charge    8.99385, renormalised to    9.00000

     total cpu time spent up to now is       69.4 secs

     per-process dynamical memory:    44.2 Mb

     Self-consistent Calculation

     iteration #  1     ecut=    40.00 Ry     beta=0.70
     Davidson diagonalization with overlap
     ethr =  1.00E-06,  avg # of iterations =  2.0

     total cpu time spent up to now is       74.7 secs

     total energy              =     -95.10394555 Ry
     Harris-Foulkes estimate   =     -95.14959355 Ry
     estimated scf accuracy    <       0.00001415 Ry

     iteration #  2     ecut=    40.00 Ry     beta=0.70
     Davidson diagonalization with overlap
     ethr =  1.57E-07,  avg # of iterations =  2.9

     total cpu time spent up to now is       80.0 secs

     total energy              =     -95.10397082 Ry
     Harris-Foulkes estimate   =     -95.10398105 Ry
     estimated scf accuracy    <       0.00002319 Ry

     iteration #  3     ecut=    40.00 Ry     beta=0.70
     Davidson diagonalization with overlap
     ethr =  1.57E-07,  avg # of iterations =  1.5

     total cpu time spent up to now is       84.2 secs

     total energy              =     -95.10397115 Ry
     Harris-Foulkes estimate   =     -95.10397235 Ry
     estimated scf accuracy    <       0.00000447 Ry

     iteration #  4     ecut=    40.00 Ry     beta=0.70
     Davidson diagonalization with overlap
     ethr =  4.96E-08,  avg # of iterations =  1.0

     total cpu time spent up to now is       88.2 secs

     total energy              =     -95.10397073 Ry
     Harris-Foulkes estimate   =     -95.10397131 Ry
     estimated scf accuracy    <       0.00000192 Ry

     iteration #  5     ecut=    40.00 Ry     beta=0.70
     Davidson diagonalization with overlap
     ethr =  2.13E-08,  avg # of iterations =  1.0

     total cpu time spent up to now is       92.2 secs

     total energy              =     -95.10397052 Ry
     Harris-Foulkes estimate   =     -95.10397078 Ry
     estimated scf accuracy    <       0.00000078 Ry

     iteration #  6     ecut=    40.00 Ry     beta=0.70
     Davidson diagonalization with overlap
     ethr =  8.71E-09,  avg # of iterations =  1.0

     total cpu time spent up to now is       96.1 secs

     total energy              =     -95.10397037 Ry
     Harris-Foulkes estimate   =     -95.10397055 Ry
     estimated scf accuracy    <       0.00000028 Ry

     iteration #  7     ecut=    40.00 Ry     beta=0.70
     Davidson diagonalization with overlap
     ethr =  3.16E-09,  avg # of iterations =  2.0

     total cpu time spent up to now is      100.8 secs

     total energy              =     -95.10397042 Ry
     Harris-Foulkes estimate   =     -95.10397042 Ry
     estimated scf accuracy    <          3.6E-09 Ry

     iteration #  8     ecut=    40.00 Ry     beta=0.70
     Davidson diagonalization with overlap
     ethr =  3.95E-11,  avg # of iterations =  2.0

     total cpu time spent up to now is      105.6 secs

     total energy              =     -95.10397042 Ry
     Harris-Foulkes estimate   =     -95.10397042 Ry
     estimated scf accuracy    <          8.3E-10 Ry

     iteration #  9     ecut=    40.00 Ry     beta=0.70
     Davidson diagonalization with overlap
     ethr =  9.26E-12,  avg # of iterations =  1.0

     total cpu time spent up to now is      109.6 secs

     total energy              =     -95.10397042 Ry
     Harris-Foulkes estimate   =     -95.10397042 Ry
     estimated scf accuracy    <          7.1E-10 Ry

     iteration # 10     ecut=    40.00 Ry     beta=0.70
     Davidson diagonalization with overlap
     ethr =  7.87E-12,  avg # of iterations =  2.0

     total cpu time spent up to now is      114.3 secs

     End of self-consistent calculation

     Number of k-points >= 100: set verbosity='high' to print the bands.

     the Fermi energy is     2.4783 ev

!    total energy              =     -95.10397042 Ry
     Harris-Foulkes estimate   =     -95.10397042 Ry
     estimated scf accuracy    <          2.6E-11 Ry

     The total energy is the sum of the following terms:

     one-electron contribution =     -83.90437083 Ry
     hartree contribution      =      42.64615762 Ry
     xc contribution           =     -14.29439680 Ry
     ewald contribution        =     -39.55132024 Ry
     smearing contrib. (-TS)   =      -0.00004017 Ry

     convergence has been achieved in  10 iterations

     Forces acting on atoms (cartesian axes, Ry/au):

     atom    1 type  1   force =     0.00000000    0.00000000    0.00000000

     Total force =     0.000000     Total SCF correction =     0.000000


     Computing stress (Cartesian axis) and pressure

          total   stress  (Ry/bohr**3)                   (kbar)     P=   17.41
   0.00011835   0.00000000  -0.00000000         17.41      0.00     -0.00
   0.00000000   0.00011835   0.00000000          0.00     17.41      0.00
  -0.00000000   0.00000000   0.00011835         -0.00      0.00     17.41


     number of scf cycles    =   3
     number of bfgs steps    =   2

     enthalpy old            =     -95.0758299056 Ry
     enthalpy new            =     -95.0758324111 Ry

     CASE: enthalpy_new < enthalpy_old

     new trust radius        =       0.0009842702 bohr
     new conv_thr            =            1.0E-10 Ry

     new unit-cell volume =    206.74983 a.u.^3 (    30.63716 Ang^3 )
     density =      1.24606 g/cm^3

CELL_PARAMETERS (alat=  9.39669686)
  -0.499455160   0.000000000   0.499455160
  -0.000000000   0.499455160   0.499455160
  -0.499455160   0.499455160   0.000000000

ATOMIC_POSITIONS (crystal)
Na       0.000000000   0.000000000   0.000000000



     Writing output data file na.fcc.save
     NEW-OLD atomic charge density approx. for the potential
     extrapolated charge    8.99076, renormalised to    9.00000

     total cpu time spent up to now is      116.9 secs

     per-process dynamical memory:    44.2 Mb

     Self-consistent Calculation

     iteration #  1     ecut=    40.00 Ry     beta=0.70
     Davidson diagonalization with overlap
     ethr =  1.00E-06,  avg # of iterations =  2.0

     total cpu time spent up to now is      122.4 secs

     total energy              =     -95.10388984 Ry
     Harris-Foulkes estimate   =     -95.17238689 Ry
     estimated scf accuracy    <       0.00003096 Ry

     iteration #  2     ecut=    40.00 Ry     beta=0.70
     Davidson diagonalization with overlap
     ethr =  3.44E-07,  avg # of iterations =  2.9

     total cpu time spent up to now is      127.7 secs

     total energy              =     -95.10394610 Ry
     Harris-Foulkes estimate   =     -95.10396886 Ry
     estimated scf accuracy    <       0.00005183 Ry

     iteration #  3     ecut=    40.00 Ry     beta=0.70
     Davidson diagonalization with overlap
     ethr =  3.44E-07,  avg # of iterations =  1.5

     total cpu time spent up to now is      132.0 secs

     total energy              =     -95.10394672 Ry
     Harris-Foulkes estimate   =     -95.10394950 Ry
     estimated scf accuracy    <       0.00001011 Ry

     iteration #  4     ecut=    40.00 Ry     beta=0.70
     Davidson diagonalization with overlap
     ethr =  1.12E-07,  avg # of iterations =  1.0

     total cpu time spent up to now is      135.9 secs

     total energy              =     -95.10394578 Ry
     Harris-Foulkes estimate   =     -95.10394709 Ry
     estimated scf accuracy    <       0.00000427 Ry

     iteration #  5     ecut=    40.00 Ry     beta=0.70
     Davidson diagonalization with overlap
     ethr =  4.74E-08,  avg # of iterations =  1.0

     total cpu time spent up to now is      140.0 secs

     total energy              =     -95.10394534 Ry
     Harris-Foulkes estimate   =     -95.10394590 Ry
     estimated scf accuracy    <       0.00000173 Ry

     iteration #  6     ecut=    40.00 Ry     beta=0.70
     Davidson diagonalization with overlap
     ethr =  1.93E-08,  avg # of iterations =  1.0

     total cpu time spent up to now is      144.0 secs

     total energy              =     -95.10394501 Ry
     Harris-Foulkes estimate   =     -95.10394540 Ry
     estimated scf accuracy    <       0.00000065 Ry

     iteration #  7     ecut=    40.00 Ry     beta=0.70
     Davidson diagonalization with overlap
     ethr =  7.25E-09,  avg # of iterations =  2.0

     total cpu time spent up to now is      148.6 secs

     total energy              =     -95.10394510 Ry
     Harris-Foulkes estimate   =     -95.10394511 Ry
     estimated scf accuracy    <       0.00000002 Ry

     iteration #  8     ecut=    40.00 Ry     beta=0.70
     Davidson diagonalization with overlap
     ethr =  2.00E-10,  avg # of iterations =  2.0

     total cpu time spent up to now is      153.4 secs

     total energy              =     -95.10394510 Ry
     Harris-Foulkes estimate   =     -95.10394510 Ry
     estimated scf accuracy    <          5.1E-10 Ry

     iteration #  9     ecut=    40.00 Ry     beta=0.70
     Davidson diagonalization with overlap
     ethr =  5.64E-12,  avg # of iterations =  1.1

     total cpu time spent up to now is      157.4 secs

     total energy              =     -95.10394510 Ry
     Harris-Foulkes estimate   =     -95.10394510 Ry
     estimated scf accuracy    <          1.0E-09 Ry

     iteration # 10     ecut=    40.00 Ry     beta=0.70
     Davidson diagonalization with overlap
     ethr =  5.64E-12,  avg # of iterations =  2.0

     total cpu time spent up to now is      162.3 secs

     End of self-consistent calculation

     Number of k-points >= 100: set verbosity='high' to print the bands.

     the Fermi energy is     2.4835 ev

!    total energy              =     -95.10394510 Ry
     Harris-Foulkes estimate   =     -95.10394510 Ry
     estimated scf accuracy    <          7.9E-11 Ry

     The total energy is the sum of the following terms:

     one-electron contribution =     -83.88073719 Ry
     hartree contribution      =      42.63623097 Ry
     xc contribution           =     -14.29454382 Ry
     ewald contribution        =     -39.56485494 Ry
     smearing contrib. (-TS)   =      -0.00004013 Ry

     convergence has been achieved in  10 iterations

     Forces acting on atoms (cartesian axes, Ry/au):

     atom    1 type  1   force =     0.00000000    0.00000000    0.00000000

     Total force =     0.000000     Total SCF correction =     0.000000


     Computing stress (Cartesian axis) and pressure

          total   stress  (Ry/bohr**3)                   (kbar)     P=   17.54
   0.00011926  -0.00000000  -0.00000000         17.54     -0.00     -0.00
   0.00000000   0.00011926  -0.00000000          0.00     17.54     -0.00
  -0.00000000   0.00000000   0.00011926         -0.00      0.00     17.54


     number of scf cycles    =   4
     number of bfgs steps    =   3

     enthalpy old            =     -95.0758324111 Ry
     enthalpy new            =     -95.0758359609 Ry

     CASE: enthalpy_new < enthalpy_old


     WARNING: bfgs curvature condition failed, Theta= 0.921
     new trust radius        =       0.0014761527 bohr
     new conv_thr            =            1.0E-10 Ry

     new unit-cell volume =    206.43161 a.u.^3 (    30.59001 Ang^3 )
     density =      1.24798 g/cm^3

CELL_PARAMETERS (alat=  9.39669686)
  -0.499198785   0.000000000   0.499198785
  -0.000000000   0.499198785   0.499198785
  -0.499198785   0.499198785   0.000000000

ATOMIC_POSITIONS (crystal)
Na       0.000000000   0.000000000   0.000000000



     Writing output data file na.fcc.save
     NEW-OLD atomic charge density approx. for the potential
     extrapolated charge    8.98614, renormalised to    9.00000

     total cpu time spent up to now is      164.9 secs

     per-process dynamical memory:    44.2 Mb

     Self-consistent Calculation

     iteration #  1     ecut=    40.00 Ry     beta=0.70
     Davidson diagonalization with overlap
     ethr =  1.00E-06,  avg # of iterations =  2.0

     total cpu time spent up to now is      170.5 secs

     total energy              =     -95.10378241 Ry
     Harris-Foulkes estimate   =     -95.20658529 Ry
     estimated scf accuracy    <       0.00006966 Ry

     iteration #  2     ecut=    40.00 Ry     beta=0.70
     Davidson diagonalization with overlap
     ethr =  7.74E-07,  avg # of iterations =  2.9

     total cpu time spent up to now is      175.9 secs

     total energy              =     -95.10390893 Ry
     Harris-Foulkes estimate   =     -95.10396011 Ry
     estimated scf accuracy    <       0.00011657 Ry

     iteration #  3     ecut=    40.00 Ry     beta=0.70
     Davidson diagonalization with overlap
     ethr =  7.74E-07,  avg # of iterations =  1.5

     total cpu time spent up to now is      180.1 secs

     total energy              =     -95.10391031 Ry
     Harris-Foulkes estimate   =     -95.10391658 Ry
     estimated scf accuracy    <       0.00002270 Ry

     iteration #  4     ecut=    40.00 Ry     beta=0.70
     Davidson diagonalization with overlap
     ethr =  2.52E-07,  avg # of iterations =  1.0

     total cpu time spent up to now is      184.1 secs

     total energy              =     -95.10390821 Ry
     Harris-Foulkes estimate   =     -95.10391114 Ry
     estimated scf accuracy    <       0.00000955 Ry

     iteration #  5     ecut=    40.00 Ry     beta=0.70
     Davidson diagonalization with overlap
     ethr =  1.06E-07,  avg # of iterations =  1.0

     total cpu time spent up to now is      188.1 secs

     total energy              =     -95.10390727 Ry
     Harris-Foulkes estimate   =     -95.10390848 Ry
     estimated scf accuracy    <       0.00000387 Ry

     iteration #  6     ecut=    40.00 Ry     beta=0.70
     Davidson diagonalization with overlap
     ethr =  4.30E-08,  avg # of iterations =  1.0

     total cpu time spent up to now is      192.1 secs

     total energy              =     -95.10390647 Ry
     Harris-Foulkes estimate   =     -95.10390739 Ry
     estimated scf accuracy    <       0.00000150 Ry

     iteration #  7     ecut=    40.00 Ry     beta=0.70
     Davidson diagonalization with overlap
     ethr =  1.67E-08,  avg # of iterations =  2.0

     total cpu time spent up to now is      196.8 secs

     total energy              =     -95.10390669 Ry
     Harris-Foulkes estimate   =     -95.10390671 Ry
     estimated scf accuracy    <       0.00000003 Ry

     iteration #  8     ecut=    40.00 Ry     beta=0.70
     Davidson diagonalization with overlap
     ethr =  2.96E-10,  avg # of iterations =  2.0

     total cpu time spent up to now is      201.6 secs

     total energy              =     -95.10390670 Ry
     Harris-Foulkes estimate   =     -95.10390670 Ry
     estimated scf accuracy    <          1.4E-09 Ry

     iteration #  9     ecut=    40.00 Ry     beta=0.70
     Davidson diagonalization with overlap
     ethr =  1.51E-11,  avg # of iterations =  1.0

     total cpu time spent up to now is      205.6 secs

     total energy              =     -95.10390670 Ry
     Harris-Foulkes estimate   =     -95.10390670 Ry
     estimated scf accuracy    <          2.5E-09 Ry

     iteration # 10     ecut=    40.00 Ry     beta=0.70
     Davidson diagonalization with overlap
     ethr =  1.51E-11,  avg # of iterations =  2.0

     total cpu time spent up to now is      210.4 secs

     total energy              =     -95.10390670 Ry
     Harris-Foulkes estimate   =     -95.10390670 Ry
     estimated scf accuracy    <          2.2E-10 Ry

     iteration # 11     ecut=    40.00 Ry     beta=0.70
     Davidson diagonalization with overlap
     ethr =  2.50E-12,  avg # of iterations =  2.0

     total cpu time spent up to now is      215.0 secs

     End of self-consistent calculation

     Number of k-points >= 100: set verbosity='high' to print the bands.

     the Fermi energy is     2.4914 ev

!    total energy              =     -95.10390670 Ry
     Harris-Foulkes estimate   =     -95.10390670 Ry
     estimated scf accuracy    <          7.2E-12 Ry

     The total energy is the sum of the following terms:

     one-electron contribution =     -83.84531014 Ry
     hartree contribution      =      42.62139438 Ry
     xc contribution           =     -14.29477650 Ry
     ewald contribution        =     -39.58517436 Ry
     smearing contrib. (-TS)   =      -0.00004008 Ry

     convergence has been achieved in  11 iterations

     Forces acting on atoms (cartesian axes, Ry/au):

     atom    1 type  1   force =     0.00000000    0.00000000    0.00000000

     Total force =     0.000000     Total SCF correction =     0.000000


     Computing stress (Cartesian axis) and pressure

          total   stress  (Ry/bohr**3)                   (kbar)     P=   17.86
   0.00012142   0.00000000   0.00000000         17.86      0.00      0.00
   0.00000000   0.00012142  -0.00000000          0.00     17.86     -0.00
   0.00000000  -0.00000000   0.00012142          0.00     -0.00     17.86


     number of scf cycles    =   5
     number of bfgs steps    =   4

     enthalpy old            =     -95.0758359609 Ry
     enthalpy new            =     -95.0758408215 Ry

     CASE: enthalpy_new < enthalpy_old

     new trust radius        =       0.0022136607 bohr
     new conv_thr            =            1.0E-10 Ry

     new unit-cell volume =    205.95490 a.u.^3 (    30.51937 Ang^3 )
     density =      1.25087 g/cm^3

CELL_PARAMETERS (alat=  9.39669686)
  -0.498814223   0.000000000   0.498814223
  -0.000000000   0.498814223   0.498814223
  -0.498814223   0.498814223   0.000000000

ATOMIC_POSITIONS (crystal)
Na       0.000000000   0.000000000   0.000000000



     Writing output data file na.fcc.save
     NEW-OLD atomic charge density approx. for the potential
     extrapolated charge    8.97918, renormalised to    9.00000

     total cpu time spent up to now is      217.6 secs

     per-process dynamical memory:    44.2 Mb

     Self-consistent Calculation

     iteration #  1     ecut=    40.00 Ry     beta=0.70
     Davidson diagonalization with overlap
     ethr =  1.00E-06,  avg # of iterations =  2.0

     total cpu time spent up to now is      223.2 secs

     total energy              =     -95.10356887 Ry
     Harris-Foulkes estimate   =     -95.25790163 Ry
     estimated scf accuracy    <       0.00015642 Ry

     iteration #  2     ecut=    40.00 Ry     beta=0.70
     Davidson diagonalization with overlap
     ethr =  1.74E-06,  avg # of iterations =  3.0

     total cpu time spent up to now is      229.4 secs

     total energy              =     -95.10385310 Ry
     Harris-Foulkes estimate   =     -95.10396811 Ry
     estimated scf accuracy    <       0.00026201 Ry

     iteration #  3     ecut=    40.00 Ry     beta=0.70
     Davidson diagonalization with overlap
     ethr =  1.74E-06,  avg # of iterations =  1.6

     total cpu time spent up to now is      233.6 secs

     total energy              =     -95.10385470 Ry
     Harris-Foulkes estimate   =     -95.10387045 Ry
     estimated scf accuracy    <       0.00005055 Ry

     iteration #  4     ecut=    40.00 Ry     beta=0.70
     Davidson diagonalization with overlap
     ethr =  5.62E-07,  avg # of iterations =  1.0

     total cpu time spent up to now is      237.6 secs

     total energy              =     -95.10385072 Ry
     Harris-Foulkes estimate   =     -95.10385668 Ry
     estimated scf accuracy    <       0.00001862 Ry

     iteration #  5     ecut=    40.00 Ry     beta=0.70
     Davidson diagonalization with overlap
     ethr =  2.07E-07,  avg # of iterations =  1.0

     total cpu time spent up to now is      241.6 secs

     total energy              =     -95.10384953 Ry
     Harris-Foulkes estimate   =     -95.10385136 Ry
     estimated scf accuracy    <       0.00000697 Ry

     iteration #  6     ecut=    40.00 Ry     beta=0.70
     Davidson diagonalization with overlap
     ethr =  7.74E-08,  avg # of iterations =  1.0

     total cpu time spent up to now is      245.6 secs

     total energy              =     -95.10384810 Ry
     Harris-Foulkes estimate   =     -95.10384968 Ry
     estimated scf accuracy    <       0.00000334 Ry

     iteration #  7     ecut=    40.00 Ry     beta=0.70
     Davidson diagonalization with overlap
     ethr =  3.71E-08,  avg # of iterations =  1.0

     total cpu time spent up to now is      249.6 secs

     total energy              =     -95.10384800 Ry
     Harris-Foulkes estimate   =     -95.10384835 Ry
     estimated scf accuracy    <       0.00000052 Ry

     iteration #  8     ecut=    40.00 Ry     beta=0.70
     Davidson diagonalization with overlap
     ethr =  5.83E-09,  avg # of iterations =  2.0

     total cpu time spent up to now is      254.4 secs

     End of self-consistent calculation

     Number of k-points >= 100: set verbosity='high' to print the bands.

     the Fermi energy is     2.5033 ev

!    total energy              =     -95.10384813 Ry
     Harris-Foulkes estimate   =     -95.10384813 Ry
     estimated scf accuracy    <          9.4E-11 Ry

     The total energy is the sum of the following terms:

     one-electron contribution =     -83.79203589 Ry
     hartree contribution      =      42.59903184 Ry
     xc contribution           =     -14.29511143 Ry
     ewald contribution        =     -39.61569265 Ry
     smearing contrib. (-TS)   =      -0.00004001 Ry

     convergence has been achieved in   8 iterations

     Forces acting on atoms (cartesian axes, Ry/au):

     atom    1 type  1   force =     0.00000000    0.00000000    0.00000000

     Total force =     0.000000     Total SCF correction =     0.000000


     Computing stress (Cartesian axis) and pressure

          total   stress  (Ry/bohr**3)                   (kbar)     P=   18.18
   0.00012357   0.00000000   0.00000000         18.18      0.00      0.00
  -0.00000000   0.00012357  -0.00000000         -0.00     18.18     -0.00
   0.00000000  -0.00000000   0.00012357          0.00     -0.00     18.18


     number of scf cycles    =   6
     number of bfgs steps    =   5

     enthalpy old            =     -95.0758408215 Ry
     enthalpy new            =     -95.0758470639 Ry

     CASE: enthalpy_new < enthalpy_old

     new trust radius        =       0.0033192119 bohr
     new conv_thr            =            1.0E-10 Ry

     new unit-cell volume =    205.24121 a.u.^3 (    30.41361 Ang^3 )
     density =      1.25522 g/cm^3

CELL_PARAMETERS (alat=  9.39669686)
  -0.498237380   0.000000000   0.498237380
  -0.000000000   0.498237380   0.498237380
  -0.498237380   0.498237380   0.000000000

ATOMIC_POSITIONS (crystal)
Na       0.000000000   0.000000000   0.000000000



     Writing output data file na.fcc.save
     NEW-OLD atomic charge density approx. for the potential
     extrapolated charge    8.96873, renormalised to    9.00000

     total cpu time spent up to now is      257.1 secs

     per-process dynamical memory:    44.2 Mb

     Self-consistent Calculation

     iteration #  1     ecut=    40.00 Ry     beta=0.70
     Davidson diagonalization with overlap
     ethr =  1.00E-06,  avg # of iterations =  2.1

     total cpu time spent up to now is      262.7 secs

     total energy              =     -95.10313035 Ry
     Harris-Foulkes estimate   =     -95.33491792 Ry
     estimated scf accuracy    <       0.00035182 Ry

     iteration #  2     ecut=    40.00 Ry     beta=0.70
     Davidson diagonalization with overlap
     ethr =  3.91E-06,  avg # of iterations =  3.0

     total cpu time spent up to now is      268.8 secs

     total energy              =     -95.10376899 Ry
     Harris-Foulkes estimate   =     -95.10402757 Ry
     estimated scf accuracy    <       0.00058901 Ry

     iteration #  3     ecut=    40.00 Ry     beta=0.70
     Davidson diagonalization with overlap
     ethr =  3.91E-06,  avg # of iterations =  1.6

     total cpu time spent up to now is      273.1 secs

     total energy              =     -95.10377265 Ry
     Harris-Foulkes estimate   =     -95.10380813 Ry
     estimated scf accuracy    <       0.00011329 Ry

     iteration #  4     ecut=    40.00 Ry     beta=0.70
     Davidson diagonalization with overlap
     ethr =  1.26E-06,  avg # of iterations =  1.0

     total cpu time spent up to now is      277.1 secs

     total energy              =     -95.10376371 Ry
     Harris-Foulkes estimate   =     -95.10377711 Ry
     estimated scf accuracy    <       0.00004147 Ry

     iteration #  5     ecut=    40.00 Ry     beta=0.70
     Davidson diagonalization with overlap
     ethr =  4.61E-07,  avg # of iterations =  1.0

     total cpu time spent up to now is      281.1 secs

     total energy              =     -95.10376127 Ry
     Harris-Foulkes estimate   =     -95.10376517 Ry
     estimated scf accuracy    <       0.00001529 Ry

     iteration #  6     ecut=    40.00 Ry     beta=0.70
     Davidson diagonalization with overlap
     ethr =  1.70E-07,  avg # of iterations =  1.0

     total cpu time spent up to now is      285.1 secs

     total energy              =     -95.10375829 Ry
     Harris-Foulkes estimate   =     -95.10376159 Ry
     estimated scf accuracy    <       0.00000752 Ry

     iteration #  7     ecut=    40.00 Ry     beta=0.70
     Davidson diagonalization with overlap
     ethr =  8.36E-08,  avg # of iterations =  1.0

     total cpu time spent up to now is      289.2 secs

     total energy              =     -95.10375774 Ry
     Harris-Foulkes estimate   =     -95.10375875 Ry
     estimated scf accuracy    <       0.00000151 Ry

     iteration #  8     ecut=    40.00 Ry     beta=0.70
     Davidson diagonalization with overlap
     ethr =  1.68E-08,  avg # of iterations =  2.0

     total cpu time spent up to now is      294.0 secs

     total energy              =     -95.10375809 Ry
     Harris-Foulkes estimate   =     -95.10375809 Ry
     estimated scf accuracy    <          2.8E-10 Ry

     iteration #  9     ecut=    40.00 Ry     beta=0.70
     Davidson diagonalization with overlap
     ethr =  3.09E-12,  avg # of iterations =  3.0

     total cpu time spent up to now is      299.8 secs

     total energy              =     -95.10375809 Ry
     Harris-Foulkes estimate   =     -95.10375809 Ry
     estimated scf accuracy    <          1.9E-09 Ry

     iteration # 10     ecut=    40.00 Ry     beta=0.70
     Davidson diagonalization with overlap
     ethr =  3.09E-12,  avg # of iterations =  2.0

     total cpu time spent up to now is      304.6 secs

     End of self-consistent calculation

     Number of k-points >= 100: set verbosity='high' to print the bands.

     the Fermi energy is     2.5211 ev

!    total energy              =     -95.10375809 Ry
     Harris-Foulkes estimate   =     -95.10375809 Ry
     estimated scf accuracy    <          9.4E-11 Ry

     The total energy is the sum of the following terms:

     one-electron contribution =     -83.71209244 Ry
     hartree contribution      =      42.56557197 Ry
     xc contribution           =     -14.29563929 Ry
     ewald contribution        =     -39.66155842 Ry
     smearing contrib. (-TS)   =      -0.00003990 Ry

     convergence has been achieved in  10 iterations

     Forces acting on atoms (cartesian axes, Ry/au):

     atom    1 type  1   force =     0.00000000    0.00000000    0.00000000

     Total force =     0.000000     Total SCF correction =     0.000000


     Computing stress (Cartesian axis) and pressure

          total   stress  (Ry/bohr**3)                   (kbar)     P=   18.93
   0.00012866  -0.00000000   0.00000000         18.93     -0.00      0.00
  -0.00000000   0.00012866  -0.00000000         -0.00     18.93     -0.00
   0.00000000  -0.00000000   0.00012866          0.00     -0.00     18.93


     number of scf cycles    =   7
     number of bfgs steps    =   6

     enthalpy old            =     -95.0758470639 Ry
     enthalpy new            =     -95.0758540559 Ry

     CASE: enthalpy_new < enthalpy_old

     new trust radius        =       0.0047353673 bohr
     new conv_thr            =            1.0E-10 Ry

     new unit-cell volume =    204.22529 a.u.^3 (    30.26307 Ang^3 )
     density =      1.26146 g/cm^3

CELL_PARAMETERS (alat=  9.39669686)
  -0.497413948   0.000000000   0.497413948
  -0.000000000   0.497413948   0.497413948
  -0.497413948   0.497413948   0.000000000

ATOMIC_POSITIONS (crystal)
Na       0.000000000   0.000000000   0.000000000



     Writing output data file na.fcc.save
     NEW-OLD atomic charge density approx. for the potential
     extrapolated charge    8.95526, renormalised to    9.00000

     total cpu time spent up to now is      307.2 secs

     per-process dynamical memory:    44.2 Mb

     Self-consistent Calculation

     iteration #  1     ecut=    40.00 Ry     beta=0.70
     Davidson diagonalization with overlap
     ethr =  1.00E-06,  avg # of iterations =  2.3

     total cpu time spent up to now is      312.9 secs

     total energy              =     -95.10234788 Ry
     Harris-Foulkes estimate   =     -95.43375192 Ry
     estimated scf accuracy    <       0.00071556 Ry

     iteration #  2     ecut=    40.00 Ry     beta=0.70
     Davidson diagonalization with overlap
     ethr =  7.95E-06,  avg # of iterations =  3.0

     total cpu time spent up to now is      319.1 secs

     total energy              =     -95.10364663 Ry
     Harris-Foulkes estimate   =     -95.10417283 Ry
     estimated scf accuracy    <       0.00119879 Ry

     iteration #  3     ecut=    40.00 Ry     beta=0.70
     Davidson diagonalization with overlap
     ethr =  7.95E-06,  avg # of iterations =  1.7

     total cpu time spent up to now is      323.3 secs

     total energy              =     -95.10365445 Ry
     Harris-Foulkes estimate   =     -95.10372651 Ry
     estimated scf accuracy    <       0.00022993 Ry

     iteration #  4     ecut=    40.00 Ry     beta=0.70
     Davidson diagonalization with overlap
     ethr =  2.55E-06,  avg # of iterations =  1.0

     total cpu time spent up to now is      327.3 secs

     total energy              =     -95.10363638 Ry
     Harris-Foulkes estimate   =     -95.10366350 Ry
     estimated scf accuracy    <       0.00008406 Ry

     iteration #  5     ecut=    40.00 Ry     beta=0.70
     Davidson diagonalization with overlap
     ethr =  9.34E-07,  avg # of iterations =  1.0

     total cpu time spent up to now is      331.2 secs

     total energy              =     -95.10363167 Ry
     Harris-Foulkes estimate   =     -95.10363934 Ry
     estimated scf accuracy    <       0.00003101 Ry

     iteration #  6     ecut=    40.00 Ry     beta=0.70
     Davidson diagonalization with overlap
     ethr =  3.45E-07,  avg # of iterations =  1.0

     total cpu time spent up to now is      335.1 secs

     total energy              =     -95.10362650 Ry
     Harris-Foulkes estimate   =     -95.10363228 Ry
     estimated scf accuracy    <       0.00001568 Ry

     iteration #  7     ecut=    40.00 Ry     beta=0.70
     Davidson diagonalization with overlap
     ethr =  1.74E-07,  avg # of iterations =  1.0

     total cpu time spent up to now is      339.0 secs

     total energy              =     -95.10362391 Ry
     Harris-Foulkes estimate   =     -95.10362713 Ry
     estimated scf accuracy    <       0.00000479 Ry

     iteration #  8     ecut=    40.00 Ry     beta=0.70
     Davidson diagonalization with overlap
     ethr =  5.32E-08,  avg # of iterations =  2.0

     total cpu time spent up to now is      343.9 secs

     total energy              =     -95.10362498 Ry
     Harris-Foulkes estimate   =     -95.10362498 Ry
     estimated scf accuracy    <          9.6E-10 Ry

     iteration #  9     ecut=    40.00 Ry     beta=0.70
     Davidson diagonalization with overlap
     ethr =  1.07E-11,  avg # of iterations =  3.0

     total cpu time spent up to now is      349.5 secs

     total energy              =     -95.10362498 Ry
     Harris-Foulkes estimate   =     -95.10362498 Ry
     estimated scf accuracy    <          3.2E-09 Ry

     iteration # 10     ecut=    40.00 Ry     beta=0.70
     Davidson diagonalization with overlap
     ethr =  1.07E-11,  avg # of iterations =  2.0

     total cpu time spent up to now is      354.3 secs

     total energy              =     -95.10362498 Ry
     Harris-Foulkes estimate   =     -95.10362498 Ry
     estimated scf accuracy    <          2.4E-10 Ry

     iteration # 11     ecut=    40.00 Ry     beta=0.70
     Davidson diagonalization with overlap
     ethr =  2.66E-12,  avg # of iterations =  2.4

     total cpu time spent up to now is      359.2 secs

     total energy              =     -95.10362498 Ry
     Harris-Foulkes estimate   =     -95.10362498 Ry
     estimated scf accuracy    <          1.2E-09 Ry

     iteration # 12     ecut=    40.00 Ry     beta=0.70
     Davidson diagonalization with overlap
     ethr =  2.66E-12,  avg # of iterations =  2.0

     total cpu time spent up to now is      364.0 secs

     End of self-consistent calculation

     Number of k-points >= 100: set verbosity='high' to print the bands.

     the Fermi energy is     2.5468 ev

!    total energy              =     -95.10362498 Ry
     Harris-Foulkes estimate   =     -95.10362498 Ry
     estimated scf accuracy    <          1.4E-11 Ry

     The total energy is the sum of the following terms:

     one-electron contribution =     -83.59751452 Ry
     hartree contribution      =      42.51750602 Ry
     xc contribution           =     -14.29636154 Ry
     ewald contribution        =     -39.72721519 Ry
     smearing contrib. (-TS)   =      -0.00003975 Ry

     convergence has been achieved in  12 iterations

     Forces acting on atoms (cartesian axes, Ry/au):

     atom    1 type  1   force =     0.00000000    0.00000000    0.00000000

     Total force =     0.000000     Total SCF correction =     0.000000


     Computing stress (Cartesian axis) and pressure

          total   stress  (Ry/bohr**3)                   (kbar)     P=   19.67
   0.00013372  -0.00000000   0.00000000         19.67     -0.00      0.00
   0.00000000   0.00013372  -0.00000000          0.00     19.67     -0.00
   0.00000000  -0.00000000   0.00013372          0.00     -0.00     19.67


     bfgs converged in   8 scf cycles and   7 bfgs steps
     (criteria: energy <  1.0E-04 Ry, force <  1.0E-03Ry/Bohr, cell <  5.0E-01kbar)

     End of BFGS Geometry Optimization

     Final enthalpy =     -95.0758590657 Ry
Begin final coordinates
     new unit-cell volume =    204.22529 a.u.^3 (    30.26307 Ang^3 )
     density =      1.26146 g/cm^3

CELL_PARAMETERS (alat=  9.39669686)
  -0.497413948   0.000000000   0.497413948
  -0.000000000   0.497413948   0.497413948
  -0.497413948   0.497413948   0.000000000

ATOMIC_POSITIONS (crystal)
Na       0.000000000   0.000000000   0.000000000
End final coordinates



     A final scf calculation at the relaxed structure.
     The G-vectors are recalculated for the final unit cell
     Results may differ from those at the preceding step.

     Parallelization info
     --------------------
     sticks:   dense  smooth     PW     G-vecs:    dense   smooth      PW
     Min         238     118     40                 4945     1718     351
     Max         239     119     41                 4950     1721     354
     Sum         955     475    163                19795     6879    1411



     bravais-lattice index     =            2
     lattice parameter (alat)  =       9.3967  a.u.
     unit-cell volume          =     204.2253 (a.u.)^3
     number of atoms/cell      =            1
     number of atomic types    =            1
     number of electrons       =         9.00
     number of Kohn-Sham states=            9
     kinetic-energy cutoff     =      40.0000  Ry
     charge density cutoff     =     320.0000  Ry
     convergence threshold     =      1.0E-10
     mixing beta               =       0.7000
     number of iterations used =            8  plain     mixing
     Exchange-correlation      = SLA  PW   PBE  PBE ( 1  4  3  4 0 0)

     celldm(1)=   9.396697  celldm(2)=   0.000000  celldm(3)=   0.000000
     celldm(4)=   0.000000  celldm(5)=   0.000000  celldm(6)=   0.000000

     crystal axes: (cart. coord. in units of alat)
               a(1) = (  -0.497414   0.000000   0.497414 )  
               a(2) = (  -0.000000   0.497414   0.497414 )  
               a(3) = (  -0.497414   0.497414   0.000000 )  

     reciprocal axes: (cart. coord. in units 2 pi/alat)
               b(1) = ( -1.005199 -1.005199  1.005199 )  
               b(2) = (  1.005199  1.005199  1.005199 )  
               b(3) = ( -1.005199  1.005199 -1.005199 )  


     PseudoPot. # 1 for Na read from file:
     /home/s1333534/quantum_espresso/qe-6.1/pseudo/Na_pbe_v1.uspp.F.UPF
     MD5 check sum: 76a99c7e9422403d3e93cbc85ab7bccb
     Pseudo is Ultrasoft, Zval =  9.0
     Generated by new atomic code, or converted to UPF format
     Using radial grid of  819 points,  5 beta functions with: 
                l(1) =   0
                l(2) =   0
                l(3) =   1
                l(4) =   1
                l(5) =   2
     Q(r) pseudized with  8 coefficients,  rinner =    1.250   1.250   1.250
                                                       1.250   1.250

     atomic species   valence    mass     pseudopotential
        Na             9.00    22.99000     Na( 1.00)

     48 Sym. Ops., with inversion, found



   Cartesian axes

     site n.     atom                  positions (alat units)
         1           Na  tau(   1) = (  -0.0000000   0.0000000   0.0000000  )

     number of k points=   770  Marzari-Vanderbilt smearing, width (Ry)=  0.0200

     Number of k-points >= 100: set verbosity='high' to print them.

     Dense  grid:    19795 G-vectors     FFT dimensions: (  40,  40,  40)

     Smooth grid:     6879 G-vectors     FFT dimensions: (  27,  27,  27)

     Estimated max dynamical RAM per process >      26.46MB

     Estimated total allocated dynamical RAM >     105.85MB

     Initial potential from superposition of free atoms

     starting charge    8.99371, renormalised to    9.00000
     Starting wfc are    5 randomized atomic wfcs +    4 random wfc

     Writing output data file na.fcc.save

     total cpu time spent up to now is      368.3 secs

     per-process dynamical memory:    42.1 Mb

     Self-consistent Calculation

     iteration #  1     ecut=    40.00 Ry     beta=0.70
     Davidson diagonalization with overlap
     c_bands:  1 eigenvalues not converged
     c_bands:  1 eigenvalues not converged
     c_bands:  1 eigenvalues not converged
     c_bands:  1 eigenvalues not converged
     c_bands:  1 eigenvalues not converged
     ethr =  1.00E-06,  avg # of iterations = 10.8

     total cpu time spent up to now is      381.4 secs

     total energy              =     -95.10341485 Ry
     Harris-Foulkes estimate   =     -95.10374445 Ry
     estimated scf accuracy    <       0.00102333 Ry

     iteration #  2     ecut=    40.00 Ry     beta=0.70
     Davidson diagonalization with overlap
     ethr =  1.14E-05,  avg # of iterations =  2.0

     total cpu time spent up to now is      386.0 secs

     total energy              =     -95.10354279 Ry
     Harris-Foulkes estimate   =     -95.10357320 Ry
     estimated scf accuracy    <       0.00011639 Ry

     iteration #  3     ecut=    40.00 Ry     beta=0.70
     Davidson diagonalization with overlap
     ethr =  1.29E-06,  avg # of iterations =  2.0

     total cpu time spent up to now is      390.7 secs

     total energy              =     -95.10355587 Ry
     Harris-Foulkes estimate   =     -95.10355729 Ry
     estimated scf accuracy    <       0.00000708 Ry

     iteration #  4     ecut=    40.00 Ry     beta=0.70
     Davidson diagonalization with overlap
     ethr =  7.87E-08,  avg # of iterations =  1.0

     total cpu time spent up to now is      394.7 secs

     total energy              =     -95.10355650 Ry
     Harris-Foulkes estimate   =     -95.10355645 Ry
     estimated scf accuracy    <          8.0E-09 Ry

     iteration #  5     ecut=    40.00 Ry     beta=0.70
     Davidson diagonalization with overlap
     ethr =  8.92E-11,  avg # of iterations =  3.0

     total cpu time spent up to now is      400.3 secs

     total energy              =     -95.10355653 Ry
     Harris-Foulkes estimate   =     -95.10355653 Ry
     estimated scf accuracy    <          1.4E-09 Ry

     iteration #  6     ecut=    40.00 Ry     beta=0.70
     Davidson diagonalization with overlap
     ethr =  1.59E-11,  avg # of iterations =  1.6

     total cpu time spent up to now is      404.5 secs

     End of self-consistent calculation

     Number of k-points >= 100: set verbosity='high' to print the bands.

     the Fermi energy is     2.5467 ev

!    total energy              =     -95.10355653 Ry
     Harris-Foulkes estimate   =     -95.10355653 Ry
     estimated scf accuracy    <          2.7E-11 Ry

     The total energy is the sum of the following terms:

     one-electron contribution =     -83.59744318 Ry
     hartree contribution      =      42.51748568 Ry
     xc contribution           =     -14.29634410 Ry
     ewald contribution        =     -39.72721519 Ry
     smearing contrib. (-TS)   =      -0.00003974 Ry

     convergence has been achieved in   6 iterations

     Forces acting on atoms (cartesian axes, Ry/au):

     atom    1 type  1   force =     0.00000000    0.00000000    0.00000000

     Total force =     0.000000     Total SCF correction =     0.000000


     Computing stress (Cartesian axis) and pressure

          total   stress  (Ry/bohr**3)                   (kbar)     P=   19.43
   0.00013206  -0.00000000   0.00000000         19.43     -0.00      0.00
  -0.00000000   0.00013206  -0.00000000         -0.00     19.43     -0.00
   0.00000000  -0.00000000   0.00013206          0.00     -0.00     19.43


     Writing output data file na.fcc.save

     init_run     :      3.68s CPU      3.91s WALL (       2 calls)
     electrons    :    355.01s CPU    380.01s WALL (       9 calls)
     update_pot   :      1.38s CPU      1.40s WALL (       7 calls)
     forces       :      2.18s CPU      2.23s WALL (       9 calls)
     stress       :     12.09s CPU     12.30s WALL (       9 calls)

     Called by init_run:
     wfcinit      :      2.96s CPU      3.17s WALL (       2 calls)
     potinit      :      0.09s CPU      0.09s WALL (       2 calls)

     Called by electrons:
     c_bands      :    292.97s CPU    313.96s WALL (      80 calls)
     sum_band     :     60.02s CPU     63.91s WALL (      80 calls)
     v_of_rho     :      1.01s CPU      1.06s WALL (      88 calls)
     newd         :      1.05s CPU      1.09s WALL (      88 calls)
     mix_rho      :      0.08s CPU      0.08s WALL (      80 calls)

     Called by c_bands:
     init_us_2    :     13.61s CPU     12.87s WALL (  138600 calls)
     cegterg      :    279.60s CPU    300.55s WALL (   61600 calls)

     Called by sum_band:
     sum_band:bec :      0.13s CPU      0.20s WALL (   61600 calls)
     addusdens    :      1.23s CPU      1.27s WALL (      80 calls)

     Called by *egterg:
     h_psi        :    239.80s CPU    257.24s WALL (  180133 calls)
     s_psi        :      2.75s CPU      2.44s WALL (  180133 calls)
     g_psi        :      1.45s CPU      1.44s WALL (  116993 calls)
     cdiaghg      :     21.85s CPU     23.07s WALL (  172433 calls)

     Called by h_psi:
     h_psi:pot    :    239.14s CPU    256.21s WALL (  180133 calls)
     h_psi:calbec :      4.65s CPU      4.24s WALL (  180133 calls)
     vloc_psi     :    232.00s CPU    248.82s WALL (  180133 calls)
     add_vuspsi   :      2.19s CPU      2.70s WALL (  180133 calls)

     General routines
     calbec       :      7.06s CPU      7.14s WALL (  276383 calls)
     fft          :      0.49s CPU      0.52s WALL (    1455 calls)
     ffts         :      0.02s CPU      0.02s WALL (     168 calls)
     fftw         :    265.45s CPU    268.29s WALL ( 3249868 calls)
     interpolate  :      0.09s CPU      0.10s WALL (     168 calls)
     davcio       :      0.01s CPU      0.02s WALL (    1540 calls)

     Parallel routines
     fft_scatter  :     45.36s CPU     54.33s WALL ( 3251491 calls)

     PWSCF        :  6m20.58s CPU     6m46.76s WALL


   This run was terminated on:  13:54:25  20Dec2017            

=------------------------------------------------------------------------------=
   JOB DONE.
=------------------------------------------------------------------------------=
