
     Program PWSCF v.6.1 (svn rev. 13369) starts on 20Dec2017 at 16: 3: 8 

     This program is part of the open-source Quantum ESPRESSO suite
     for quantum simulation of materials; please cite
         "P. Giannozzi et al., J. Phys.:Condens. Matter 21 395502 (2009);
          URL http://www.quantum-espresso.org", 
     in publications or presentations arising from this work. More details at
     http://www.quantum-espresso.org/quote

     Parallel version (MPI), running on     4 processors
     R & G space division:  proc/nbgrp/npool/nimage =       4
     Waiting for input...
     Reading input from standard input

     Current dimensions of program PWSCF are:
     Max number of different atomic species (ntypx) = 10
     Max number of k-points (npk) =  40000
     Max angular momentum in pseudopotentials (lmaxx) =  3

     Subspace diagonalization in iterative solution of the eigenvalue problem:
     a serial algorithm will be used


     Parallelization info
     --------------------
     sticks:   dense  smooth     PW     G-vecs:    dense   smooth      PW
     Min         287     142     43                 6207     2171     375
     Max         288     144     44                 6210     2172     378
     Sum        1151     571    173                24835     8685    1505



     bravais-lattice index     =            3
     lattice parameter (alat)  =       8.0000  a.u.
     unit-cell volume          =     256.0000 (a.u.)^3
     number of atoms/cell      =            1
     number of atomic types    =            1
     number of electrons       =         9.00
     number of Kohn-Sham states=            9
     kinetic-energy cutoff     =      40.0000  Ry
     charge density cutoff     =     320.0000  Ry
     convergence threshold     =      1.0E-08
     mixing beta               =       0.7000
     number of iterations used =            8  plain     mixing
     Exchange-correlation      = SLA  PW   PBE  PBE ( 1  4  3  4 0 0)
     nstep                     =           50


     celldm(1)=   8.000000  celldm(2)=   0.000000  celldm(3)=   0.000000
     celldm(4)=   0.000000  celldm(5)=   0.000000  celldm(6)=   0.000000

     crystal axes: (cart. coord. in units of alat)
               a(1) = (   0.500000   0.500000   0.500000 )  
               a(2) = (  -0.500000   0.500000   0.500000 )  
               a(3) = (  -0.500000  -0.500000   0.500000 )  

     reciprocal axes: (cart. coord. in units 2 pi/alat)
               b(1) = (  1.000000  0.000000  1.000000 )  
               b(2) = ( -1.000000  1.000000  0.000000 )  
               b(3) = (  0.000000 -1.000000  1.000000 )  


     PseudoPot. # 1 for Na read from file:
     /home/s1333534/quantum_espresso/qe-6.1/pseudo/Na_pbe_v1.uspp.F.UPF
     MD5 check sum: 76a99c7e9422403d3e93cbc85ab7bccb
     Pseudo is Ultrasoft, Zval =  9.0
     Generated by new atomic code, or converted to UPF format
     Using radial grid of  819 points,  5 beta functions with: 
                l(1) =   0
                l(2) =   0
                l(3) =   1
                l(4) =   1
                l(5) =   2
     Q(r) pseudized with  8 coefficients,  rinner =    1.250   1.250   1.250
                                                       1.250   1.250

     atomic species   valence    mass     pseudopotential
        Na             9.00    22.99000     Na( 1.00)

     48 Sym. Ops., with inversion, found



   Cartesian axes

     site n.     atom                  positions (alat units)
         1           Na  tau(   1) = (   0.0000000   0.0000000   0.0000000  )

     number of k points=   250  Marzari-Vanderbilt smearing, width (Ry)=  0.0200

     Number of k-points >= 100: set verbosity='high' to print them.

     Dense  grid:    24835 G-vectors     FFT dimensions: (  40,  40,  40)

     Smooth grid:     8685 G-vectors     FFT dimensions: (  27,  27,  27)

     Estimated max dynamical RAM per process >      13.36MB

     Estimated total allocated dynamical RAM >      53.44MB

     Initial potential from superposition of free atoms

     starting charge    8.99371, renormalised to    9.00000
     Starting wfc are    5 randomized atomic wfcs +    4 random wfc

     total cpu time spent up to now is        1.0 secs

     per-process dynamical memory:    19.6 Mb

     Self-consistent Calculation

     iteration #  1     ecut=    40.00 Ry     beta=0.70
     Davidson diagonalization with overlap
     ethr =  1.00E-02,  avg # of iterations =  5.8

     Threshold (ethr) on eigenvalues was too large:
     Diagonalizing with lowered threshold

     Davidson diagonalization with overlap
     ethr =  9.84E-06,  avg # of iterations =  4.8

     total cpu time spent up to now is        5.5 secs

     total energy              =     -95.10637787 Ry
     Harris-Foulkes estimate   =     -95.10656725 Ry
     estimated scf accuracy    <       0.00088332 Ry

     iteration #  2     ecut=    40.00 Ry     beta=0.70
     Davidson diagonalization with overlap
     ethr =  9.81E-06,  avg # of iterations =  2.0

     total cpu time spent up to now is        7.0 secs

     total energy              =     -95.10647616 Ry
     Harris-Foulkes estimate   =     -95.10649624 Ry
     estimated scf accuracy    <       0.00009724 Ry

     iteration #  3     ecut=    40.00 Ry     beta=0.70
     Davidson diagonalization with overlap
     ethr =  1.08E-06,  avg # of iterations =  2.1

     total cpu time spent up to now is        8.6 secs

     total energy              =     -95.10648758 Ry
     Harris-Foulkes estimate   =     -95.10648858 Ry
     estimated scf accuracy    <       0.00000602 Ry

     iteration #  4     ecut=    40.00 Ry     beta=0.70
     Davidson diagonalization with overlap
     ethr =  6.69E-08,  avg # of iterations =  1.0

     total cpu time spent up to now is        9.9 secs

     total energy              =     -95.10648815 Ry
     Harris-Foulkes estimate   =     -95.10648811 Ry
     estimated scf accuracy    <       0.00000001 Ry

     iteration #  5     ecut=    40.00 Ry     beta=0.70
     Davidson diagonalization with overlap
     ethr =  1.40E-10,  avg # of iterations =  3.0

     total cpu time spent up to now is       11.8 secs

     End of self-consistent calculation

     Number of k-points >= 100: set verbosity='high' to print the bands.

     the Fermi energy is     1.5119 ev

!    total energy              =     -95.10648818 Ry
     Harris-Foulkes estimate   =     -95.10648818 Ry
     estimated scf accuracy    <          1.7E-09 Ry

     The total energy is the sum of the following terms:

     one-electron contribution =     -88.63767028 Ry
     hartree contribution      =      44.64403185 Ry
     xc contribution           =     -14.26551967 Ry
     ewald contribution        =     -36.84723868 Ry
     smearing contrib. (-TS)   =      -0.00009141 Ry

     convergence has been achieved in   5 iterations

     Forces acting on atoms (cartesian axes, Ry/au):

     atom    1 type  1   force =     0.00000000    0.00000000    0.00000000

     Total force =     0.000000     Total SCF correction =     0.000000


     Computing stress (Cartesian axis) and pressure

          total   stress  (Ry/bohr**3)                   (kbar)     P=   -4.40
  -0.00002994  -0.00000000   0.00000000         -4.40     -0.00      0.00
  -0.00000000  -0.00002994   0.00000000         -0.00     -4.40      0.00
   0.00000000   0.00000000  -0.00002994          0.00      0.00     -4.40


     BFGS Geometry Optimization

     number of scf cycles    =   1
     number of bfgs steps    =   0

     enthalpy new            =     -94.9324628925 Ry

     new trust radius        =       0.0567781073 bohr
     new conv_thr            =       0.0000000100 Ry

     new unit-cell volume =    242.61361 a.u.^3 (    35.95163 Ang^3 )
     density =      1.06187 g/cm^3

CELL_PARAMETERS (alat=  8.00000000)
   0.491128421   0.491128421   0.491128421
  -0.491128421   0.491128421   0.491128421
  -0.491128421  -0.491128421   0.491128421

ATOMIC_POSITIONS (crystal)
Na       0.000000000   0.000000000   0.000000000



     Writing output data file na.bcc.save
     NEW-OLD atomic charge density approx. for the potential
     extrapolated charge    8.50377, renormalised to    9.00000

     total cpu time spent up to now is       13.2 secs

     per-process dynamical memory:    31.4 Mb

     Self-consistent Calculation

     iteration #  1     ecut=    40.00 Ry     beta=0.70
     Davidson diagonalization with overlap
     c_bands:  1 eigenvalues not converged
     ethr =  1.00E-06,  avg # of iterations =  5.3

     total cpu time spent up to now is       16.0 secs

     total energy              =     -94.96933384 Ry
     Harris-Foulkes estimate   =     -98.91037440 Ry
     estimated scf accuracy    <       0.07816045 Ry

     iteration #  2     ecut=    40.00 Ry     beta=0.70
     Davidson diagonalization with overlap
     ethr =  8.68E-04,  avg # of iterations =  2.8

     total cpu time spent up to now is       18.0 secs

     total energy              =     -95.10670651 Ry
     Harris-Foulkes estimate   =     -95.16334728 Ry
     estimated scf accuracy    <       0.12817933 Ry

     iteration #  3     ecut=    40.00 Ry     beta=0.70
     Davidson diagonalization with overlap
     ethr =  8.68E-04,  avg # of iterations =  2.0

     total cpu time spent up to now is       19.5 secs

     total energy              =     -95.10708963 Ry
     Harris-Foulkes estimate   =     -95.11629392 Ry
     estimated scf accuracy    <       0.02161355 Ry

     iteration #  4     ecut=    40.00 Ry     beta=0.70
     Davidson diagonalization with overlap
     ethr =  2.40E-04,  avg # of iterations =  1.0

     total cpu time spent up to now is       20.8 secs

     total energy              =     -95.10798220 Ry
     Harris-Foulkes estimate   =     -95.10853858 Ry
     estimated scf accuracy    <       0.00434417 Ry

     iteration #  5     ecut=    40.00 Ry     beta=0.70
     Davidson diagonalization with overlap
     ethr =  4.83E-05,  avg # of iterations =  1.0

     total cpu time spent up to now is       22.2 secs

     total energy              =     -95.10719042 Ry
     Harris-Foulkes estimate   =     -95.10807921 Ry
     estimated scf accuracy    <       0.00309077 Ry

     iteration #  6     ecut=    40.00 Ry     beta=0.70
     Davidson diagonalization with overlap
     ethr =  3.43E-05,  avg # of iterations =  1.0

     total cpu time spent up to now is       23.5 secs

     total energy              =     -95.10650150 Ry
     Harris-Foulkes estimate   =     -95.10727366 Ry
     estimated scf accuracy    <       0.00131670 Ry

     iteration #  7     ecut=    40.00 Ry     beta=0.70
     Davidson diagonalization with overlap
     ethr =  1.46E-05,  avg # of iterations =  2.0

     total cpu time spent up to now is       25.1 secs

     total energy              =     -95.10669914 Ry
     Harris-Foulkes estimate   =     -95.10670426 Ry
     estimated scf accuracy    <       0.00003617 Ry

     iteration #  8     ecut=    40.00 Ry     beta=0.70
     Davidson diagonalization with overlap
     ethr =  4.02E-07,  avg # of iterations =  2.0

     total cpu time spent up to now is       26.5 secs

     total energy              =     -95.10668708 Ry
     Harris-Foulkes estimate   =     -95.10669977 Ry
     estimated scf accuracy    <       0.00002551 Ry

     iteration #  9     ecut=    40.00 Ry     beta=0.70
     Davidson diagonalization with overlap
     ethr =  2.83E-07,  avg # of iterations =  1.0

     total cpu time spent up to now is       27.9 secs

     total energy              =     -95.10668743 Ry
     Harris-Foulkes estimate   =     -95.10668944 Ry
     estimated scf accuracy    <       0.00000301 Ry

     iteration # 10     ecut=    40.00 Ry     beta=0.70
     Davidson diagonalization with overlap
     ethr =  3.34E-08,  avg # of iterations =  2.0

     total cpu time spent up to now is       29.4 secs

     End of self-consistent calculation

     Number of k-points >= 100: set verbosity='high' to print the bands.

     the Fermi energy is     1.7362 ev

!    total energy              =     -95.10668819 Ry
     Harris-Foulkes estimate   =     -95.10668819 Ry
     estimated scf accuracy    <          4.6E-09 Ry

     The total energy is the sum of the following terms:

     one-electron contribution =     -87.46930354 Ry
     hartree contribution      =      44.14809554 Ry
     xc contribution           =     -14.27255117 Ry
     ewald contribution        =     -37.51283486 Ry
     smearing contrib. (-TS)   =      -0.00009416 Ry

     convergence has been achieved in  10 iterations

     Forces acting on atoms (cartesian axes, Ry/au):

     atom    1 type  1   force =     0.00000000    0.00000000    0.00000000

     Total force =     0.000000     Total SCF correction =     0.000000


     Computing stress (Cartesian axis) and pressure

          total   stress  (Ry/bohr**3)                   (kbar)     P=    0.62
   0.00000420  -0.00000000   0.00000000          0.62     -0.00      0.00
  -0.00000000   0.00000420  -0.00000000         -0.00      0.62     -0.00
   0.00000000  -0.00000000   0.00000420          0.00     -0.00      0.62


     number of scf cycles    =   2
     number of bfgs steps    =   1

     enthalpy old            =     -94.9324628925 Ry
     enthalpy new            =     -94.9417627851 Ry

     CASE: enthalpy_new < enthalpy_old


     WARNING: bfgs curvature condition failed, Theta= 0.871
     new trust radius        =       0.0844082121 bohr
     new conv_thr            =            1.0E-10 Ry

     new unit-cell volume =    223.42193 a.u.^3 (    33.10771 Ang^3 )
     density =      1.15308 g/cm^3

CELL_PARAMETERS (alat=  8.00000000)
   0.477821052   0.477821052   0.477821052
  -0.477821052   0.477821052   0.477821052
  -0.477821052  -0.477821052   0.477821052

ATOMIC_POSITIONS (crystal)
Na       0.000000000   0.000000000   0.000000000



     Writing output data file na.bcc.save
     NEW-OLD atomic charge density approx. for the potential
     extrapolated charge    8.22745, renormalised to    9.00000

     total cpu time spent up to now is       30.9 secs

     per-process dynamical memory:    31.4 Mb

     Self-consistent Calculation

     iteration #  1     ecut=    40.00 Ry     beta=0.70
     Davidson diagonalization with overlap
     ethr =  1.00E-06,  avg # of iterations =  5.9

     total cpu time spent up to now is       33.8 secs

     total energy              =     -94.80131475 Ry
     Harris-Foulkes estimate   =    -100.85216135 Ry
     estimated scf accuracy    <       0.17665589 Ry

     iteration #  2     ecut=    40.00 Ry     beta=0.70
     Davidson diagonalization with overlap
     ethr =  1.96E-03,  avg # of iterations =  2.7

     total cpu time spent up to now is       35.8 secs

     total energy              =     -95.10295226 Ry
     Harris-Foulkes estimate   =     -95.22887584 Ry
     estimated scf accuracy    <       0.28311302 Ry

     iteration #  3     ecut=    40.00 Ry     beta=0.70
     Davidson diagonalization with overlap
     ethr =  1.96E-03,  avg # of iterations =  2.0

     total cpu time spent up to now is       37.3 secs

     total energy              =     -95.10767796 Ry
     Harris-Foulkes estimate   =     -95.12548537 Ry
     estimated scf accuracy    <       0.04420630 Ry

     iteration #  4     ecut=    40.00 Ry     beta=0.70
     Davidson diagonalization with overlap
     ethr =  4.91E-04,  avg # of iterations =  1.0

     total cpu time spent up to now is       38.6 secs

     total energy              =     -95.10757325 Ry
     Harris-Foulkes estimate   =     -95.11036909 Ry
     estimated scf accuracy    <       0.01008466 Ry

     iteration #  5     ecut=    40.00 Ry     beta=0.70
     Davidson diagonalization with overlap
     ethr =  1.12E-04,  avg # of iterations =  1.1

     total cpu time spent up to now is       40.0 secs

     total energy              =     -95.10689459 Ry
     Harris-Foulkes estimate   =     -95.10797459 Ry
     estimated scf accuracy    <       0.00417139 Ry

     iteration #  6     ecut=    40.00 Ry     beta=0.70
     Davidson diagonalization with overlap
     ethr =  4.63E-05,  avg # of iterations =  1.0

     total cpu time spent up to now is       41.3 secs

     total energy              =     -95.10551042 Ry
     Harris-Foulkes estimate   =     -95.10697995 Ry
     estimated scf accuracy    <       0.00202112 Ry

     iteration #  7     ecut=    40.00 Ry     beta=0.70
     Davidson diagonalization with overlap
     ethr =  2.25E-05,  avg # of iterations =  2.1

     total cpu time spent up to now is       42.9 secs

     total energy              =     -95.10609841 Ry
     Harris-Foulkes estimate   =     -95.10607556 Ry
     estimated scf accuracy    <       0.00004695 Ry

     iteration #  8     ecut=    40.00 Ry     beta=0.70
     Davidson diagonalization with overlap
     ethr =  5.22E-07,  avg # of iterations =  2.3

     total cpu time spent up to now is       44.4 secs

     total energy              =     -95.10604243 Ry
     Harris-Foulkes estimate   =     -95.10610090 Ry
     estimated scf accuracy    <       0.00010126 Ry

     iteration #  9     ecut=    40.00 Ry     beta=0.70
     Davidson diagonalization with overlap
     ethr =  5.22E-07,  avg # of iterations =  2.0

     total cpu time spent up to now is       46.0 secs

     total energy              =     -95.10605361 Ry
     Harris-Foulkes estimate   =     -95.10605628 Ry
     estimated scf accuracy    <       0.00000380 Ry

     iteration # 10     ecut=    40.00 Ry     beta=0.70
     Davidson diagonalization with overlap
     ethr =  4.22E-08,  avg # of iterations =  2.0

     total cpu time spent up to now is       47.6 secs

     total energy              =     -95.10605453 Ry
     Harris-Foulkes estimate   =     -95.10605455 Ry
     estimated scf accuracy    <       0.00000003 Ry

     iteration # 11     ecut=    40.00 Ry     beta=0.70
     Davidson diagonalization with overlap
     ethr =  3.57E-10,  avg # of iterations =  2.0

     total cpu time spent up to now is       49.2 secs

     total energy              =     -95.10605454 Ry
     Harris-Foulkes estimate   =     -95.10605455 Ry
     estimated scf accuracy    <       0.00000004 Ry

     iteration # 12     ecut=    40.00 Ry     beta=0.70
     Davidson diagonalization with overlap
     ethr =  3.57E-10,  avg # of iterations =  1.0

     total cpu time spent up to now is       50.6 secs

     total energy              =     -95.10605454 Ry
     Harris-Foulkes estimate   =     -95.10605454 Ry
     estimated scf accuracy    <          9.6E-09 Ry

     iteration # 13     ecut=    40.00 Ry     beta=0.70
     Davidson diagonalization with overlap
     ethr =  1.07E-10,  avg # of iterations =  1.1

     total cpu time spent up to now is       51.9 secs

     total energy              =     -95.10605454 Ry
     Harris-Foulkes estimate   =     -95.10605454 Ry
     estimated scf accuracy    <          1.7E-09 Ry

     iteration # 14     ecut=    40.00 Ry     beta=0.70
     Davidson diagonalization with overlap
     ethr =  1.89E-11,  avg # of iterations =  2.0

     total cpu time spent up to now is       53.5 secs

     End of self-consistent calculation

     Number of k-points >= 100: set verbosity='high' to print the bands.

     the Fermi energy is     2.1066 ev

!    total energy              =     -95.10605454 Ry
     Harris-Foulkes estimate   =     -95.10605454 Ry
     estimated scf accuracy    <          2.5E-11 Ry

     The total energy is the sum of the following terms:

     one-electron contribution =     -85.63915386 Ry
     hartree contribution      =      43.37450657 Ry
     xc contribution           =     -14.28373758 Ry
     ewald contribution        =     -38.55757145 Ry
     smearing contrib. (-TS)   =      -0.00009821 Ry

     convergence has been achieved in  14 iterations

     Forces acting on atoms (cartesian axes, Ry/au):

     atom    1 type  1   force =     0.00000000    0.00000000    0.00000000

     Total force =     0.000000     Total SCF correction =     0.000000


     Computing stress (Cartesian axis) and pressure

          total   stress  (Ry/bohr**3)                   (kbar)     P=    9.80
   0.00006662   0.00000000  -0.00000000          9.80      0.00     -0.00
   0.00000000   0.00006662   0.00000000          0.00      9.80      0.00
  -0.00000000   0.00000000   0.00006662         -0.00      0.00      9.80


     number of scf cycles    =   3
     number of bfgs steps    =   2

     enthalpy old            =     -94.9417627851 Ry
     enthalpy new            =     -94.9541753736 Ry

     CASE: enthalpy_new < enthalpy_old

     new trust radius        =       0.1248852268 bohr
     new conv_thr            =            1.0E-10 Ry

     new unit-cell volume =    196.57490 a.u.^3 (    29.12939 Ang^3 )
     density =      1.31056 g/cm^3

CELL_PARAMETERS (alat=  8.00000000)
   0.457859998   0.457859998   0.457859998
  -0.457859998   0.457859998   0.457859998
  -0.457859998  -0.457859998   0.457859998

ATOMIC_POSITIONS (crystal)
Na       0.000000000   0.000000000   0.000000000



     Writing output data file na.bcc.save
     NEW-OLD atomic charge density approx. for the potential
     extrapolated charge    7.77169, renormalised to    9.00000

     total cpu time spent up to now is       54.9 secs

     per-process dynamical memory:    31.4 Mb

     Self-consistent Calculation

     iteration #  1     ecut=    40.00 Ry     beta=0.70
     Davidson diagonalization with overlap
     ethr =  1.00E-06,  avg # of iterations =  6.5

     total cpu time spent up to now is       58.0 secs

     total energy              =     -94.42802026 Ry
     Harris-Foulkes estimate   =    -103.78480258 Ry
     estimated scf accuracy    <       0.40789743 Ry

     iteration #  2     ecut=    40.00 Ry     beta=0.70
     Davidson diagonalization with overlap
     ethr =  4.53E-03,  avg # of iterations =  2.5

     total cpu time spent up to now is       60.0 secs

     total energy              =     -95.08439493 Ry
     Harris-Foulkes estimate   =     -95.36345386 Ry
     estimated scf accuracy    <       0.61796711 Ry

     iteration #  3     ecut=    40.00 Ry     beta=0.70
     Davidson diagonalization with overlap
     ethr =  4.53E-03,  avg # of iterations =  2.0

     total cpu time spent up to now is       61.5 secs

     total energy              =     -95.10559950 Ry
     Harris-Foulkes estimate   =     -95.13877247 Ry
     estimated scf accuracy    <       0.08397277 Ry

     iteration #  4     ecut=    40.00 Ry     beta=0.70
     Davidson diagonalization with overlap
     ethr =  9.33E-04,  avg # of iterations =  1.0

     total cpu time spent up to now is       62.8 secs

     total energy              =     -95.10352249 Ry
     Harris-Foulkes estimate   =     -95.11086794 Ry
     estimated scf accuracy    <       0.01925233 Ry

     iteration #  5     ecut=    40.00 Ry     beta=0.70
     Davidson diagonalization with overlap
     ethr =  2.14E-04,  avg # of iterations =  1.1

     total cpu time spent up to now is       64.1 secs

     total energy              =     -95.10289691 Ry
     Harris-Foulkes estimate   =     -95.10479095 Ry
     estimated scf accuracy    <       0.00470874 Ry

     iteration #  6     ecut=    40.00 Ry     beta=0.70
     Davidson diagonalization with overlap
     ethr =  5.23E-05,  avg # of iterations =  1.3

     total cpu time spent up to now is       65.5 secs

     total energy              =     -95.10240679 Ry
     Harris-Foulkes estimate   =     -95.10318082 Ry
     estimated scf accuracy    <       0.00112418 Ry

     iteration #  7     ecut=    40.00 Ry     beta=0.70
     Davidson diagonalization with overlap
     ethr =  1.25E-05,  avg # of iterations =  2.3

     total cpu time spent up to now is       67.2 secs

     total energy              =     -95.10266792 Ry
     Harris-Foulkes estimate   =     -95.10266739 Ry
     estimated scf accuracy    <       0.00000193 Ry

     iteration #  8     ecut=    40.00 Ry     beta=0.70
     Davidson diagonalization with overlap
     ethr =  2.15E-08,  avg # of iterations =  2.3

     total cpu time spent up to now is       68.8 secs

     total energy              =     -95.10266631 Ry
     Harris-Foulkes estimate   =     -95.10266816 Ry
     estimated scf accuracy    <       0.00000317 Ry

     iteration #  9     ecut=    40.00 Ry     beta=0.70
     Davidson diagonalization with overlap
     ethr =  2.15E-08,  avg # of iterations =  2.0

     total cpu time spent up to now is       70.4 secs

     total energy              =     -95.10266671 Ry
     Harris-Foulkes estimate   =     -95.10266677 Ry
     estimated scf accuracy    <       0.00000010 Ry

     iteration # 10     ecut=    40.00 Ry     beta=0.70
     Davidson diagonalization with overlap
     ethr =  1.07E-09,  avg # of iterations =  2.4

     total cpu time spent up to now is       72.1 secs

     total energy              =     -95.10266670 Ry
     Harris-Foulkes estimate   =     -95.10266684 Ry
     estimated scf accuracy    <       0.00000026 Ry

     iteration # 11     ecut=    40.00 Ry     beta=0.70
     Davidson diagonalization with overlap
     ethr =  1.07E-09,  avg # of iterations =  2.0

     total cpu time spent up to now is       73.7 secs

     total energy              =     -95.10266673 Ry
     Harris-Foulkes estimate   =     -95.10266673 Ry
     estimated scf accuracy    <       0.00000001 Ry

     iteration # 12     ecut=    40.00 Ry     beta=0.70
     Davidson diagonalization with overlap
     ethr =  1.20E-10,  avg # of iterations =  1.2

     total cpu time spent up to now is       75.0 secs

     total energy              =     -95.10266673 Ry
     Harris-Foulkes estimate   =     -95.10266673 Ry
     estimated scf accuracy    <          9.0E-10 Ry

     iteration # 13     ecut=    40.00 Ry     beta=0.70
     Davidson diagonalization with overlap
     ethr =  1.00E-11,  avg # of iterations =  2.0

     total cpu time spent up to now is       76.6 secs

     total energy              =     -95.10266673 Ry
     Harris-Foulkes estimate   =     -95.10266673 Ry
     estimated scf accuracy    <          2.0E-10 Ry

     iteration # 14     ecut=    40.00 Ry     beta=0.70
     Davidson diagonalization with overlap
     ethr =  2.23E-12,  avg # of iterations =  2.0

     total cpu time spent up to now is       78.2 secs

     End of self-consistent calculation

     Number of k-points >= 100: set verbosity='high' to print the bands.

     the Fermi energy is     2.7518 ev

!    total energy              =     -95.10266673 Ry
     Harris-Foulkes estimate   =     -95.10266673 Ry
     estimated scf accuracy    <          1.0E-11 Ry

     The total energy is the sum of the following terms:

     one-electron contribution =     -82.70458581 Ry
     hartree contribution      =      42.14281896 Ry
     xc contribution           =     -14.30225345 Ry
     ewald contribution        =     -40.23854326 Ry
     smearing contrib. (-TS)   =      -0.00010317 Ry

     convergence has been achieved in  14 iterations

     Forces acting on atoms (cartesian axes, Ry/au):

     atom    1 type  1   force =     0.00000000    0.00000000    0.00000000

     Total force =     0.000000     Total SCF correction =     0.000000


     Computing stress (Cartesian axis) and pressure

          total   stress  (Ry/bohr**3)                   (kbar)     P=   28.74
   0.00019538  -0.00000000   0.00000000         28.74     -0.00      0.00
  -0.00000000   0.00019538  -0.00000000         -0.00     28.74     -0.00
   0.00000000  -0.00000000   0.00019538          0.00     -0.00     28.74


     number of scf cycles    =   4
     number of bfgs steps    =   3

     enthalpy old            =     -94.9541753736 Ry
     enthalpy new            =     -94.9690378079 Ry

     CASE: enthalpy_new < enthalpy_old

     new trust radius        =       0.1833732732 bohr
     new conv_thr            =            1.0E-10 Ry

     new unit-cell volume =    160.47703 a.u.^3 (    23.78024 Ang^3 )
     density =      1.60536 g/cm^3

CELL_PARAMETERS (alat=  8.00000000)
   0.427918418   0.427918418   0.427918418
  -0.427918418   0.427918418   0.427918418
  -0.427918418  -0.427918418   0.427918418

ATOMIC_POSITIONS (crystal)
Na       0.000000000   0.000000000   0.000000000



     Writing output data file na.bcc.save
     NEW-OLD atomic charge density approx. for the potential
     extrapolated charge    6.97695, renormalised to    9.00000

     total cpu time spent up to now is       79.6 secs

     per-process dynamical memory:    31.4 Mb

     Self-consistent Calculation

     iteration #  1     ecut=    40.00 Ry     beta=0.70
     Davidson diagonalization with overlap
     ethr =  1.00E-06,  avg # of iterations =  7.0

     total cpu time spent up to now is       82.8 secs

     total energy              =     -93.59215146 Ry
     Harris-Foulkes estimate   =    -108.10982675 Ry
     estimated scf accuracy    <       1.00668490 Ry

     iteration #  2     ecut=    40.00 Ry     beta=0.70
     Davidson diagonalization with overlap
     ethr =  1.00E-02,  avg # of iterations =  2.6

     total cpu time spent up to now is       84.8 secs

     total energy              =     -95.00750791 Ry
     Harris-Foulkes estimate   =     -95.61936923 Ry
     estimated scf accuracy    <       1.30515460 Ry

     iteration #  3     ecut=    40.00 Ry     beta=0.70
     Davidson diagonalization with overlap
     ethr =  1.00E-02,  avg # of iterations =  2.0

     total cpu time spent up to now is       86.3 secs

     total energy              =     -95.09425922 Ry
     Harris-Foulkes estimate   =     -95.14536340 Ry
     estimated scf accuracy    <       0.12988833 Ry

     iteration #  4     ecut=    40.00 Ry     beta=0.70
     Davidson diagonalization with overlap
     ethr =  1.44E-03,  avg # of iterations =  1.1

     total cpu time spent up to now is       87.6 secs

     total energy              =     -95.08892081 Ry
     Harris-Foulkes estimate   =     -95.10274577 Ry
     estimated scf accuracy    <       0.02894598 Ry

     iteration #  5     ecut=    40.00 Ry     beta=0.70
     Davidson diagonalization with overlap
     ethr =  3.22E-04,  avg # of iterations =  2.0

     total cpu time spent up to now is       89.1 secs

     total energy              =     -95.08980112 Ry
     Harris-Foulkes estimate   =     -95.09201167 Ry
     estimated scf accuracy    <       0.00329815 Ry

     iteration #  6     ecut=    40.00 Ry     beta=0.70
     Davidson diagonalization with overlap
     ethr =  3.66E-05,  avg # of iterations =  2.3

     total cpu time spent up to now is       90.8 secs

     total energy              =     -95.09059790 Ry
     Harris-Foulkes estimate   =     -95.09060069 Ry
     estimated scf accuracy    <       0.00000388 Ry

     iteration #  7     ecut=    40.00 Ry     beta=0.70
     Davidson diagonalization with overlap
     ethr =  4.32E-08,  avg # of iterations =  2.7

     total cpu time spent up to now is       92.5 secs

     total energy              =     -95.09060054 Ry
     Harris-Foulkes estimate   =     -95.09060031 Ry
     estimated scf accuracy    <       0.00000105 Ry

     iteration #  8     ecut=    40.00 Ry     beta=0.70
     Davidson diagonalization with overlap
     ethr =  1.17E-08,  avg # of iterations =  1.0

     total cpu time spent up to now is       93.9 secs

     total energy              =     -95.09059944 Ry
     Harris-Foulkes estimate   =     -95.09060056 Ry
     estimated scf accuracy    <       0.00000164 Ry

     iteration #  9     ecut=    40.00 Ry     beta=0.70
     Davidson diagonalization with overlap
     ethr =  1.17E-08,  avg # of iterations =  2.0

     total cpu time spent up to now is       95.5 secs

     total energy              =     -95.09059986 Ry
     Harris-Foulkes estimate   =     -95.09059987 Ry
     estimated scf accuracy    <       0.00000003 Ry

     iteration # 10     ecut=    40.00 Ry     beta=0.70
     Davidson diagonalization with overlap
     ethr =  2.87E-10,  avg # of iterations =  2.0

     total cpu time spent up to now is       97.0 secs

     total energy              =     -95.09059986 Ry
     Harris-Foulkes estimate   =     -95.09059986 Ry
     estimated scf accuracy    <          8.8E-10 Ry

     iteration # 11     ecut=    40.00 Ry     beta=0.70
     Davidson diagonalization with overlap
     ethr =  9.83E-12,  avg # of iterations =  2.0

     total cpu time spent up to now is       98.6 secs

     End of self-consistent calculation

     Number of k-points >= 100: set verbosity='high' to print the bands.

     the Fermi energy is     3.9783 ev

!    total energy              =     -95.09059986 Ry
     Harris-Foulkes estimate   =     -95.09059986 Ry
     estimated scf accuracy    <          6.9E-11 Ry

     The total energy is the sum of the following terms:

     one-electron contribution =     -77.81715657 Ry
     hartree contribution      =      40.11534362 Ry
     xc contribution           =     -14.33463522 Ry
     ewald contribution        =     -43.05404623 Ry
     smearing contrib. (-TS)   =      -0.00010546 Ry

     convergence has been achieved in  11 iterations

     Forces acting on atoms (cartesian axes, Ry/au):

     atom    1 type  1   force =     0.00000000    0.00000000    0.00000000

     Total force =     0.000000     Total SCF correction =     0.000000


     Computing stress (Cartesian axis) and pressure

          total   stress  (Ry/bohr**3)                   (kbar)     P=   75.54
   0.00051351  -0.00000000   0.00000000         75.54     -0.00      0.00
  -0.00000000   0.00051351  -0.00000000         -0.00     75.54     -0.00
   0.00000000  -0.00000000   0.00051351          0.00     -0.00     75.54


     number of scf cycles    =   5
     number of bfgs steps    =   4

     enthalpy old            =     -94.9690378079 Ry
     enthalpy new            =     -94.9815097717 Ry

     CASE: enthalpy_new < enthalpy_old

     new trust radius        =       0.0759121198 bohr
     new conv_thr            =            1.0E-10 Ry

     new unit-cell volume =    146.48015 a.u.^3 (    21.70612 Ang^3 )
     density =      1.75876 g/cm^3

CELL_PARAMETERS (alat=  8.00000000)
   0.415097011   0.415097011   0.415097011
  -0.415097011   0.415097011   0.415097011
  -0.415097011  -0.415097011   0.415097011

ATOMIC_POSITIONS (crystal)
Na       0.000000000   0.000000000   0.000000000



     Writing output data file na.bcc.save
     NEW-OLD atomic charge density approx. for the potential
     extrapolated charge    8.14061, renormalised to    9.00000

     total cpu time spent up to now is      100.0 secs

     per-process dynamical memory:    31.4 Mb

     Self-consistent Calculation

     iteration #  1     ecut=    40.00 Ry     beta=0.70
     Davidson diagonalization with overlap
     ethr =  1.00E-06,  avg # of iterations =  5.2

     total cpu time spent up to now is      102.9 secs

     total energy              =     -94.72960933 Ry
     Harris-Foulkes estimate   =    -100.67029694 Ry
     estimated scf accuracy    <       0.20748907 Ry

     iteration #  2     ecut=    40.00 Ry     beta=0.70
     Davidson diagonalization with overlap
     ethr =  2.31E-03,  avg # of iterations =  2.5

     total cpu time spent up to now is      104.8 secs

     total energy              =     -95.07716175 Ry
     Harris-Foulkes estimate   =     -95.22339221 Ry
     estimated scf accuracy    <       0.32842891 Ry

     iteration #  3     ecut=    40.00 Ry     beta=0.70
     Davidson diagonalization with overlap
     ethr =  2.31E-03,  avg # of iterations =  1.9

     total cpu time spent up to now is      106.2 secs

     total energy              =     -95.08168732 Ry
     Harris-Foulkes estimate   =     -95.10359916 Ry
     estimated scf accuracy    <       0.05055111 Ry

     iteration #  4     ecut=    40.00 Ry     beta=0.70
     Davidson diagonalization with overlap
     ethr =  5.62E-04,  avg # of iterations =  1.1

     total cpu time spent up to now is      107.6 secs

     total energy              =     -95.08236604 Ry
     Harris-Foulkes estimate   =     -95.08570000 Ry
     estimated scf accuracy    <       0.00873930 Ry

     iteration #  5     ecut=    40.00 Ry     beta=0.70
     Davidson diagonalization with overlap
     ethr =  9.71E-05,  avg # of iterations =  1.1

     total cpu time spent up to now is      108.9 secs

     total energy              =     -95.08281168 Ry
     Harris-Foulkes estimate   =     -95.08298501 Ry
     estimated scf accuracy    <       0.00222506 Ry

     iteration #  6     ecut=    40.00 Ry     beta=0.70
     Davidson diagonalization with overlap
     ethr =  2.47E-05,  avg # of iterations =  1.1

     total cpu time spent up to now is      110.3 secs

     total energy              =     -95.08162475 Ry
     Harris-Foulkes estimate   =     -95.08283226 Ry
     estimated scf accuracy    <       0.00198603 Ry

     iteration #  7     ecut=    40.00 Ry     beta=0.70
     Davidson diagonalization with overlap
     ethr =  2.21E-05,  avg # of iterations =  2.0

     total cpu time spent up to now is      111.8 secs

     total energy              =     -95.08196203 Ry
     Harris-Foulkes estimate   =     -95.08197259 Ry
     estimated scf accuracy    <       0.00002186 Ry

     iteration #  8     ecut=    40.00 Ry     beta=0.70
     Davidson diagonalization with overlap
     ethr =  2.43E-07,  avg # of iterations =  2.9

     total cpu time spent up to now is      113.6 secs

     total energy              =     -95.08194011 Ry
     Harris-Foulkes estimate   =     -95.08200644 Ry
     estimated scf accuracy    <       0.00009647 Ry

     iteration #  9     ecut=    40.00 Ry     beta=0.70
     Davidson diagonalization with overlap
     ethr =  2.43E-07,  avg # of iterations =  2.0

     total cpu time spent up to now is      115.3 secs

     total energy              =     -95.08196298 Ry
     Harris-Foulkes estimate   =     -95.08196330 Ry
     estimated scf accuracy    <       0.00000059 Ry

     iteration # 10     ecut=    40.00 Ry     beta=0.70
     Davidson diagonalization with overlap
     ethr =  6.61E-09,  avg # of iterations =  2.0

     total cpu time spent up to now is      116.7 secs

     total energy              =     -95.08196303 Ry
     Harris-Foulkes estimate   =     -95.08196306 Ry
     estimated scf accuracy    <       0.00000006 Ry

     iteration # 11     ecut=    40.00 Ry     beta=0.70
     Davidson diagonalization with overlap
     ethr =  6.32E-10,  avg # of iterations =  1.0

     total cpu time spent up to now is      118.1 secs

     total energy              =     -95.08196304 Ry
     Harris-Foulkes estimate   =     -95.08196304 Ry
     estimated scf accuracy    <          8.1E-09 Ry

     iteration # 12     ecut=    40.00 Ry     beta=0.70
     Davidson diagonalization with overlap
     ethr =  8.96E-11,  avg # of iterations =  1.0

     total cpu time spent up to now is      119.4 secs

     total energy              =     -95.08196303 Ry
     Harris-Foulkes estimate   =     -95.08196304 Ry
     estimated scf accuracy    <          2.2E-09 Ry

     iteration # 13     ecut=    40.00 Ry     beta=0.70
     Davidson diagonalization with overlap
     ethr =  2.41E-11,  avg # of iterations =  2.0

     total cpu time spent up to now is      120.9 secs

     total energy              =     -95.08196304 Ry
     Harris-Foulkes estimate   =     -95.08196304 Ry
     estimated scf accuracy    <          2.0E-10 Ry

     iteration # 14     ecut=    40.00 Ry     beta=0.70
     Davidson diagonalization with overlap
     ethr =  2.24E-12,  avg # of iterations =  1.1

     total cpu time spent up to now is      122.2 secs

     End of self-consistent calculation

     Number of k-points >= 100: set verbosity='high' to print the bands.

     the Fermi energy is     4.6258 ev

!    total energy              =     -95.08196304 Ry
     Harris-Foulkes estimate   =     -95.08196304 Ry
     estimated scf accuracy    <          1.4E-11 Ry

     The total energy is the sum of the following terms:

     one-electron contribution =     -75.52135006 Ry
     hartree contribution      =      39.17411513 Ry
     xc contribution           =     -14.35073589 Ry
     ewald contribution        =     -44.38388818 Ry
     smearing contrib. (-TS)   =      -0.00010403 Ry

     convergence has been achieved in  14 iterations

     Forces acting on atoms (cartesian axes, Ry/au):

     atom    1 type  1   force =     0.00000000    0.00000000    0.00000000

     Total force =     0.000000     Total SCF correction =     0.000000


     Computing stress (Cartesian axis) and pressure

          total   stress  (Ry/bohr**3)                   (kbar)     P=  108.00
   0.00073415   0.00000000  -0.00000000        108.00      0.00     -0.00
   0.00000000   0.00073415   0.00000000          0.00    108.00      0.00
  -0.00000000   0.00000000   0.00073415         -0.00      0.00    108.00


     number of scf cycles    =   6
     number of bfgs steps    =   5

     enthalpy old            =     -94.9815097717 Ry
     enthalpy new            =     -94.9823878373 Ry

     CASE: enthalpy_new < enthalpy_old

     new trust radius        =       0.0175903555 bohr
     new conv_thr            =            1.0E-10 Ry

     new unit-cell volume =    149.69683 a.u.^3 (    22.18278 Ang^3 )
     density =      1.72097 g/cm^3

CELL_PARAMETERS (alat=  8.00000000)
   0.418113522   0.418113522   0.418113522
  -0.418113522   0.418113522   0.418113522
  -0.418113522  -0.418113522   0.418113522

ATOMIC_POSITIONS (crystal)
Na       0.000000000   0.000000000   0.000000000



     Writing output data file na.bcc.save
     NEW-OLD atomic charge density approx. for the potential
     extrapolated charge    9.19326, renormalised to    9.00000

     total cpu time spent up to now is      123.7 secs

     per-process dynamical memory:    31.4 Mb

     Self-consistent Calculation

     iteration #  1     ecut=    40.00 Ry     beta=0.70
     Davidson diagonalization with overlap
     ethr =  1.00E-06,  avg # of iterations =  3.5

     total cpu time spent up to now is      126.0 secs

     total energy              =     -95.05905416 Ry
     Harris-Foulkes estimate   =     -93.78886825 Ry
     estimated scf accuracy    <       0.01408365 Ry

     iteration #  2     ecut=    40.00 Ry     beta=0.70
     Davidson diagonalization with overlap
     ethr =  1.56E-04,  avg # of iterations =  2.9

     total cpu time spent up to now is      128.0 secs

     total energy              =     -95.08487123 Ry
     Harris-Foulkes estimate   =     -95.09522643 Ry
     estimated scf accuracy    <       0.02364765 Ry

     iteration #  3     ecut=    40.00 Ry     beta=0.70
     Davidson diagonalization with overlap
     ethr =  1.56E-04,  avg # of iterations =  1.2

     total cpu time spent up to now is      129.4 secs

     total energy              =     -95.08493711 Ry
     Harris-Foulkes estimate   =     -95.08636045 Ry
     estimated scf accuracy    <       0.00480279 Ry

     iteration #  4     ecut=    40.00 Ry     beta=0.70
     Davidson diagonalization with overlap
     ethr =  5.34E-05,  avg # of iterations =  1.0

     total cpu time spent up to now is      130.7 secs

     total energy              =     -95.08468168 Ry
     Harris-Foulkes estimate   =     -95.08511153 Ry
     estimated scf accuracy    <       0.00189249 Ry

     iteration #  5     ecut=    40.00 Ry     beta=0.70
     Davidson diagonalization with overlap
     ethr =  2.10E-05,  avg # of iterations =  1.0

     total cpu time spent up to now is      132.1 secs

     total energy              =     -95.08443091 Ry
     Harris-Foulkes estimate   =     -95.08471314 Ry
     estimated scf accuracy    <       0.00103412 Ry

     iteration #  6     ecut=    40.00 Ry     beta=0.70
     Davidson diagonalization with overlap
     ethr =  1.15E-05,  avg # of iterations =  1.0

     total cpu time spent up to now is      133.4 secs

     total energy              =     -95.08420274 Ry
     Harris-Foulkes estimate   =     -95.08445148 Ry
     estimated scf accuracy    <       0.00048619 Ry

     iteration #  7     ecut=    40.00 Ry     beta=0.70
     Davidson diagonalization with overlap
     ethr =  5.40E-06,  avg # of iterations =  1.0

     total cpu time spent up to now is      134.8 secs

     total energy              =     -95.08422203 Ry
     Harris-Foulkes estimate   =     -95.08424972 Ry
     estimated scf accuracy    <       0.00005108 Ry

     iteration #  8     ecut=    40.00 Ry     beta=0.70
     Davidson diagonalization with overlap
     ethr =  5.68E-07,  avg # of iterations =  2.0

     total cpu time spent up to now is      136.3 secs

     total energy              =     -95.08422809 Ry
     Harris-Foulkes estimate   =     -95.08422990 Ry
     estimated scf accuracy    <       0.00000337 Ry

     iteration #  9     ecut=    40.00 Ry     beta=0.70
     Davidson diagonalization with overlap
     ethr =  3.75E-08,  avg # of iterations =  1.7

     total cpu time spent up to now is      137.7 secs

     total energy              =     -95.08422844 Ry
     Harris-Foulkes estimate   =     -95.08422852 Ry
     estimated scf accuracy    <       0.00000027 Ry

     iteration # 10     ecut=    40.00 Ry     beta=0.70
     Davidson diagonalization with overlap
     ethr =  3.01E-09,  avg # of iterations =  1.7

     total cpu time spent up to now is      139.2 secs

     total energy              =     -95.08422838 Ry
     Harris-Foulkes estimate   =     -95.08422846 Ry
     estimated scf accuracy    <       0.00000010 Ry

     iteration # 11     ecut=    40.00 Ry     beta=0.70
     Davidson diagonalization with overlap
     ethr =  1.14E-09,  avg # of iterations =  2.0

     total cpu time spent up to now is      140.8 secs

     total energy              =     -95.08422841 Ry
     Harris-Foulkes estimate   =     -95.08422842 Ry
     estimated scf accuracy    <       0.00000001 Ry

     iteration # 12     ecut=    40.00 Ry     beta=0.70
     Davidson diagonalization with overlap
     ethr =  1.64E-10,  avg # of iterations =  1.0

     total cpu time spent up to now is      142.1 secs

     total energy              =     -95.08422841 Ry
     Harris-Foulkes estimate   =     -95.08422841 Ry
     estimated scf accuracy    <          3.0E-09 Ry

     iteration # 13     ecut=    40.00 Ry     beta=0.70
     Davidson diagonalization with overlap
     ethr =  3.29E-11,  avg # of iterations =  2.0

     total cpu time spent up to now is      143.7 secs

     total energy              =     -95.08422841 Ry
     Harris-Foulkes estimate   =     -95.08422841 Ry
     estimated scf accuracy    <          1.3E-10 Ry

     iteration # 14     ecut=    40.00 Ry     beta=0.70
     Davidson diagonalization with overlap
     ethr =  1.42E-12,  avg # of iterations =  2.0

     total cpu time spent up to now is      145.3 secs

     total energy              =     -95.08422841 Ry
     Harris-Foulkes estimate   =     -95.08422841 Ry
     estimated scf accuracy    <          5.0E-10 Ry

     iteration # 15     ecut=    40.00 Ry     beta=0.70
     Davidson diagonalization with overlap
     ethr =  1.42E-12,  avg # of iterations =  2.0

     total cpu time spent up to now is      147.0 secs

     End of self-consistent calculation

     Number of k-points >= 100: set verbosity='high' to print the bands.

     the Fermi energy is     4.4657 ev

!    total energy              =     -95.08422841 Ry
     Harris-Foulkes estimate   =     -95.08422841 Ry
     estimated scf accuracy    <          2.0E-11 Ry

     The total energy is the sum of the following terms:

     one-electron contribution =     -76.07337880 Ry
     hartree contribution      =      39.39973170 Ry
     xc contribution           =     -14.34679942 Ry
     ewald contribution        =     -44.06367738 Ry
     smearing contrib. (-TS)   =      -0.00010450 Ry

     convergence has been achieved in  15 iterations

     Forces acting on atoms (cartesian axes, Ry/au):

     atom    1 type  1   force =     0.00000000    0.00000000    0.00000000

     Total force =     0.000000     Total SCF correction =     0.000000


     Computing stress (Cartesian axis) and pressure

          total   stress  (Ry/bohr**3)                   (kbar)     P=   99.33
   0.00067522  -0.00000000   0.00000000         99.33     -0.00      0.00
  -0.00000000   0.00067522  -0.00000000         -0.00     99.33     -0.00
   0.00000000  -0.00000000   0.00067522          0.00     -0.00     99.33


     number of scf cycles    =   7
     number of bfgs steps    =   6

     enthalpy old            =     -94.9823878373 Ry
     enthalpy new            =     -94.9824665596 Ry

     CASE: enthalpy_new < enthalpy_old

     new trust radius        =       0.0013864935 bohr
     new conv_thr            =            1.0E-10 Ry

     new unit-cell volume =    149.44251 a.u.^3 (    22.14510 Ang^3 )
     density =      1.72389 g/cm^3

CELL_PARAMETERS (alat=  8.00000000)
   0.417876616   0.417876616   0.417876616
  -0.417876616   0.417876616   0.417876616
  -0.417876616  -0.417876616   0.417876616

ATOMIC_POSITIONS (crystal)
Na       0.000000000   0.000000000   0.000000000



     Writing output data file na.bcc.save
     NEW-OLD atomic charge density approx. for the potential
     extrapolated charge    8.98469, renormalised to    9.00000

     total cpu time spent up to now is      148.4 secs

     per-process dynamical memory:    31.4 Mb

     Self-consistent Calculation

     iteration #  1     ecut=    40.00 Ry     beta=0.70
     Davidson diagonalization with overlap
     ethr =  1.00E-06,  avg # of iterations =  2.0

     total cpu time spent up to now is      150.2 secs

     total energy              =     -95.08391023 Ry
     Harris-Foulkes estimate   =     -95.18627473 Ry
     estimated scf accuracy    <       0.00008195 Ry

     iteration #  2     ecut=    40.00 Ry     beta=0.70
     Davidson diagonalization with overlap
     ethr =  9.11E-07,  avg # of iterations =  2.9

     total cpu time spent up to now is      152.0 secs

     total energy              =     -95.08405861 Ry
     Harris-Foulkes estimate   =     -95.08411875 Ry
     estimated scf accuracy    <       0.00013725 Ry

     iteration #  3     ecut=    40.00 Ry     beta=0.70
     Davidson diagonalization with overlap
     ethr =  9.11E-07,  avg # of iterations =  1.3

     total cpu time spent up to now is      153.4 secs

     total energy              =     -95.08406146 Ry
     Harris-Foulkes estimate   =     -95.08406765 Ry
     estimated scf accuracy    <       0.00002665 Ry

     iteration #  4     ecut=    40.00 Ry     beta=0.70
     Davidson diagonalization with overlap
     ethr =  2.96E-07,  avg # of iterations =  1.0

     total cpu time spent up to now is      154.7 secs

     total energy              =     -95.08405857 Ry
     Harris-Foulkes estimate   =     -95.08406220 Ry
     estimated scf accuracy    <       0.00001326 Ry

     iteration #  5     ecut=    40.00 Ry     beta=0.70
     Davidson diagonalization with overlap
     ethr =  1.47E-07,  avg # of iterations =  1.0

     total cpu time spent up to now is      156.1 secs

     total energy              =     -95.08405711 Ry
     Harris-Foulkes estimate   =     -95.08405885 Ry
     estimated scf accuracy    <       0.00000615 Ry

     iteration #  6     ecut=    40.00 Ry     beta=0.70
     Davidson diagonalization with overlap
     ethr =  6.83E-08,  avg # of iterations =  1.0

     total cpu time spent up to now is      157.4 secs

     total energy              =     -95.08405601 Ry
     Harris-Foulkes estimate   =     -95.08405726 Ry
     estimated scf accuracy    <       0.00000267 Ry

     iteration #  7     ecut=    40.00 Ry     beta=0.70
     Davidson diagonalization with overlap
     ethr =  2.97E-08,  avg # of iterations =  1.0

     total cpu time spent up to now is      158.8 secs

     total energy              =     -95.08405595 Ry
     Harris-Foulkes estimate   =     -95.08405622 Ry
     estimated scf accuracy    <       0.00000042 Ry

     iteration #  8     ecut=    40.00 Ry     beta=0.70
     Davidson diagonalization with overlap
     ethr =  4.69E-09,  avg # of iterations =  2.0

     total cpu time spent up to now is      160.3 secs

     total energy              =     -95.08405603 Ry
     Harris-Foulkes estimate   =     -95.08405604 Ry
     estimated scf accuracy    <          3.9E-09 Ry

     iteration #  9     ecut=    40.00 Ry     beta=0.70
     Davidson diagonalization with overlap
     ethr =  4.39E-11,  avg # of iterations =  1.9

     total cpu time spent up to now is      161.8 secs

     total energy              =     -95.08405603 Ry
     Harris-Foulkes estimate   =     -95.08405603 Ry
     estimated scf accuracy    <          5.9E-10 Ry

     iteration # 10     ecut=    40.00 Ry     beta=0.70
     Davidson diagonalization with overlap
     ethr =  6.58E-12,  avg # of iterations =  1.0

     total cpu time spent up to now is      163.1 secs

     total energy              =     -95.08405603 Ry
     Harris-Foulkes estimate   =     -95.08405604 Ry
     estimated scf accuracy    <          1.1E-09 Ry

     iteration # 11     ecut=    40.00 Ry     beta=0.70
     Davidson diagonalization with overlap
     ethr =  6.58E-12,  avg # of iterations =  2.0

     total cpu time spent up to now is      164.7 secs

     End of self-consistent calculation

     Number of k-points >= 100: set verbosity='high' to print the bands.

     the Fermi energy is     4.4781 ev

!    total energy              =     -95.08405603 Ry
     Harris-Foulkes estimate   =     -95.08405603 Ry
     estimated scf accuracy    <          7.6E-12 Ry

     The total energy is the sum of the following terms:

     one-electron contribution =     -76.03032151 Ry
     hartree contribution      =      39.38213942 Ry
     xc contribution           =     -14.34711117 Ry
     ewald contribution        =     -44.08865830 Ry
     smearing contrib. (-TS)   =      -0.00010447 Ry

     convergence has been achieved in  11 iterations

     Forces acting on atoms (cartesian axes, Ry/au):

     atom    1 type  1   force =     0.00000000    0.00000000    0.00000000

     Total force =     0.000000     Total SCF correction =     0.000000


     Computing stress (Cartesian axis) and pressure

          total   stress  (Ry/bohr**3)                   (kbar)     P=  100.07
   0.00068026   0.00000000   0.00000000        100.07      0.00      0.00
   0.00000000   0.00068026   0.00000000          0.00    100.07      0.00
   0.00000000   0.00000000   0.00068026          0.00      0.00    100.07


     bfgs converged in   8 scf cycles and   7 bfgs steps
     (criteria: energy <  1.0E-04 Ry, force <  1.0E-03Ry/Bohr, cell <  5.0E-01kbar)

     End of BFGS Geometry Optimization

     Final enthalpy =     -94.9824670625 Ry
Begin final coordinates
     new unit-cell volume =    149.44251 a.u.^3 (    22.14510 Ang^3 )
     density =      1.72389 g/cm^3

CELL_PARAMETERS (alat=  8.00000000)
   0.417876616   0.417876616   0.417876616
  -0.417876616   0.417876616   0.417876616
  -0.417876616  -0.417876616   0.417876616

ATOMIC_POSITIONS (crystal)
Na       0.000000000   0.000000000   0.000000000
End final coordinates



     A final scf calculation at the relaxed structure.
     The G-vectors are recalculated for the final unit cell
     Results may differ from those at the preceding step.

     Parallelization info
     --------------------
     sticks:   dense  smooth     PW     G-vecs:    dense   smooth      PW
     Min         202      99     32                 3644     1270     239
     Max         203     100     33                 3646     1273     242
     Sum         809     399    129                14579     5089     959



     bravais-lattice index     =            3
     lattice parameter (alat)  =       8.0000  a.u.
     unit-cell volume          =     149.4425 (a.u.)^3
     number of atoms/cell      =            1
     number of atomic types    =            1
     number of electrons       =         9.00
     number of Kohn-Sham states=            9
     kinetic-energy cutoff     =      40.0000  Ry
     charge density cutoff     =     320.0000  Ry
     convergence threshold     =      1.0E-10
     mixing beta               =       0.7000
     number of iterations used =            8  plain     mixing
     Exchange-correlation      = SLA  PW   PBE  PBE ( 1  4  3  4 0 0)

     celldm(1)=   8.000000  celldm(2)=   0.000000  celldm(3)=   0.000000
     celldm(4)=   0.000000  celldm(5)=   0.000000  celldm(6)=   0.000000

     crystal axes: (cart. coord. in units of alat)
               a(1) = (   0.417877   0.417877   0.417877 )  
               a(2) = (  -0.417877   0.417877   0.417877 )  
               a(3) = (  -0.417877  -0.417877   0.417877 )  

     reciprocal axes: (cart. coord. in units 2 pi/alat)
               b(1) = (  1.196525  0.000000  1.196525 )  
               b(2) = ( -1.196525  1.196525  0.000000 )  
               b(3) = ( -0.000000 -1.196525  1.196525 )  


     PseudoPot. # 1 for Na read from file:
     /home/s1333534/quantum_espresso/qe-6.1/pseudo/Na_pbe_v1.uspp.F.UPF
     MD5 check sum: 76a99c7e9422403d3e93cbc85ab7bccb
     Pseudo is Ultrasoft, Zval =  9.0
     Generated by new atomic code, or converted to UPF format
     Using radial grid of  819 points,  5 beta functions with: 
                l(1) =   0
                l(2) =   0
                l(3) =   1
                l(4) =   1
                l(5) =   2
     Q(r) pseudized with  8 coefficients,  rinner =    1.250   1.250   1.250
                                                       1.250   1.250

     atomic species   valence    mass     pseudopotential
        Na             9.00    22.99000     Na( 1.00)

     48 Sym. Ops., with inversion, found



   Cartesian axes

     site n.     atom                  positions (alat units)
         1           Na  tau(   1) = (   0.0000000   0.0000000   0.0000000  )

     number of k points=   250  Marzari-Vanderbilt smearing, width (Ry)=  0.0200

     Number of k-points >= 100: set verbosity='high' to print them.

     Dense  grid:    14579 G-vectors     FFT dimensions: (  36,  36,  36)

     Smooth grid:     5089 G-vectors     FFT dimensions: (  24,  24,  24)

     Estimated max dynamical RAM per process >       7.97MB

     Estimated total allocated dynamical RAM >      31.89MB

     Initial potential from superposition of free atoms

     starting charge    8.99371, renormalised to    9.00000
     Starting wfc are    5 randomized atomic wfcs +    4 random wfc

     Writing output data file na.bcc.save

     total cpu time spent up to now is      166.5 secs

     per-process dynamical memory:    19.9 Mb

     Self-consistent Calculation

     iteration #  1     ecut=    40.00 Ry     beta=0.70
     Davidson diagonalization with overlap
     ethr =  1.00E-06,  avg # of iterations = 10.7

     total cpu time spent up to now is      169.1 secs

     total energy              =     -95.08296200 Ry
     Harris-Foulkes estimate   =     -95.08355811 Ry
     estimated scf accuracy    <       0.00161062 Ry

     iteration #  2     ecut=    40.00 Ry     beta=0.70
     Davidson diagonalization with overlap
     ethr =  1.79E-05,  avg # of iterations =  2.0

     total cpu time spent up to now is      170.0 secs

     total energy              =     -95.08318743 Ry
     Harris-Foulkes estimate   =     -95.08323743 Ry
     estimated scf accuracy    <       0.00018863 Ry

     iteration #  3     ecut=    40.00 Ry     beta=0.70
     Davidson diagonalization with overlap
     ethr =  2.10E-06,  avg # of iterations =  2.0

     total cpu time spent up to now is      170.9 secs

     total energy              =     -95.08321046 Ry
     Harris-Foulkes estimate   =     -95.08321170 Ry
     estimated scf accuracy    <       0.00001117 Ry

     iteration #  4     ecut=    40.00 Ry     beta=0.70
     Davidson diagonalization with overlap
     ethr =  1.24E-07,  avg # of iterations =  1.0

     total cpu time spent up to now is      171.7 secs

     total energy              =     -95.08321139 Ry
     Harris-Foulkes estimate   =     -95.08321133 Ry
     estimated scf accuracy    <       0.00000001 Ry

     iteration #  5     ecut=    40.00 Ry     beta=0.70
     Davidson diagonalization with overlap
     ethr =  1.58E-10,  avg # of iterations =  3.0

     total cpu time spent up to now is      172.7 secs

     total energy              =     -95.08321142 Ry
     Harris-Foulkes estimate   =     -95.08321141 Ry
     estimated scf accuracy    <          1.4E-09 Ry

     iteration #  6     ecut=    40.00 Ry     beta=0.70
     Davidson diagonalization with overlap
     ethr =  1.56E-11,  avg # of iterations =  1.6

     total cpu time spent up to now is      173.5 secs

     total energy              =     -95.08321142 Ry
     Harris-Foulkes estimate   =     -95.08321142 Ry
     estimated scf accuracy    <          1.7E-10 Ry

     iteration #  7     ecut=    40.00 Ry     beta=0.70
     Davidson diagonalization with overlap
     ethr =  1.84E-12,  avg # of iterations =  2.0

     total cpu time spent up to now is      174.5 secs

     End of self-consistent calculation

     Number of k-points >= 100: set verbosity='high' to print the bands.

     the Fermi energy is     4.4771 ev

!    total energy              =     -95.08321142 Ry
     Harris-Foulkes estimate   =     -95.08321142 Ry
     estimated scf accuracy    <          2.9E-12 Ry

     The total energy is the sum of the following terms:

     one-electron contribution =     -76.02988715 Ry
     hartree contribution      =      39.38279917 Ry
     xc contribution           =     -14.34736066 Ry
     ewald contribution        =     -44.08865830 Ry
     smearing contrib. (-TS)   =      -0.00010447 Ry

     convergence has been achieved in   7 iterations

     Forces acting on atoms (cartesian axes, Ry/au):

     atom    1 type  1   force =     0.00000000    0.00000000    0.00000000

     Total force =     0.000000     Total SCF correction =     0.000000


     Computing stress (Cartesian axis) and pressure

          total   stress  (Ry/bohr**3)                   (kbar)     P=   99.00
   0.00067301  -0.00000000   0.00000000         99.00     -0.00      0.00
  -0.00000000   0.00067301  -0.00000000         -0.00     99.00     -0.00
   0.00000000  -0.00000000   0.00067301          0.00     -0.00     99.00


     Writing output data file na.bcc.save

     init_run     :      1.48s CPU      1.51s WALL (       2 calls)
     electrons    :    153.92s CPU    161.88s WALL (       9 calls)
     update_pot   :      1.62s CPU      1.63s WALL (       7 calls)
     forces       :      1.32s CPU      1.33s WALL (       9 calls)
     stress       :      6.36s CPU      6.38s WALL (       9 calls)

     Called by init_run:
     wfcinit      :      0.79s CPU      0.82s WALL (       2 calls)
     potinit      :      0.10s CPU      0.10s WALL (       2 calls)

     Called by electrons:
     c_bands      :    124.91s CPU    131.67s WALL (     102 calls)
     sum_band     :     26.18s CPU     27.36s WALL (     102 calls)
     v_of_rho     :      1.24s CPU      1.25s WALL (     110 calls)
     newd         :      1.58s CPU      1.59s WALL (     110 calls)
     mix_rho      :      0.11s CPU      0.12s WALL (     102 calls)

     Called by c_bands:
     init_us_2    :      6.77s CPU      6.69s WALL (   56000 calls)
     cegterg      :    118.34s CPU    125.05s WALL (   25500 calls)

     Called by sum_band:
     sum_band:bec :      0.06s CPU      0.08s WALL (   25500 calls)
     addusdens    :      1.89s CPU      1.89s WALL (     102 calls)

     Called by *egterg:
     h_psi        :     98.04s CPU    103.80s WALL (   80153 calls)
     s_psi        :      1.53s CPU      1.17s WALL (   80153 calls)
     g_psi        :      0.79s CPU      0.76s WALL (   54153 calls)
     cdiaghg      :     10.18s CPU     10.55s WALL (   77653 calls)

     Called by h_psi:
     h_psi:pot    :     97.70s CPU    103.30s WALL (   80153 calls)
     h_psi:calbec :      2.43s CPU      1.93s WALL (   80153 calls)
     vloc_psi     :     94.38s CPU     99.90s WALL (   80153 calls)
     add_vuspsi   :      0.78s CPU      1.27s WALL (   80153 calls)

     General routines
     calbec       :      3.25s CPU      2.85s WALL (  116903 calls)
     fft          :      0.60s CPU      0.62s WALL (    1807 calls)
     ffts         :      0.03s CPU      0.03s WALL (     212 calls)
     fftw         :    106.11s CPU    106.58s WALL ( 1382006 calls)
     interpolate  :      0.10s CPU      0.11s WALL (     212 calls)
     davcio       :      0.00s CPU      0.01s WALL (     500 calls)

     Parallel routines
     fft_scatter  :     16.37s CPU     20.00s WALL ( 1384025 calls)

     PWSCF        :  2m46.98s CPU     2m55.12s WALL


   This run was terminated on:  16: 6: 3  20Dec2017            

=------------------------------------------------------------------------------=
   JOB DONE.
=------------------------------------------------------------------------------=
