
     Program MATDYN v.6.1 (svn rev. 13369) starts on  1Feb2018 at 10:35:51 

     This program is part of the open-source Quantum ESPRESSO suite
     for quantum simulation of materials; please cite
         "P. Giannozzi et al., J. Phys.:Condens. Matter 21 395502 (2009);
          URL http://www.quantum-espresso.org", 
     in publications or presentations arising from this work. More details at
     http://www.quantum-espresso.org/quote

     Parallel version (MPI), running on     2 processors
     R & G space division:  proc/nbgrp/npool/nimage =       2
 mass for atomic type   1 not given; uses mass from file na.bcc.fc                                                                                                                                                                                                                                                       
     Message from routine matdyn:
     Z* not found in file na.bcc.fc, TO-LO splitting at q=0 will be absent!
     A direction for q was not specified:TO-LO splitting will be absent

     MATDYN       :    19.47s CPU        19.55s WALL


   This run was terminated on:  10:36:11   1Feb2018            

=------------------------------------------------------------------------------=
   JOB DONE.
=------------------------------------------------------------------------------=
