
     Program PWSCF v.6.1 (svn rev. 13369) starts on  1Feb2018 at 10:53:14 

     This program is part of the open-source Quantum ESPRESSO suite
     for quantum simulation of materials; please cite
         "P. Giannozzi et al., J. Phys.:Condens. Matter 21 395502 (2009);
          URL http://www.quantum-espresso.org", 
     in publications or presentations arising from this work. More details at
     http://www.quantum-espresso.org/quote

     Parallel version (MPI), running on    64 processors
     K-points division:     npool     =       4
     R & G space division:  proc/nbgrp/npool/nimage =      16
     Waiting for input...
     Reading input from standard input

     Current dimensions of program PWSCF are:
     Max number of different atomic species (ntypx) = 10
     Max number of k-points (npk) =  80000
     Max angular momentum in pseudopotentials (lmaxx) =  3

     Subspace diagonalization in iterative solution of the eigenvalue problem:
     a serial algorithm will be used


     Parallelization info
     --------------------
     sticks:   dense  smooth     PW     G-vecs:    dense   smooth      PW
     Min          74      37     12                 1706      597     113
     Max          75      38     13                 1709      600     116
     Sum        1189     595    199                27317     9577    1837



     bravais-lattice index     =            2
     lattice parameter (alat)  =      10.4000  a.u.
     unit-cell volume          =     281.2160 (a.u.)^3
     number of atoms/cell      =            1
     number of atomic types    =            1
     number of electrons       =         9.00
     number of Kohn-Sham states=            9
     kinetic-energy cutoff     =      40.0000  Ry
     charge density cutoff     =     320.0000  Ry
     convergence threshold     =      1.0E-10
     mixing beta               =       0.7000
     number of iterations used =            8  plain     mixing
     Exchange-correlation      = SLA  PW   PBE  PBE ( 1  4  3  4 0 0)

     celldm(1)=  10.400000  celldm(2)=   0.000000  celldm(3)=   0.000000
     celldm(4)=   0.000000  celldm(5)=   0.000000  celldm(6)=   0.000000

     crystal axes: (cart. coord. in units of alat)
               a(1) = (  -0.500000   0.000000   0.500000 )  
               a(2) = (   0.000000   0.500000   0.500000 )  
               a(3) = (  -0.500000   0.500000   0.000000 )  

     reciprocal axes: (cart. coord. in units 2 pi/alat)
               b(1) = ( -1.000000 -1.000000  1.000000 )  
               b(2) = (  1.000000  1.000000  1.000000 )  
               b(3) = ( -1.000000  1.000000 -1.000000 )  


     PseudoPot. # 1 for Na read from file:
     /home/s1333534/quantum_espresso/qe-6.1/pseudo/Na_pbe_v1.uspp.F.UPF
     MD5 check sum: 76a99c7e9422403d3e93cbc85ab7bccb
     Pseudo is Ultrasoft, Zval =  9.0
     Generated by new atomic code, or converted to UPF format
     Using radial grid of  819 points,  5 beta functions with: 
                l(1) =   0
                l(2) =   0
                l(3) =   1
                l(4) =   1
                l(5) =   2
     Q(r) pseudized with  8 coefficients,  rinner =    1.250   1.250   1.250
                                                       1.250   1.250

     atomic species   valence    mass     pseudopotential
        Na             9.00    22.99000     Na( 1.00)

     48 Sym. Ops., with inversion, found



   Cartesian axes

     site n.     atom                  positions (alat units)
         1           Na  tau(   1) = (   0.0000000   0.0000000   0.0000000  )

     number of k points=   770  Marzari-Vanderbilt smearing, width (Ry)=  0.0200

     Number of k-points >= 100: set verbosity='high' to print them.

     Dense  grid:    27317 G-vectors     FFT dimensions: (  45,  45,  45)

     Smooth grid:     9577 G-vectors     FFT dimensions: (  30,  30,  30)

     Estimated max dynamical RAM per process >       3.23MB

     Estimated total allocated dynamical RAM >     206.72MB

     Initial potential from superposition of free atoms

     starting charge    8.99371, renormalised to    9.00000
     Starting wfc are    5 randomized atomic wfcs +    4 random wfc

     total cpu time spent up to now is        1.1 secs

     per-process dynamical memory:     9.4 Mb

     Self-consistent Calculation

     iteration #  1     ecut=    40.00 Ry     beta=0.70
     Davidson diagonalization with overlap
     ethr =  1.00E-02,  avg # of iterations =  5.6

     Threshold (ethr) on eigenvalues was too large:
     Diagonalizing with lowered threshold

     Davidson diagonalization with overlap
     ethr =  9.67E-06,  avg # of iterations =  4.4

     total cpu time spent up to now is        9.2 secs

     total energy              =     -95.10564182 Ry
     Harris-Foulkes estimate   =     -95.10576489 Ry
     estimated scf accuracy    <       0.00087116 Ry

     iteration #  2     ecut=    40.00 Ry     beta=0.70
     Davidson diagonalization with overlap
     ethr =  9.68E-06,  avg # of iterations =  1.8

     total cpu time spent up to now is       11.7 secs

     total energy              =     -95.10573203 Ry
     Harris-Foulkes estimate   =     -95.10574852 Ry
     estimated scf accuracy    <       0.00009421 Ry

     iteration #  3     ecut=    40.00 Ry     beta=0.70
     Davidson diagonalization with overlap
     ethr =  1.05E-06,  avg # of iterations =  2.1

     total cpu time spent up to now is       14.1 secs

     total energy              =     -95.10574458 Ry
     Harris-Foulkes estimate   =     -95.10574519 Ry
     estimated scf accuracy    <       0.00000550 Ry

     iteration #  4     ecut=    40.00 Ry     beta=0.70
     Davidson diagonalization with overlap
     ethr =  6.11E-08,  avg # of iterations =  1.0

     total cpu time spent up to now is       16.3 secs

     total energy              =     -95.10574513 Ry
     Harris-Foulkes estimate   =     -95.10574508 Ry
     estimated scf accuracy    <       0.00000002 Ry

     iteration #  5     ecut=    40.00 Ry     beta=0.70
     Davidson diagonalization with overlap
     ethr =  2.10E-10,  avg # of iterations =  3.0

     total cpu time spent up to now is       19.2 secs

     total energy              =     -95.10574516 Ry
     Harris-Foulkes estimate   =     -95.10574515 Ry
     estimated scf accuracy    <          1.5E-09 Ry

     iteration #  6     ecut=    40.00 Ry     beta=0.70
     Davidson diagonalization with overlap
     ethr =  1.67E-11,  avg # of iterations =  1.6

     total cpu time spent up to now is       21.5 secs

     End of self-consistent calculation

     Number of k-points >= 100: set verbosity='high' to print the bands.

     the Fermi energy is     1.1469 ev

!    total energy              =     -95.10574516 Ry
     Harris-Foulkes estimate   =     -95.10574516 Ry
     estimated scf accuracy    <          6.6E-12 Ry

     The total energy is the sum of the following terms:

     one-electron contribution =     -90.64462925 Ry
     hartree contribution      =      45.50201052 Ry
     xc contribution           =     -14.25405224 Ry
     ewald contribution        =     -35.70902192 Ry
     smearing contrib. (-TS)   =      -0.00005226 Ry

     convergence has been achieved in   6 iterations


     Computing stress (Cartesian axis) and pressure

          total   stress  (Ry/bohr**3)                   (kbar)     P=   -9.76
  -0.00006638  -0.00000000  -0.00000000         -9.76     -0.00     -0.00
  -0.00000000  -0.00006638   0.00000000         -0.00     -9.76      0.00
  -0.00000000   0.00000000  -0.00006638         -0.00      0.00     -9.76


     Writing output data file na.fcc.save

     init_run     :      0.82s CPU      0.89s WALL (       1 calls)
     electrons    :     19.34s CPU     20.48s WALL (       1 calls)
     stress       :      0.80s CPU      0.80s WALL (       1 calls)

     Called by init_run:
     wfcinit      :      0.63s CPU      0.67s WALL (       1 calls)
     potinit      :      0.03s CPU      0.03s WALL (       1 calls)

     Called by electrons:
     c_bands      :     16.44s CPU     17.47s WALL (       7 calls)
     sum_band     :      2.68s CPU      2.78s WALL (       7 calls)
     v_of_rho     :      0.09s CPU      0.09s WALL (       7 calls)
     newd         :      0.08s CPU      0.08s WALL (       7 calls)
     mix_rho      :      0.01s CPU      0.01s WALL (       7 calls)

     Called by c_bands:
     init_us_2    :      0.28s CPU      0.29s WALL (    3088 calls)
     cegterg      :     14.38s CPU     15.40s WALL (    1351 calls)

     Called by sum_band:
     sum_band:bec :      0.02s CPU      0.02s WALL (    1351 calls)
     addusdens    :      0.10s CPU      0.10s WALL (       7 calls)

     Called by *egterg:
     h_psi        :     10.83s CPU     11.42s WALL (    5408 calls)
     s_psi        :      0.12s CPU      0.12s WALL (    5408 calls)
     g_psi        :      0.03s CPU      0.04s WALL (    3864 calls)
     cdiaghg      :      2.33s CPU      2.52s WALL (    5022 calls)

     Called by h_psi:
     h_psi:pot    :     10.78s CPU     11.37s WALL (    5408 calls)
     h_psi:calbec :      0.45s CPU      0.47s WALL (    5408 calls)
     vloc_psi     :     10.16s CPU     10.72s WALL (    5408 calls)
     add_vuspsi   :      0.12s CPU      0.13s WALL (    5408 calls)

     General routines
     calbec       :      0.60s CPU      0.63s WALL (    6952 calls)
     fft          :      0.10s CPU      0.10s WALL (     117 calls)
     ffts         :      0.01s CPU      0.01s WALL (      14 calls)
     fftw         :     11.01s CPU     11.58s WALL (   78821 calls)
     interpolate  :      0.02s CPU      0.02s WALL (      14 calls)
     davcio       :      0.00s CPU      0.11s WALL (     193 calls)

     Parallel routines
     fft_scatter  :      5.49s CPU      5.75s WALL (   78952 calls)

     PWSCF        :    23.88s CPU        25.38s WALL


   This run was terminated on:  10:53:40   1Feb2018            

=------------------------------------------------------------------------------=
   JOB DONE.
=------------------------------------------------------------------------------=
