
     Program PWSCF v.6.1 (svn rev. 13369) starts on 17Dec2017 at 16:28:22 

     This program is part of the open-source Quantum ESPRESSO suite
     for quantum simulation of materials; please cite
         "P. Giannozzi et al., J. Phys.:Condens. Matter 21 395502 (2009);
          URL http://www.quantum-espresso.org", 
     in publications or presentations arising from this work. More details at
     http://www.quantum-espresso.org/quote

     Parallel version (MPI), running on     4 processors
     R & G space division:  proc/nbgrp/npool/nimage =       4
     Waiting for input...
     Reading input from standard input

     Current dimensions of program PWSCF are:
     Max number of different atomic species (ntypx) = 10
     Max number of k-points (npk) =  40000
     Max angular momentum in pseudopotentials (lmaxx) =  3

     Subspace diagonalization in iterative solution of the eigenvalue problem:
     a serial algorithm will be used


     Parallelization info
     --------------------
     sticks:   dense  smooth     PW     G-vecs:    dense   smooth      PW
     Min        1038     519    142                42175    14933    2193
     Max        1039     520    143                42176    14934    2196
     Sum        4155    2077    571               168703    59735    8781



     bravais-lattice index     =            3
     lattice parameter (alat)  =       8.1080  a.u.
     unit-cell volume          =     266.5086 (a.u.)^3
     number of atoms/cell      =            1
     number of atomic types    =            1
     number of electrons       =         9.00
     number of Kohn-Sham states=            9
     kinetic-energy cutoff     =     140.0000  Ry
     charge density cutoff     =    1120.0000  Ry
     convergence threshold     =      1.0E-08
     mixing beta               =       0.7000
     number of iterations used =            8  plain     mixing
     Exchange-correlation      = SLA  PW   PBE  PBE ( 1  4  3  4 0 0)

     celldm(1)=   8.108000  celldm(2)=   0.000000  celldm(3)=   0.000000
     celldm(4)=   0.000000  celldm(5)=   0.000000  celldm(6)=   0.000000

     crystal axes: (cart. coord. in units of alat)
               a(1) = (   0.500000   0.500000   0.500000 )  
               a(2) = (  -0.500000   0.500000   0.500000 )  
               a(3) = (  -0.500000  -0.500000   0.500000 )  

     reciprocal axes: (cart. coord. in units 2 pi/alat)
               b(1) = (  1.000000  0.000000  1.000000 )  
               b(2) = ( -1.000000  1.000000  0.000000 )  
               b(3) = (  0.000000 -1.000000  1.000000 )  


     PseudoPot. # 1 for Na read from file:
     /home/max/quantum_espresso/qe-6.1/pseudo/Na_pbe_v1.uspp.F.UPF
     MD5 check sum: 76a99c7e9422403d3e93cbc85ab7bccb
     Pseudo is Ultrasoft, Zval =  9.0
     Generated by new atomic code, or converted to UPF format
     Using radial grid of  819 points,  5 beta functions with: 
                l(1) =   0
                l(2) =   0
                l(3) =   1
                l(4) =   1
                l(5) =   2
     Q(r) pseudized with  8 coefficients,  rinner =    1.250   1.250   1.250
                                                       1.250   1.250

     atomic species   valence    mass     pseudopotential
        Na             9.00    22.99000     Na( 1.00)

     48 Sym. Ops., with inversion, found



   Cartesian axes

     site n.     atom                  positions (alat units)
         1           Na  tau(   1) = (   0.0000000   0.0000000   0.0000000  )

     number of k points=    44  Marzari-Vanderbilt smearing, width (Ry)=  0.0200
                       cart. coord. in units 2pi/alat
        k(    1) = (   0.0000000   0.0000000   0.1000000), wk =   0.0120000
        k(    2) = (   0.0000000  -0.1000000   0.2000000), wk =   0.0480000
        k(    3) = (   0.0000000  -0.2000000   0.3000000), wk =   0.0480000
        k(    4) = (   0.0000000  -0.3000000   0.4000000), wk =   0.0480000
        k(    5) = (   0.0000000  -0.4000000   0.5000000), wk =   0.0480000
        k(    6) = (  -0.1000000   0.1000000   0.1000000), wk =   0.0160000
        k(    7) = (  -0.1000000  -0.1000000   0.3000000), wk =   0.0480000
        k(    8) = (  -0.1000000  -0.2000000   0.4000000), wk =   0.0960000
        k(    9) = (  -0.1000000  -0.3000000   0.5000000), wk =   0.0960000
        k(   10) = (  -0.1000000   0.6000000  -0.4000000), wk =   0.0480000
        k(   11) = (  -0.2000000   0.2000000   0.1000000), wk =   0.0480000
        k(   12) = (  -0.2000000  -0.2000000   0.5000000), wk =   0.0480000
        k(   13) = (  -0.2000000   0.7000000  -0.4000000), wk =   0.0960000
        k(   14) = (  -0.3000000   0.3000000   0.1000000), wk =   0.0480000
        k(   15) = (  -0.3000000   0.2000000   0.2000000), wk =   0.0480000
        k(   16) = (  -0.3000000   0.7000000  -0.3000000), wk =   0.0160000
        k(   17) = (  -0.4000000   0.4000000   0.1000000), wk =   0.0480000
        k(   18) = (  -0.4000000   0.3000000   0.2000000), wk =   0.0960000
        k(   19) = (   0.5000000  -0.5000000   0.1000000), wk =   0.0240000
        k(   20) = (   0.5000000  -0.6000000   0.2000000), wk =   0.0960000
        k(   21) = (   0.5000000  -0.7000000   0.3000000), wk =   0.0480000
        k(   22) = (   0.4000000  -0.6000000   0.3000000), wk =   0.0480000
        k(   23) = (   0.0000000   0.0000000   0.3000000), wk =   0.0120000
        k(   24) = (   0.0000000  -0.1000000   0.4000000), wk =   0.0480000
        k(   25) = (   0.0000000  -0.2000000   0.5000000), wk =   0.0480000
        k(   26) = (   0.0000000  -0.3000000   0.6000000), wk =   0.0480000
        k(   27) = (  -0.1000000  -0.1000000   0.5000000), wk =   0.0480000
        k(   28) = (  -0.1000000  -0.2000000   0.6000000), wk =   0.0960000
        k(   29) = (  -0.1000000   0.7000000  -0.3000000), wk =   0.0480000
        k(   30) = (  -0.2000000   0.8000000  -0.3000000), wk =   0.0480000
        k(   31) = (  -0.3000000   0.3000000   0.3000000), wk =   0.0160000
        k(   32) = (   0.6000000  -0.6000000   0.3000000), wk =   0.0480000
        k(   33) = (   0.5000000  -0.5000000   0.3000000), wk =   0.0240000
        k(   34) = (   0.5000000  -0.6000000   0.4000000), wk =   0.0480000
        k(   35) = (   0.0000000   0.0000000   0.5000000), wk =   0.0120000
        k(   36) = (   0.0000000  -0.1000000   0.6000000), wk =   0.0480000
        k(   37) = (   0.0000000  -0.2000000   0.7000000), wk =   0.0480000
        k(   38) = (  -0.1000000  -0.1000000   0.7000000), wk =   0.0480000
        k(   39) = (  -0.1000000   0.8000000  -0.2000000), wk =   0.0480000
        k(   40) = (   0.5000000  -0.5000000   0.5000000), wk =   0.0040000
        k(   41) = (   0.0000000   0.0000000   0.7000000), wk =   0.0120000
        k(   42) = (   0.0000000  -0.1000000   0.8000000), wk =   0.0480000
        k(   43) = (  -0.1000000   0.9000000  -0.1000000), wk =   0.0160000
        k(   44) = (   0.0000000   0.0000000   0.9000000), wk =   0.0120000

     Dense  grid:   168703 G-vectors     FFT dimensions: (  75,  75,  75)

     Smooth grid:    59735 G-vectors     FFT dimensions: (  54,  54,  54)

     Estimated max dynamical RAM per process >      37.99MB

     Estimated total allocated dynamical RAM >     151.98MB

     Initial potential from superposition of free atoms

     starting charge    8.99371, renormalised to    9.00000
     Starting wfc are    5 randomized atomic wfcs +    4 random wfc

     total cpu time spent up to now is        1.9 secs

     per-process dynamical memory:    35.6 Mb

     Self-consistent Calculation

     iteration #  1     ecut=   140.00 Ry     beta=0.70
     Davidson diagonalization with overlap
     ethr =  1.00E-02,  avg # of iterations =  5.9

     Threshold (ethr) on eigenvalues was too large:
     Diagonalizing with lowered threshold

     Davidson diagonalization with overlap
     ethr =  1.42E-05,  avg # of iterations =  4.9

     total cpu time spent up to now is       13.3 secs

     total energy              =     -95.09512018 Ry
     Harris-Foulkes estimate   =     -95.12835465 Ry
     estimated scf accuracy    <       0.00127013 Ry

     iteration #  2     ecut=   140.00 Ry     beta=0.70
     Davidson diagonalization with overlap
     ethr =  1.41E-05,  avg # of iterations =  3.5

     total cpu time spent up to now is       18.4 secs

     total energy              =     -95.10889879 Ry
     Harris-Foulkes estimate   =     -95.09626479 Ry
     estimated scf accuracy    <       0.00007797 Ry

     iteration #  3     ecut=   140.00 Ry     beta=0.70
     Davidson diagonalization with overlap
     ethr =  8.66E-07,  avg # of iterations =  3.3

     total cpu time spent up to now is       23.9 secs

     total energy              =     -95.10980079 Ry
     Harris-Foulkes estimate   =     -95.10898401 Ry
     estimated scf accuracy    <       0.00000886 Ry

     iteration #  4     ecut=   140.00 Ry     beta=0.70
     Davidson diagonalization with overlap
     ethr =  9.84E-08,  avg # of iterations =  2.0

     total cpu time spent up to now is       28.1 secs

     total energy              =     -95.10981584 Ry
     Harris-Foulkes estimate   =     -95.10980272 Ry
     estimated scf accuracy    <       0.00000074 Ry

     iteration #  5     ecut=   140.00 Ry     beta=0.70
     Davidson diagonalization with overlap
     ethr =  8.17E-09,  avg # of iterations =  1.8

     total cpu time spent up to now is       32.2 secs

     total energy              =     -95.10981653 Ry
     Harris-Foulkes estimate   =     -95.10981588 Ry
     estimated scf accuracy    <       0.00000007 Ry

     iteration #  6     ecut=   140.00 Ry     beta=0.70
     Davidson diagonalization with overlap
     ethr =  7.56E-10,  avg # of iterations =  1.6

     total cpu time spent up to now is       36.2 secs

     End of self-consistent calculation

          k = 0.0000 0.0000 0.1000 (  7487 PWs)   bands (ev):

   -51.7059 -23.6083 -23.6078 -23.6078  -1.7172  11.8395  11.8395  12.3514
    12.7520

          k = 0.0000-0.1000 0.2000 (  7462 PWs)   bands (ev):

   -51.7056 -23.6131 -23.6095 -23.6079  -1.3817   9.5495  10.7208  11.5684
    12.1816

          k = 0.0000-0.2000 0.3000 (  7451 PWs)   bands (ev):

   -51.7052 -23.6214 -23.6124 -23.6078  -0.7166   7.1734   9.8346  10.7678
    11.4103

          k = 0.0000-0.3000 0.4000 (  7460 PWs)   bands (ev):

   -51.7048 -23.6296 -23.6152 -23.6077   0.2668   5.0391   9.2330  10.1869
    10.8721

          k = 0.0000-0.4000 0.5000 (  7459 PWs)   bands (ev):

   -51.7045 -23.6347 -23.6170 -23.6077   1.5442   3.1859   8.9298   9.8896
    10.6014

          k =-0.1000 0.1000 0.1000 (  7461 PWs)   bands (ev):

   -51.7057 -23.6116 -23.6078 -23.6078  -1.5492  10.7001  10.7001  11.4084
    13.4249

          k =-0.1000-0.1000 0.3000 (  7449 PWs)   bands (ev):

   -51.7053 -23.6187 -23.6115 -23.6091  -0.8821   8.2703   8.8332  11.3725
    11.6086

          k =-0.1000-0.2000 0.4000 (  7445 PWs)   bands (ev):

   -51.7048 -23.6260 -23.6147 -23.6093  -0.0591   6.2319   7.8783  10.9028
    11.0525

          k =-0.1000-0.3000 0.5000 (  7435 PWs)   bands (ev):

   -51.7045 -23.6318 -23.6176 -23.6093   1.0725   4.2609   7.4005  10.5074
    10.6348

          k =-0.1000 0.6000-0.4000 (  7443 PWs)   bands (ev):

   -51.7044 -23.6341 -23.6187 -23.6093   2.3116   2.7383   7.2435  10.3738
    10.4839

          k =-0.2000 0.2000 0.1000 (  7466 PWs)   bands (ev):

   -51.7054 -23.6184 -23.6101 -23.6078  -1.0482   8.3456   9.6249  10.4205
    12.8070

          k =-0.2000-0.2000 0.5000 (  7441 PWs)   bands (ev):

   -51.7045 -23.6297 -23.6185 -23.6103   0.9128   5.3520   6.0420  10.4302
    11.5384

          k =-0.2000 0.7000-0.4000 (  7459 PWs)   bands (ev):

   -51.7043 -23.6312 -23.6220 -23.6107   2.1704   3.7792   5.4737  10.1432
    11.5635

          k =-0.3000 0.3000 0.1000 (  7445 PWs)   bands (ev):

   -51.7049 -23.6262 -23.6134 -23.6078  -0.2228   6.1031   8.8498   9.7180
    12.0823

          k =-0.3000 0.2000 0.2000 (  7442 PWs)   bands (ev):

   -51.7050 -23.6246 -23.6118 -23.6090  -0.3869   7.1898   7.7440   9.3516
    13.3621

          k =-0.3000 0.7000-0.3000 (  7461 PWs)   bands (ev):

   -51.7042 -23.6274 -23.6274 -23.6111   3.3704   3.3704   4.2395   9.9987
    12.6284

          k =-0.4000 0.4000 0.1000 (  7459 PWs)   bands (ev):

   -51.7046 -23.6324 -23.6163 -23.6078   0.9121   4.1100   8.3836   9.2879
    11.6358

          k =-0.4000 0.3000 0.2000 (  7457 PWs)   bands (ev):

   -51.7047 -23.6296 -23.6156 -23.6096   0.5906   5.3041   6.9273   8.7223
    13.0674

          k = 0.5000-0.5000 0.1000 (  7460 PWs)   bands (ev):

   -51.7045 -23.6348 -23.6173 -23.6078   2.1607   2.5748   8.2281   9.1431
    11.4862

          k = 0.5000-0.6000 0.2000 (  7453 PWs)   bands (ev):

   -51.7045 -23.6322 -23.6185 -23.6097   1.8581   3.4904   6.5992   8.4105
    12.8088

          k = 0.5000-0.7000 0.3000 (  7458 PWs)   bands (ev):

   -51.7045 -23.6300 -23.6197 -23.6109   1.7063   4.5864   5.2443   8.2250
    13.8537

          k = 0.4000-0.6000 0.3000 (  7457 PWs)   bands (ev):

   -51.7044 -23.6289 -23.6228 -23.6112   2.9152   3.3252   4.8603   8.0634
    13.9645

          k = 0.0000 0.0000 0.3000 (  7475 PWs)   bands (ev):

   -51.7054 -23.6142 -23.6114 -23.6114  -1.0482   9.5755   9.5755   9.7580
    11.3486

          k = 0.0000-0.1000 0.4000 (  7436 PWs)   bands (ev):

   -51.7049 -23.6210 -23.6142 -23.6119  -0.3869   7.4290   8.7010   9.4363
    11.0949

          k = 0.0000-0.2000 0.5000 (  7467 PWs)   bands (ev):

   -51.7045 -23.6286 -23.6172 -23.6117   0.5910   5.3344   8.1157   8.9469
    11.7622

          k = 0.0000-0.3000 0.6000 (  7461 PWs)   bands (ev):

   -51.7043 -23.6333 -23.6190 -23.6115   1.8595   3.4992   7.8228   8.6550
    12.3180

          k =-0.1000-0.1000 0.5000 (  7454 PWs)   bands (ev):

   -51.7045 -23.6259 -23.6176 -23.6134   0.4293   6.4281   7.0640   9.5216
    10.6028

          k =-0.1000-0.2000 0.6000 (  7458 PWs)   bands (ev):

   -51.7042 -23.6305 -23.6209 -23.6135   1.5507   4.6969   6.3797   9.4312
    11.1804

          k =-0.1000 0.7000-0.3000 (  7462 PWs)   bands (ev):

   -51.7041 -23.6322 -23.6221 -23.6135   2.7650   3.2177   6.2077   9.3252
    12.0116

          k =-0.2000 0.8000-0.3000 (  7457 PWs)   bands (ev):

   -51.7040 -23.6299 -23.6255 -23.6139   2.7842   4.1315   4.8394  10.3033
    10.9758

          k =-0.3000 0.3000 0.3000 (  7458 PWs)   bands (ev):

   -51.7047 -23.6287 -23.6123 -23.6123   0.4289   6.4194   6.4194   7.6789
    15.3153

          k = 0.6000-0.6000 0.3000 (  7453 PWs)   bands (ev):

   -51.7045 -23.6298 -23.6169 -23.6126   1.5488   4.6663   5.9581   6.9809
    15.2951

          k = 0.5000-0.5000 0.3000 (  7450 PWs)   bands (ev):

   -51.7044 -23.6294 -23.6195 -23.6128   2.7638   3.1997   5.8045   6.7863
    15.1638

          k = 0.5000-0.6000 0.4000 (  7467 PWs)   bands (ev):

   -51.7044 -23.6268 -23.6206 -23.6149   2.7787   4.1283   4.6876   6.3543
    16.3792

          k = 0.0000 0.0000 0.5000 (  7431 PWs)   bands (ev):

   -51.7045 -23.6217 -23.6173 -23.6173   0.2671   7.8021   7.8328   7.8328
     9.5787

          k = 0.0000-0.1000 0.6000 (  7454 PWs)   bands (ev):

   -51.7042 -23.6271 -23.6203 -23.6180   1.2340   5.8967   7.2535   7.8462
     9.5549

          k = 0.0000-0.2000 0.7000 (  7453 PWs)   bands (ev):

   -51.7039 -23.6312 -23.6222 -23.6176   2.4854   4.1131   6.9641   7.6354
    10.4367

          k =-0.1000-0.1000 0.7000 (  7453 PWs)   bands (ev):

   -51.7039 -23.6291 -23.6240 -23.6191   2.3380   5.2010   5.8568   8.2894
     9.2618

          k =-0.1000 0.8000-0.2000 (  7469 PWs)   bands (ev):

   -51.7038 -23.6300 -23.6259 -23.6190   3.5233   3.9597   5.4915   8.4475
     9.6860

          k = 0.5000-0.5000 0.5000 (  7500 PWs)   bands (ev):

   -51.7044 -23.6210 -23.6210 -23.6210   3.9759   3.9759   3.9759   5.4141
    18.0535

          k = 0.0000 0.0000 0.7000 (  7447 PWs)   bands (ev):

   -51.7038 -23.6264 -23.6235 -23.6235   2.1845   6.4966   6.6783   6.6783
     8.1944

          k = 0.0000-0.1000 0.8000 (  7464 PWs)   bands (ev):

   -51.7036 -23.6291 -23.6254 -23.6238   3.4110   4.9851   6.3911   6.8623
     8.3668

          k =-0.1000 0.9000-0.1000 (  7478 PWs)   bands (ev):

   -51.7035 -23.6282 -23.6282 -23.6243   4.5884   4.5884   5.4283   7.6759
     7.6759

          k = 0.0000 0.0000 0.9000 (  7460 PWs)   bands (ev):

   -51.7034 -23.6279 -23.6274 -23.6274   4.6041   5.8435   6.1051   6.1051
     6.9712

     the Fermi energy is     1.3737 ev

!    total energy              =     -95.10981660 Ry
     Harris-Foulkes estimate   =     -95.10981654 Ry
     estimated scf accuracy    <          1.9E-09 Ry

     The total energy is the sum of the following terms:

     one-electron contribution =     -89.50321556 Ry
     hartree contribution      =      45.00966126 Ry
     xc contribution           =     -14.25997524 Ry
     ewald contribution        =     -36.35642691 Ry
     smearing contrib. (-TS)   =       0.00013986 Ry

     convergence has been achieved in   6 iterations


     Computing stress (Cartesian axis) and pressure

          total   stress  (Ry/bohr**3)                   (kbar)     P=   -7.95
  -0.00005401  -0.00000000   0.00000000         -7.95     -0.00      0.00
  -0.00000000  -0.00005401   0.00000000         -0.00     -7.95      0.00
   0.00000000   0.00000000  -0.00005401          0.00      0.00     -7.95


     Writing output data file na.bcc.save

     init_run     :      1.57s CPU      1.87s WALL (       1 calls)
     electrons    :     29.88s CPU     34.34s WALL (       1 calls)
     stress       :      1.70s CPU      1.98s WALL (       1 calls)

     Called by init_run:
     wfcinit      :      0.85s CPU      0.96s WALL (       1 calls)
     potinit      :      0.19s CPU      0.21s WALL (       1 calls)

     Called by electrons:
     c_bands      :     22.05s CPU     25.34s WALL (       7 calls)
     sum_band     :      5.88s CPU      6.55s WALL (       7 calls)
     v_of_rho     :      0.98s CPU      1.06s WALL (       7 calls)
     newd         :      1.00s CPU      1.46s WALL (       7 calls)
     mix_rho      :      0.13s CPU      0.14s WALL (       7 calls)

     Called by c_bands:
     init_us_2    :      0.62s CPU      0.68s WALL (     704 calls)
     cegterg      :     21.43s CPU     24.63s WALL (     308 calls)

     Called by sum_band:
     sum_band:bec :      0.00s CPU      0.00s WALL (     308 calls)
     addusdens    :      1.41s CPU      1.71s WALL (       7 calls)

     Called by *egterg:
     h_psi        :     18.33s CPU     21.13s WALL (    1360 calls)
     s_psi        :      0.26s CPU      0.28s WALL (    1360 calls)
     g_psi        :      0.07s CPU      0.08s WALL (    1008 calls)
     cdiaghg      :      0.38s CPU      0.45s WALL (    1272 calls)

     Called by h_psi:
     h_psi:pot    :     18.25s CPU     21.03s WALL (    1360 calls)
     h_psi:calbec :      0.91s CPU      1.15s WALL (    1360 calls)
     vloc_psi     :     17.02s CPU     19.54s WALL (    1360 calls)
     add_vuspsi   :      0.31s CPU      0.33s WALL (    1360 calls)

     General routines
     calbec       :      1.24s CPU      1.51s WALL (    1712 calls)
     fft          :      1.03s CPU      1.20s WALL (     117 calls)
     ffts         :      0.02s CPU      0.02s WALL (      14 calls)
     fftw         :     15.42s CPU     17.83s WALL (   18866 calls)
     interpolate  :      0.16s CPU      0.17s WALL (      14 calls)
     davcio       :      0.00s CPU      0.00s WALL (      44 calls)

     Parallel routines
     fft_scatter  :      6.15s CPU      8.00s WALL (   18997 calls)

     PWSCF        :    33.33s CPU        38.56s WALL


   This run was terminated on:  16:29: 1  17Dec2017            

=------------------------------------------------------------------------------=
   JOB DONE.
=------------------------------------------------------------------------------=
