
     Program PWSCF v.6.1 (svn rev. 13369) starts on 17Dec2017 at 16:27:44 

     This program is part of the open-source Quantum ESPRESSO suite
     for quantum simulation of materials; please cite
         "P. Giannozzi et al., J. Phys.:Condens. Matter 21 395502 (2009);
          URL http://www.quantum-espresso.org", 
     in publications or presentations arising from this work. More details at
     http://www.quantum-espresso.org/quote

     Parallel version (MPI), running on     4 processors
     R & G space division:  proc/nbgrp/npool/nimage =       4
     Waiting for input...
     Reading input from standard input

     Current dimensions of program PWSCF are:
     Max number of different atomic species (ntypx) = 10
     Max number of k-points (npk) =  40000
     Max angular momentum in pseudopotentials (lmaxx) =  3

     Subspace diagonalization in iterative solution of the eigenvalue problem:
     a serial algorithm will be used


     Parallelization info
     --------------------
     sticks:   dense  smooth     PW     G-vecs:    dense   smooth      PW
     Min         958     481    135                37665    13279    2001
     Max         959     482    136                37666    13280    2004
     Sum        3835    1925    541               150661    53117    8007



     bravais-lattice index     =            3
     lattice parameter (alat)  =       8.1080  a.u.
     unit-cell volume          =     266.5086 (a.u.)^3
     number of atoms/cell      =            1
     number of atomic types    =            1
     number of electrons       =         9.00
     number of Kohn-Sham states=            9
     kinetic-energy cutoff     =     130.0000  Ry
     charge density cutoff     =    1040.0000  Ry
     convergence threshold     =      1.0E-08
     mixing beta               =       0.7000
     number of iterations used =            8  plain     mixing
     Exchange-correlation      = SLA  PW   PBE  PBE ( 1  4  3  4 0 0)

     celldm(1)=   8.108000  celldm(2)=   0.000000  celldm(3)=   0.000000
     celldm(4)=   0.000000  celldm(5)=   0.000000  celldm(6)=   0.000000

     crystal axes: (cart. coord. in units of alat)
               a(1) = (   0.500000   0.500000   0.500000 )  
               a(2) = (  -0.500000   0.500000   0.500000 )  
               a(3) = (  -0.500000  -0.500000   0.500000 )  

     reciprocal axes: (cart. coord. in units 2 pi/alat)
               b(1) = (  1.000000  0.000000  1.000000 )  
               b(2) = ( -1.000000  1.000000  0.000000 )  
               b(3) = (  0.000000 -1.000000  1.000000 )  


     PseudoPot. # 1 for Na read from file:
     /home/max/quantum_espresso/qe-6.1/pseudo/Na_pbe_v1.uspp.F.UPF
     MD5 check sum: 76a99c7e9422403d3e93cbc85ab7bccb
     Pseudo is Ultrasoft, Zval =  9.0
     Generated by new atomic code, or converted to UPF format
     Using radial grid of  819 points,  5 beta functions with: 
                l(1) =   0
                l(2) =   0
                l(3) =   1
                l(4) =   1
                l(5) =   2
     Q(r) pseudized with  8 coefficients,  rinner =    1.250   1.250   1.250
                                                       1.250   1.250

     atomic species   valence    mass     pseudopotential
        Na             9.00    22.99000     Na( 1.00)

     48 Sym. Ops., with inversion, found



   Cartesian axes

     site n.     atom                  positions (alat units)
         1           Na  tau(   1) = (   0.0000000   0.0000000   0.0000000  )

     number of k points=    44  Marzari-Vanderbilt smearing, width (Ry)=  0.0200
                       cart. coord. in units 2pi/alat
        k(    1) = (   0.0000000   0.0000000   0.1000000), wk =   0.0120000
        k(    2) = (   0.0000000  -0.1000000   0.2000000), wk =   0.0480000
        k(    3) = (   0.0000000  -0.2000000   0.3000000), wk =   0.0480000
        k(    4) = (   0.0000000  -0.3000000   0.4000000), wk =   0.0480000
        k(    5) = (   0.0000000  -0.4000000   0.5000000), wk =   0.0480000
        k(    6) = (  -0.1000000   0.1000000   0.1000000), wk =   0.0160000
        k(    7) = (  -0.1000000  -0.1000000   0.3000000), wk =   0.0480000
        k(    8) = (  -0.1000000  -0.2000000   0.4000000), wk =   0.0960000
        k(    9) = (  -0.1000000  -0.3000000   0.5000000), wk =   0.0960000
        k(   10) = (  -0.1000000   0.6000000  -0.4000000), wk =   0.0480000
        k(   11) = (  -0.2000000   0.2000000   0.1000000), wk =   0.0480000
        k(   12) = (  -0.2000000  -0.2000000   0.5000000), wk =   0.0480000
        k(   13) = (  -0.2000000   0.7000000  -0.4000000), wk =   0.0960000
        k(   14) = (  -0.3000000   0.3000000   0.1000000), wk =   0.0480000
        k(   15) = (  -0.3000000   0.2000000   0.2000000), wk =   0.0480000
        k(   16) = (  -0.3000000   0.7000000  -0.3000000), wk =   0.0160000
        k(   17) = (  -0.4000000   0.4000000   0.1000000), wk =   0.0480000
        k(   18) = (  -0.4000000   0.3000000   0.2000000), wk =   0.0960000
        k(   19) = (   0.5000000  -0.5000000   0.1000000), wk =   0.0240000
        k(   20) = (   0.5000000  -0.6000000   0.2000000), wk =   0.0960000
        k(   21) = (   0.5000000  -0.7000000   0.3000000), wk =   0.0480000
        k(   22) = (   0.4000000  -0.6000000   0.3000000), wk =   0.0480000
        k(   23) = (   0.0000000   0.0000000   0.3000000), wk =   0.0120000
        k(   24) = (   0.0000000  -0.1000000   0.4000000), wk =   0.0480000
        k(   25) = (   0.0000000  -0.2000000   0.5000000), wk =   0.0480000
        k(   26) = (   0.0000000  -0.3000000   0.6000000), wk =   0.0480000
        k(   27) = (  -0.1000000  -0.1000000   0.5000000), wk =   0.0480000
        k(   28) = (  -0.1000000  -0.2000000   0.6000000), wk =   0.0960000
        k(   29) = (  -0.1000000   0.7000000  -0.3000000), wk =   0.0480000
        k(   30) = (  -0.2000000   0.8000000  -0.3000000), wk =   0.0480000
        k(   31) = (  -0.3000000   0.3000000   0.3000000), wk =   0.0160000
        k(   32) = (   0.6000000  -0.6000000   0.3000000), wk =   0.0480000
        k(   33) = (   0.5000000  -0.5000000   0.3000000), wk =   0.0240000
        k(   34) = (   0.5000000  -0.6000000   0.4000000), wk =   0.0480000
        k(   35) = (   0.0000000   0.0000000   0.5000000), wk =   0.0120000
        k(   36) = (   0.0000000  -0.1000000   0.6000000), wk =   0.0480000
        k(   37) = (   0.0000000  -0.2000000   0.7000000), wk =   0.0480000
        k(   38) = (  -0.1000000  -0.1000000   0.7000000), wk =   0.0480000
        k(   39) = (  -0.1000000   0.8000000  -0.2000000), wk =   0.0480000
        k(   40) = (   0.5000000  -0.5000000   0.5000000), wk =   0.0040000
        k(   41) = (   0.0000000   0.0000000   0.7000000), wk =   0.0120000
        k(   42) = (   0.0000000  -0.1000000   0.8000000), wk =   0.0480000
        k(   43) = (  -0.1000000   0.9000000  -0.1000000), wk =   0.0160000
        k(   44) = (   0.0000000   0.0000000   0.9000000), wk =   0.0120000

     Dense  grid:   150661 G-vectors     FFT dimensions: (  75,  75,  75)

     Smooth grid:    53117 G-vectors     FFT dimensions: (  54,  54,  54)

     Estimated max dynamical RAM per process >      34.74MB

     Estimated total allocated dynamical RAM >     138.98MB

     Initial potential from superposition of free atoms

     starting charge    8.99371, renormalised to    9.00000
     Starting wfc are    5 randomized atomic wfcs +    4 random wfc

     total cpu time spent up to now is        1.9 secs

     per-process dynamical memory:    33.2 Mb

     Self-consistent Calculation

     iteration #  1     ecut=   130.00 Ry     beta=0.70
     Davidson diagonalization with overlap
     ethr =  1.00E-02,  avg # of iterations =  5.8

     Threshold (ethr) on eigenvalues was too large:
     Diagonalizing with lowered threshold

     Davidson diagonalization with overlap
     ethr =  1.34E-05,  avg # of iterations =  4.9

     total cpu time spent up to now is       12.3 secs

     total energy              =     -95.09632913 Ry
     Harris-Foulkes estimate   =     -95.12144955 Ry
     estimated scf accuracy    <       0.00120336 Ry

     iteration #  2     ecut=   130.00 Ry     beta=0.70
     Davidson diagonalization with overlap
     ethr =  1.34E-05,  avg # of iterations =  3.4

     total cpu time spent up to now is       17.2 secs

     total energy              =     -95.10869981 Ry
     Harris-Foulkes estimate   =     -95.09726621 Ry
     estimated scf accuracy    <       0.00006901 Ry

     iteration #  3     ecut=   130.00 Ry     beta=0.70
     Davidson diagonalization with overlap
     ethr =  7.67E-07,  avg # of iterations =  3.2

     total cpu time spent up to now is       22.9 secs

     total energy              =     -95.10928502 Ry
     Harris-Foulkes estimate   =     -95.10878469 Ry
     estimated scf accuracy    <       0.00001020 Ry

     iteration #  4     ecut=   130.00 Ry     beta=0.70
     Davidson diagonalization with overlap
     ethr =  1.13E-07,  avg # of iterations =  1.7

     total cpu time spent up to now is       28.1 secs

     total energy              =     -95.10929649 Ry
     Harris-Foulkes estimate   =     -95.10928657 Ry
     estimated scf accuracy    <       0.00000058 Ry

     iteration #  5     ecut=   130.00 Ry     beta=0.70
     Davidson diagonalization with overlap
     ethr =  6.48E-09,  avg # of iterations =  2.0

     total cpu time spent up to now is       32.6 secs

     total energy              =     -95.10929720 Ry
     Harris-Foulkes estimate   =     -95.10929656 Ry
     estimated scf accuracy    <       0.00000006 Ry

     iteration #  6     ecut=   130.00 Ry     beta=0.70
     Davidson diagonalization with overlap
     ethr =  6.32E-10,  avg # of iterations =  1.6

     total cpu time spent up to now is       36.4 secs

     End of self-consistent calculation

          k = 0.0000 0.0000 0.1000 (  6675 PWs)   bands (ev):

   -51.7065 -23.6079 -23.6075 -23.6075  -1.7169  11.8400  11.8400  12.3515
    12.7524

          k = 0.0000-0.1000 0.2000 (  6684 PWs)   bands (ev):

   -51.7062 -23.6129 -23.6093 -23.6076  -1.3814   9.5498  10.7212  11.5687
    12.1821

          k = 0.0000-0.2000 0.3000 (  6673 PWs)   bands (ev):

   -51.7058 -23.6211 -23.6121 -23.6075  -0.7163   7.1737   9.8350  10.7681
    11.4108

          k = 0.0000-0.3000 0.4000 (  6672 PWs)   bands (ev):

   -51.7053 -23.6293 -23.6150 -23.6074   0.2671   5.0395   9.2334  10.1872
    10.8726

          k = 0.0000-0.4000 0.5000 (  6684 PWs)   bands (ev):

   -51.7051 -23.6344 -23.6168 -23.6074   1.5445   3.1862   8.9302   9.8899
    10.6020

          k =-0.1000 0.1000 0.1000 (  6669 PWs)   bands (ev):

   -51.7063 -23.6114 -23.6075 -23.6075  -1.5489  10.7003  10.7003  11.4090
    13.4252

          k =-0.1000-0.1000 0.3000 (  6679 PWs)   bands (ev):

   -51.7059 -23.6185 -23.6112 -23.6088  -0.8818   8.2705   8.8337  11.3728
    11.6092

          k =-0.1000-0.2000 0.4000 (  6664 PWs)   bands (ev):

   -51.7054 -23.6258 -23.6145 -23.6091  -0.0588   6.2322   7.8787  10.9033
    11.0528

          k =-0.1000-0.3000 0.5000 (  6678 PWs)   bands (ev):

   -51.7051 -23.6316 -23.6174 -23.6091   1.0728   4.2612   7.4008  10.5079
    10.6351

          k =-0.1000 0.6000-0.4000 (  6674 PWs)   bands (ev):

   -51.7050 -23.6339 -23.6185 -23.6091   2.3119   2.7387   7.2439  10.3743
    10.4842

          k =-0.2000 0.2000 0.1000 (  6666 PWs)   bands (ev):

   -51.7060 -23.6181 -23.6098 -23.6075  -1.0479   8.3459   9.6251  10.4211
    12.8073

          k =-0.2000-0.2000 0.5000 (  6666 PWs)   bands (ev):

   -51.7051 -23.6294 -23.6183 -23.6101   0.9131   5.3523   6.0424  10.4307
    11.5387

          k =-0.2000 0.7000-0.4000 (  6674 PWs)   bands (ev):

   -51.7049 -23.6309 -23.6218 -23.6104   2.1707   3.7796   5.4741  10.1437
    11.5639

          k =-0.3000 0.3000 0.1000 (  6652 PWs)   bands (ev):

   -51.7055 -23.6259 -23.6132 -23.6075  -0.2225   6.1035   8.8500   9.7186
    12.0826

          k =-0.3000 0.2000 0.2000 (  6667 PWs)   bands (ev):

   -51.7056 -23.6244 -23.6116 -23.6088  -0.3866   7.1901   7.7444   9.3522
    13.3624

          k =-0.3000 0.7000-0.3000 (  6686 PWs)   bands (ev):

   -51.7048 -23.6271 -23.6271 -23.6108   3.3707   3.3707   4.2400   9.9992
    12.6286

          k =-0.4000 0.4000 0.1000 (  6673 PWs)   bands (ev):

   -51.7052 -23.6322 -23.6160 -23.6075   0.9124   4.1103   8.3838   9.2885
    11.6361

          k =-0.4000 0.3000 0.2000 (  6662 PWs)   bands (ev):

   -51.7053 -23.6294 -23.6153 -23.6093   0.5909   5.3044   6.9277   8.7228
    13.0677

          k = 0.5000-0.5000 0.1000 (  6682 PWs)   bands (ev):

   -51.7051 -23.6346 -23.6171 -23.6076   2.1610   2.5752   8.2283   9.1437
    11.4865

          k = 0.5000-0.6000 0.2000 (  6675 PWs)   bands (ev):

   -51.7051 -23.6320 -23.6183 -23.6095   1.8584   3.4907   6.5995   8.4110
    12.8091

          k = 0.5000-0.7000 0.3000 (  6663 PWs)   bands (ev):

   -51.7051 -23.6298 -23.6194 -23.6106   1.7066   4.5866   5.2447   8.2255
    13.8540

          k = 0.4000-0.6000 0.3000 (  6676 PWs)   bands (ev):

   -51.7050 -23.6286 -23.6225 -23.6110   2.9155   3.3255   4.8607   8.0639
    13.9648

          k = 0.0000 0.0000 0.3000 (  6683 PWs)   bands (ev):

   -51.7059 -23.6140 -23.6111 -23.6111  -1.0479   9.5760   9.5760   9.7581
    11.3491

          k = 0.0000-0.1000 0.4000 (  6676 PWs)   bands (ev):

   -51.7055 -23.6208 -23.6140 -23.6117  -0.3866   7.4294   8.7014   9.4366
    11.0954

          k = 0.0000-0.2000 0.5000 (  6668 PWs)   bands (ev):

   -51.7051 -23.6284 -23.6169 -23.6114   0.5913   5.3347   8.1162   8.9471
    11.7626

          k = 0.0000-0.3000 0.6000 (  6687 PWs)   bands (ev):

   -51.7049 -23.6331 -23.6188 -23.6113   1.8598   3.4996   7.8232   8.6553
    12.3185

          k =-0.1000-0.1000 0.5000 (  6670 PWs)   bands (ev):

   -51.7051 -23.6256 -23.6174 -23.6132   0.4296   6.4283   7.0644   9.5219
    10.6033

          k =-0.1000-0.2000 0.6000 (  6676 PWs)   bands (ev):

   -51.7048 -23.6302 -23.6206 -23.6133   1.5511   4.6972   6.3801   9.4315
    11.1809

          k =-0.1000 0.7000-0.3000 (  6666 PWs)   bands (ev):

   -51.7047 -23.6320 -23.6218 -23.6132   2.7653   3.2181   6.2081   9.3256
    12.0119

          k =-0.2000 0.8000-0.3000 (  6670 PWs)   bands (ev):

   -51.7046 -23.6297 -23.6253 -23.6137   2.7845   4.1317   4.8399  10.3036
    10.9762

          k =-0.3000 0.3000 0.3000 (  6654 PWs)   bands (ev):

   -51.7053 -23.6284 -23.6120 -23.6120   0.4292   6.4197   6.4197   7.6795
    15.3157

          k = 0.6000-0.6000 0.3000 (  6662 PWs)   bands (ev):

   -51.7051 -23.6296 -23.6167 -23.6124   1.5491   4.6666   5.9584   6.9815
    15.2954

          k = 0.5000-0.5000 0.3000 (  6658 PWs)   bands (ev):

   -51.7050 -23.6292 -23.6193 -23.6125   2.7640   3.2001   5.8048   6.7869
    15.1641

          k = 0.5000-0.6000 0.4000 (  6665 PWs)   bands (ev):

   -51.7050 -23.6265 -23.6203 -23.6147   2.7790   4.1286   4.6880   6.3548
    16.3796

          k = 0.0000 0.0000 0.5000 (  6675 PWs)   bands (ev):

   -51.7051 -23.6215 -23.6170 -23.6170   0.2674   7.8022   7.8332   7.8332
     9.5793

          k = 0.0000-0.1000 0.6000 (  6662 PWs)   bands (ev):

   -51.7048 -23.6268 -23.6201 -23.6178   1.2343   5.8970   7.2539   7.8465
     9.5554

          k = 0.0000-0.2000 0.7000 (  6666 PWs)   bands (ev):

   -51.7045 -23.6309 -23.6220 -23.6174   2.4857   4.1135   6.9645   7.6357
    10.4371

          k =-0.1000-0.1000 0.7000 (  6661 PWs)   bands (ev):

   -51.7045 -23.6289 -23.6238 -23.6188   2.3383   5.2013   5.8572   8.2897
     9.2622

          k =-0.1000 0.8000-0.2000 (  6667 PWs)   bands (ev):

   -51.7043 -23.6297 -23.6256 -23.6188   3.5235   3.9600   5.4919   8.4478
     9.6863

          k = 0.5000-0.5000 0.5000 (  6632 PWs)   bands (ev):

   -51.7050 -23.6207 -23.6207 -23.6207   3.9761   3.9761   3.9761   5.4147
    18.0543

          k = 0.0000 0.0000 0.7000 (  6663 PWs)   bands (ev):

   -51.7044 -23.6261 -23.6232 -23.6232   2.1848   6.4967   6.6787   6.6787
     8.1948

          k = 0.0000-0.1000 0.8000 (  6681 PWs)   bands (ev):

   -51.7042 -23.6288 -23.6252 -23.6236   3.4113   4.9854   6.3916   6.8626
     8.3671

          k =-0.1000 0.9000-0.1000 (  6668 PWs)   bands (ev):

   -51.7041 -23.6279 -23.6279 -23.6241   4.5886   4.5886   5.4288   7.6762
     7.6762

          k = 0.0000 0.0000 0.9000 (  6662 PWs)   bands (ev):

   -51.7040 -23.6276 -23.6271 -23.6271   4.6044   5.8436   6.1055   6.1055
     6.9715

     the Fermi energy is     1.3740 ev

!    total energy              =     -95.10929726 Ry
     Harris-Foulkes estimate   =     -95.10929720 Ry
     estimated scf accuracy    <          1.9E-09 Ry

     The total energy is the sum of the following terms:

     one-electron contribution =     -89.50227947 Ry
     hartree contribution      =      45.00915113 Ry
     xc contribution           =     -14.25988186 Ry
     ewald contribution        =     -36.35642691 Ry
     smearing contrib. (-TS)   =       0.00013986 Ry

     convergence has been achieved in   6 iterations


     Computing stress (Cartesian axis) and pressure

          total   stress  (Ry/bohr**3)                   (kbar)     P=   -6.76
  -0.00004596   0.00000000  -0.00000000         -6.76      0.00     -0.00
   0.00000000  -0.00004596   0.00000000          0.00     -6.76      0.00
  -0.00000000   0.00000000  -0.00004596         -0.00      0.00     -6.76


     Writing output data file na.bcc.save

     init_run     :      1.52s CPU      1.85s WALL (       1 calls)
     electrons    :     29.16s CPU     34.54s WALL (       1 calls)
     stress       :      1.46s CPU      1.77s WALL (       1 calls)

     Called by init_run:
     wfcinit      :      0.88s CPU      1.03s WALL (       1 calls)
     potinit      :      0.25s CPU      0.28s WALL (       1 calls)

     Called by electrons:
     c_bands      :     22.09s CPU     26.22s WALL (       7 calls)
     sum_band     :      5.07s CPU      5.79s WALL (       7 calls)
     v_of_rho     :      1.08s CPU      1.28s WALL (       7 calls)
     newd         :      0.94s CPU      1.29s WALL (       7 calls)
     mix_rho      :      0.17s CPU      0.24s WALL (       7 calls)

     Called by c_bands:
     init_us_2    :      0.56s CPU      0.60s WALL (     704 calls)
     cegterg      :     21.48s CPU     25.52s WALL (     308 calls)

     Called by sum_band:
     sum_band:bec :      0.00s CPU      0.00s WALL (     308 calls)
     addusdens    :      1.06s CPU      1.35s WALL (       7 calls)

     Called by *egterg:
     h_psi        :     18.65s CPU     22.10s WALL (    1350 calls)
     s_psi        :      0.24s CPU      0.25s WALL (    1350 calls)
     g_psi        :      0.06s CPU      0.07s WALL (     998 calls)
     cdiaghg      :      0.34s CPU      0.47s WALL (    1262 calls)

     Called by h_psi:
     h_psi:pot    :     18.57s CPU     22.01s WALL (    1350 calls)
     h_psi:calbec :      0.90s CPU      1.09s WALL (    1350 calls)
     vloc_psi     :     17.34s CPU     20.55s WALL (    1350 calls)
     add_vuspsi   :      0.32s CPU      0.37s WALL (    1350 calls)

     General routines
     calbec       :      1.28s CPU      1.51s WALL (    1702 calls)
     fft          :      1.08s CPU      1.31s WALL (     117 calls)
     ffts         :      0.03s CPU      0.04s WALL (      14 calls)
     fftw         :     15.90s CPU     18.90s WALL (   18824 calls)
     interpolate  :      0.18s CPU      0.21s WALL (      14 calls)
     davcio       :      0.00s CPU      0.00s WALL (      44 calls)

     Parallel routines
     fft_scatter  :      6.74s CPU      8.91s WALL (   18955 calls)

     PWSCF        :    32.26s CPU        38.30s WALL


   This run was terminated on:  16:28:22  17Dec2017            

=------------------------------------------------------------------------------=
   JOB DONE.
=------------------------------------------------------------------------------=
