
     Program PWSCF v.6.1 (svn rev. 13369) starts on 17Dec2017 at 16:27:12 

     This program is part of the open-source Quantum ESPRESSO suite
     for quantum simulation of materials; please cite
         "P. Giannozzi et al., J. Phys.:Condens. Matter 21 395502 (2009);
          URL http://www.quantum-espresso.org", 
     in publications or presentations arising from this work. More details at
     http://www.quantum-espresso.org/quote

     Parallel version (MPI), running on     4 processors
     R & G space division:  proc/nbgrp/npool/nimage =       4
     Waiting for input...
     Reading input from standard input

     Current dimensions of program PWSCF are:
     Max number of different atomic species (ntypx) = 10
     Max number of k-points (npk) =  40000
     Max angular momentum in pseudopotentials (lmaxx) =  3

     Subspace diagonalization in iterative solution of the eigenvalue problem:
     a serial algorithm will be used


     Parallelization info
     --------------------
     sticks:   dense  smooth     PW     G-vecs:    dense   smooth      PW
     Min         885     443    124                33494    11840    1776
     Max         886     444    125                33495    11843    1777
     Sum        3543    1775    499               133979    47369    7107



     bravais-lattice index     =            3
     lattice parameter (alat)  =       8.1080  a.u.
     unit-cell volume          =     266.5086 (a.u.)^3
     number of atoms/cell      =            1
     number of atomic types    =            1
     number of electrons       =         9.00
     number of Kohn-Sham states=            9
     kinetic-energy cutoff     =     120.0000  Ry
     charge density cutoff     =     960.0000  Ry
     convergence threshold     =      1.0E-08
     mixing beta               =       0.7000
     number of iterations used =            8  plain     mixing
     Exchange-correlation      = SLA  PW   PBE  PBE ( 1  4  3  4 0 0)

     celldm(1)=   8.108000  celldm(2)=   0.000000  celldm(3)=   0.000000
     celldm(4)=   0.000000  celldm(5)=   0.000000  celldm(6)=   0.000000

     crystal axes: (cart. coord. in units of alat)
               a(1) = (   0.500000   0.500000   0.500000 )  
               a(2) = (  -0.500000   0.500000   0.500000 )  
               a(3) = (  -0.500000  -0.500000   0.500000 )  

     reciprocal axes: (cart. coord. in units 2 pi/alat)
               b(1) = (  1.000000  0.000000  1.000000 )  
               b(2) = ( -1.000000  1.000000  0.000000 )  
               b(3) = (  0.000000 -1.000000  1.000000 )  


     PseudoPot. # 1 for Na read from file:
     /home/max/quantum_espresso/qe-6.1/pseudo/Na_pbe_v1.uspp.F.UPF
     MD5 check sum: 76a99c7e9422403d3e93cbc85ab7bccb
     Pseudo is Ultrasoft, Zval =  9.0
     Generated by new atomic code, or converted to UPF format
     Using radial grid of  819 points,  5 beta functions with: 
                l(1) =   0
                l(2) =   0
                l(3) =   1
                l(4) =   1
                l(5) =   2
     Q(r) pseudized with  8 coefficients,  rinner =    1.250   1.250   1.250
                                                       1.250   1.250

     atomic species   valence    mass     pseudopotential
        Na             9.00    22.99000     Na( 1.00)

     48 Sym. Ops., with inversion, found



   Cartesian axes

     site n.     atom                  positions (alat units)
         1           Na  tau(   1) = (   0.0000000   0.0000000   0.0000000  )

     number of k points=    44  Marzari-Vanderbilt smearing, width (Ry)=  0.0200
                       cart. coord. in units 2pi/alat
        k(    1) = (   0.0000000   0.0000000   0.1000000), wk =   0.0120000
        k(    2) = (   0.0000000  -0.1000000   0.2000000), wk =   0.0480000
        k(    3) = (   0.0000000  -0.2000000   0.3000000), wk =   0.0480000
        k(    4) = (   0.0000000  -0.3000000   0.4000000), wk =   0.0480000
        k(    5) = (   0.0000000  -0.4000000   0.5000000), wk =   0.0480000
        k(    6) = (  -0.1000000   0.1000000   0.1000000), wk =   0.0160000
        k(    7) = (  -0.1000000  -0.1000000   0.3000000), wk =   0.0480000
        k(    8) = (  -0.1000000  -0.2000000   0.4000000), wk =   0.0960000
        k(    9) = (  -0.1000000  -0.3000000   0.5000000), wk =   0.0960000
        k(   10) = (  -0.1000000   0.6000000  -0.4000000), wk =   0.0480000
        k(   11) = (  -0.2000000   0.2000000   0.1000000), wk =   0.0480000
        k(   12) = (  -0.2000000  -0.2000000   0.5000000), wk =   0.0480000
        k(   13) = (  -0.2000000   0.7000000  -0.4000000), wk =   0.0960000
        k(   14) = (  -0.3000000   0.3000000   0.1000000), wk =   0.0480000
        k(   15) = (  -0.3000000   0.2000000   0.2000000), wk =   0.0480000
        k(   16) = (  -0.3000000   0.7000000  -0.3000000), wk =   0.0160000
        k(   17) = (  -0.4000000   0.4000000   0.1000000), wk =   0.0480000
        k(   18) = (  -0.4000000   0.3000000   0.2000000), wk =   0.0960000
        k(   19) = (   0.5000000  -0.5000000   0.1000000), wk =   0.0240000
        k(   20) = (   0.5000000  -0.6000000   0.2000000), wk =   0.0960000
        k(   21) = (   0.5000000  -0.7000000   0.3000000), wk =   0.0480000
        k(   22) = (   0.4000000  -0.6000000   0.3000000), wk =   0.0480000
        k(   23) = (   0.0000000   0.0000000   0.3000000), wk =   0.0120000
        k(   24) = (   0.0000000  -0.1000000   0.4000000), wk =   0.0480000
        k(   25) = (   0.0000000  -0.2000000   0.5000000), wk =   0.0480000
        k(   26) = (   0.0000000  -0.3000000   0.6000000), wk =   0.0480000
        k(   27) = (  -0.1000000  -0.1000000   0.5000000), wk =   0.0480000
        k(   28) = (  -0.1000000  -0.2000000   0.6000000), wk =   0.0960000
        k(   29) = (  -0.1000000   0.7000000  -0.3000000), wk =   0.0480000
        k(   30) = (  -0.2000000   0.8000000  -0.3000000), wk =   0.0480000
        k(   31) = (  -0.3000000   0.3000000   0.3000000), wk =   0.0160000
        k(   32) = (   0.6000000  -0.6000000   0.3000000), wk =   0.0480000
        k(   33) = (   0.5000000  -0.5000000   0.3000000), wk =   0.0240000
        k(   34) = (   0.5000000  -0.6000000   0.4000000), wk =   0.0480000
        k(   35) = (   0.0000000   0.0000000   0.5000000), wk =   0.0120000
        k(   36) = (   0.0000000  -0.1000000   0.6000000), wk =   0.0480000
        k(   37) = (   0.0000000  -0.2000000   0.7000000), wk =   0.0480000
        k(   38) = (  -0.1000000  -0.1000000   0.7000000), wk =   0.0480000
        k(   39) = (  -0.1000000   0.8000000  -0.2000000), wk =   0.0480000
        k(   40) = (   0.5000000  -0.5000000   0.5000000), wk =   0.0040000
        k(   41) = (   0.0000000   0.0000000   0.7000000), wk =   0.0120000
        k(   42) = (   0.0000000  -0.1000000   0.8000000), wk =   0.0480000
        k(   43) = (  -0.1000000   0.9000000  -0.1000000), wk =   0.0160000
        k(   44) = (   0.0000000   0.0000000   0.9000000), wk =   0.0120000

     Dense  grid:   133979 G-vectors     FFT dimensions: (  72,  72,  72)

     Smooth grid:    47369 G-vectors     FFT dimensions: (  50,  50,  50)

     Estimated max dynamical RAM per process >      30.76MB

     Estimated total allocated dynamical RAM >     123.03MB

     Initial potential from superposition of free atoms

     starting charge    8.99371, renormalised to    9.00000
     Starting wfc are    5 randomized atomic wfcs +    4 random wfc

     total cpu time spent up to now is        2.2 secs

     per-process dynamical memory:    30.1 Mb

     Self-consistent Calculation

     iteration #  1     ecut=   120.00 Ry     beta=0.70
     Davidson diagonalization with overlap
     ethr =  1.00E-02,  avg # of iterations =  5.8

     Threshold (ethr) on eigenvalues was too large:
     Diagonalizing with lowered threshold

     Davidson diagonalization with overlap
     ethr =  1.25E-05,  avg # of iterations =  5.0

     total cpu time spent up to now is       11.9 secs

     total energy              =     -95.09847699 Ry
     Harris-Foulkes estimate   =     -95.11346391 Ry
     estimated scf accuracy    <       0.00112414 Ry

     iteration #  2     ecut=   120.00 Ry     beta=0.70
     Davidson diagonalization with overlap
     ethr =  1.25E-05,  avg # of iterations =  3.2

     total cpu time spent up to now is       16.5 secs

     total energy              =     -95.10869704 Ry
     Harris-Foulkes estimate   =     -95.09920195 Ry
     estimated scf accuracy    <       0.00005936 Ry

     iteration #  3     ecut=   120.00 Ry     beta=0.70
     Davidson diagonalization with overlap
     ethr =  6.60E-07,  avg # of iterations =  3.2

     total cpu time spent up to now is       21.0 secs

     total energy              =     -95.10904928 Ry
     Harris-Foulkes estimate   =     -95.10877067 Ry
     estimated scf accuracy    <       0.00001067 Ry

     iteration #  4     ecut=   120.00 Ry     beta=0.70
     Davidson diagonalization with overlap
     ethr =  1.19E-07,  avg # of iterations =  1.7

     total cpu time spent up to now is       24.1 secs

     total energy              =     -95.10905805 Ry
     Harris-Foulkes estimate   =     -95.10905058 Ry
     estimated scf accuracy    <       0.00000038 Ry

     iteration #  5     ecut=   120.00 Ry     beta=0.70
     Davidson diagonalization with overlap
     ethr =  4.24E-09,  avg # of iterations =  2.0

     total cpu time spent up to now is       27.6 secs

     total energy              =     -95.10905869 Ry
     Harris-Foulkes estimate   =     -95.10905812 Ry
     estimated scf accuracy    <       0.00000004 Ry

     iteration #  6     ecut=   120.00 Ry     beta=0.70
     Davidson diagonalization with overlap
     ethr =  4.22E-10,  avg # of iterations =  1.6

     total cpu time spent up to now is       30.5 secs

     End of self-consistent calculation

          k = 0.0000 0.0000 0.1000 (  5927 PWs)   bands (ev):

   -51.7068 -23.6079 -23.6075 -23.6075  -1.7166  11.8404  11.8404  12.3517
    12.7529

          k = 0.0000-0.1000 0.2000 (  5904 PWs)   bands (ev):

   -51.7066 -23.6129 -23.6093 -23.6076  -1.3811   9.5501  10.7215  11.5690
    12.1826

          k = 0.0000-0.2000 0.3000 (  5915 PWs)   bands (ev):

   -51.7061 -23.6211 -23.6121 -23.6075  -0.7160   7.1740   9.8354  10.7683
    11.4112

          k = 0.0000-0.3000 0.4000 (  5926 PWs)   bands (ev):

   -51.7057 -23.6294 -23.6150 -23.6075   0.2674   5.0398   9.2337  10.1875
    10.8730

          k = 0.0000-0.4000 0.5000 (  5918 PWs)   bands (ev):

   -51.7055 -23.6344 -23.6168 -23.6074   1.5448   3.1865   8.9305   9.8902
    10.6024

          k =-0.1000 0.1000 0.1000 (  5904 PWs)   bands (ev):

   -51.7067 -23.6114 -23.6075 -23.6075  -1.5486  10.7007  10.7007  11.4094
    13.4255

          k =-0.1000-0.1000 0.3000 (  5915 PWs)   bands (ev):

   -51.7062 -23.6185 -23.6112 -23.6088  -0.8815   8.2708   8.8340  11.3731
    11.6096

          k =-0.1000-0.2000 0.4000 (  5913 PWs)   bands (ev):

   -51.7058 -23.6258 -23.6145 -23.6091  -0.0585   6.2325   7.8790  10.9037
    11.0531

          k =-0.1000-0.3000 0.5000 (  5920 PWs)   bands (ev):

   -51.7055 -23.6316 -23.6174 -23.6091   1.0731   4.2615   7.4012  10.5082
    10.6354

          k =-0.1000 0.6000-0.4000 (  5930 PWs)   bands (ev):

   -51.7053 -23.6338 -23.6185 -23.6091   2.3122   2.7390   7.2442  10.3747
    10.4845

          k =-0.2000 0.2000 0.1000 (  5905 PWs)   bands (ev):

   -51.7064 -23.6181 -23.6098 -23.6075  -1.0476   8.3462   9.6254  10.4215
    12.8076

          k =-0.2000-0.2000 0.5000 (  5919 PWs)   bands (ev):

   -51.7055 -23.6294 -23.6183 -23.6101   0.9134   5.3526   6.0428  10.4310
    11.5390

          k =-0.2000 0.7000-0.4000 (  5927 PWs)   bands (ev):

   -51.7053 -23.6309 -23.6218 -23.6104   2.1710   3.7799   5.4744  10.1440
    11.5642

          k =-0.3000 0.3000 0.1000 (  5927 PWs)   bands (ev):

   -51.7059 -23.6260 -23.6132 -23.6075  -0.2222   6.1038   8.8503   9.7190
    12.0829

          k =-0.3000 0.2000 0.2000 (  5908 PWs)   bands (ev):

   -51.7060 -23.6244 -23.6116 -23.6088  -0.3863   7.1904   7.7447   9.3525
    13.3627

          k =-0.3000 0.7000-0.3000 (  5918 PWs)   bands (ev):

   -51.7052 -23.6271 -23.6271 -23.6108   3.3710   3.3710   4.2403   9.9995
    12.6290

          k =-0.4000 0.4000 0.1000 (  5915 PWs)   bands (ev):

   -51.7056 -23.6322 -23.6160 -23.6076   0.9127   4.1106   8.3841   9.2889
    11.6364

          k =-0.4000 0.3000 0.2000 (  5915 PWs)   bands (ev):

   -51.7057 -23.6294 -23.6153 -23.6093   0.5912   5.3047   6.9280   8.7231
    13.0680

          k = 0.5000-0.5000 0.1000 (  5934 PWs)   bands (ev):

   -51.7054 -23.6345 -23.6171 -23.6076   2.1613   2.5755   8.2286   9.1441
    11.4868

          k = 0.5000-0.6000 0.2000 (  5918 PWs)   bands (ev):

   -51.7054 -23.6319 -23.6183 -23.6095   1.8587   3.4910   6.5998   8.4113
    12.8094

          k = 0.5000-0.7000 0.3000 (  5912 PWs)   bands (ev):

   -51.7054 -23.6298 -23.6194 -23.6107   1.7069   4.5869   5.2450   8.2259
    13.8543

          k = 0.4000-0.6000 0.3000 (  5918 PWs)   bands (ev):

   -51.7053 -23.6286 -23.6225 -23.6110   2.9158   3.3259   4.8610   8.0642
    13.9651

          k = 0.0000 0.0000 0.3000 (  5914 PWs)   bands (ev):

   -51.7063 -23.6140 -23.6111 -23.6111  -1.0475   9.5764   9.5764   9.7583
    11.3494

          k = 0.0000-0.1000 0.4000 (  5911 PWs)   bands (ev):

   -51.7059 -23.6208 -23.6140 -23.6117  -0.3862   7.4297   8.7018   9.4368
    11.0957

          k = 0.0000-0.2000 0.5000 (  5920 PWs)   bands (ev):

   -51.7055 -23.6284 -23.6169 -23.6114   0.5916   5.3350   8.1165   8.9474
    11.7630

          k = 0.0000-0.3000 0.6000 (  5923 PWs)   bands (ev):

   -51.7052 -23.6331 -23.6187 -23.6113   1.8602   3.4999   7.8236   8.6556
    12.3189

          k =-0.1000-0.1000 0.5000 (  5910 PWs)   bands (ev):

   -51.7055 -23.6256 -23.6174 -23.6132   0.4299   6.4286   7.0648   9.5222
    10.6036

          k =-0.1000-0.2000 0.6000 (  5923 PWs)   bands (ev):

   -51.7052 -23.6302 -23.6206 -23.6133   1.5514   4.6975   6.3804   9.4318
    11.1812

          k =-0.1000 0.7000-0.3000 (  5931 PWs)   bands (ev):

   -51.7051 -23.6320 -23.6219 -23.6132   2.7656   3.2184   6.2084   9.3259
    12.0122

          k =-0.2000 0.8000-0.3000 (  5926 PWs)   bands (ev):

   -51.7050 -23.6296 -23.6253 -23.6137   2.7848   4.1320   4.8402  10.3039
    10.9765

          k =-0.3000 0.3000 0.3000 (  5903 PWs)   bands (ev):

   -51.7057 -23.6284 -23.6120 -23.6120   0.4295   6.4200   6.4200   7.6799
    15.3160

          k = 0.6000-0.6000 0.3000 (  5914 PWs)   bands (ev):

   -51.7055 -23.6296 -23.6167 -23.6124   1.5494   4.6669   5.9587   6.9819
    15.2957

          k = 0.5000-0.5000 0.3000 (  5926 PWs)   bands (ev):

   -51.7054 -23.6292 -23.6193 -23.6125   2.7643   3.2004   5.8051   6.7872
    15.1644

          k = 0.5000-0.6000 0.4000 (  5905 PWs)   bands (ev):

   -51.7054 -23.6265 -23.6204 -23.6147   2.7793   4.1289   4.6883   6.3552
    16.3799

          k = 0.0000 0.0000 0.5000 (  5902 PWs)   bands (ev):

   -51.7055 -23.6215 -23.6170 -23.6170   0.2677   7.8024   7.8336   7.8336
     9.5795

          k = 0.0000-0.1000 0.6000 (  5911 PWs)   bands (ev):

   -51.7051 -23.6268 -23.6201 -23.6178   1.2346   5.8973   7.2543   7.8467
     9.5557

          k = 0.0000-0.2000 0.7000 (  5916 PWs)   bands (ev):

   -51.7049 -23.6309 -23.6220 -23.6174   2.4860   4.1138   6.9649   7.6359
    10.4374

          k =-0.1000-0.1000 0.7000 (  5917 PWs)   bands (ev):

   -51.7048 -23.6289 -23.6238 -23.6188   2.3386   5.2016   5.8576   8.2900
     9.2625

          k =-0.1000 0.8000-0.2000 (  5902 PWs)   bands (ev):

   -51.7047 -23.6297 -23.6256 -23.6188   3.5238   3.9604   5.4922   8.4481
     9.6866

          k = 0.5000-0.5000 0.5000 (  5876 PWs)   bands (ev):

   -51.7054 -23.6207 -23.6207 -23.6207   3.9764   3.9764   3.9764   5.4150
    18.0546

          k = 0.0000 0.0000 0.7000 (  5894 PWs)   bands (ev):

   -51.7048 -23.6261 -23.6232 -23.6232   2.1851   6.4969   6.6791   6.6791
     8.1950

          k = 0.0000-0.1000 0.8000 (  5895 PWs)   bands (ev):

   -51.7046 -23.6288 -23.6252 -23.6235   3.4116   4.9857   6.3920   6.8628
     8.3674

          k =-0.1000 0.9000-0.1000 (  5903 PWs)   bands (ev):

   -51.7044 -23.6279 -23.6279 -23.6240   4.5889   4.5889   5.4292   7.6765
     7.6765

          k = 0.0000 0.0000 0.9000 (  5894 PWs)   bands (ev):

   -51.7043 -23.6276 -23.6272 -23.6272   4.6047   5.8438   6.1059   6.1059
     6.9718

     the Fermi energy is     1.3743 ev

!    total energy              =     -95.10905874 Ry
     Harris-Foulkes estimate   =     -95.10905869 Ry
     estimated scf accuracy    <          2.0E-09 Ry

     The total energy is the sum of the following terms:

     one-electron contribution =     -89.50178846 Ry
     hartree contribution      =      45.00883163 Ry
     xc contribution           =     -14.25981486 Ry
     ewald contribution        =     -36.35642691 Ry
     smearing contrib. (-TS)   =       0.00013986 Ry

     convergence has been achieved in   6 iterations


     Computing stress (Cartesian axis) and pressure

          total   stress  (Ry/bohr**3)                   (kbar)     P=   -5.25
  -0.00003567  -0.00000000   0.00000000         -5.25     -0.00      0.00
  -0.00000000  -0.00003567  -0.00000000         -0.00     -5.25     -0.00
   0.00000000  -0.00000000  -0.00003567          0.00     -0.00     -5.25


     Writing output data file na.bcc.save

     init_run     :      1.67s CPU      2.14s WALL (       1 calls)
     electrons    :     24.84s CPU     28.34s WALL (       1 calls)
     stress       :      1.36s CPU      1.60s WALL (       1 calls)

     Called by init_run:
     wfcinit      :      1.13s CPU      1.57s WALL (       1 calls)
     potinit      :      0.15s CPU      0.16s WALL (       1 calls)

     Called by electrons:
     c_bands      :     18.43s CPU     20.73s WALL (       7 calls)
     sum_band     :      4.86s CPU      5.70s WALL (       7 calls)
     v_of_rho     :      0.82s CPU      0.90s WALL (       7 calls)
     newd         :      0.79s CPU      1.05s WALL (       7 calls)
     mix_rho      :      0.10s CPU      0.11s WALL (       7 calls)

     Called by c_bands:
     init_us_2    :      0.46s CPU      0.49s WALL (     704 calls)
     cegterg      :     17.91s CPU     20.16s WALL (     308 calls)

     Called by sum_band:
     sum_band:bec :      0.00s CPU      0.00s WALL (     308 calls)
     addusdens    :      0.87s CPU      1.07s WALL (       7 calls)

     Called by *egterg:
     h_psi        :     15.65s CPU     17.85s WALL (    1341 calls)
     s_psi        :      0.24s CPU      0.26s WALL (    1341 calls)
     g_psi        :      0.06s CPU      0.06s WALL (     989 calls)
     cdiaghg      :      0.33s CPU      0.41s WALL (    1253 calls)

     Called by h_psi:
     h_psi:pot    :     15.57s CPU     17.77s WALL (    1341 calls)
     h_psi:calbec :      0.80s CPU      0.93s WALL (    1341 calls)
     vloc_psi     :     14.47s CPU     16.51s WALL (    1341 calls)
     add_vuspsi   :      0.30s CPU      0.32s WALL (    1341 calls)

     General routines
     calbec       :      1.21s CPU      1.49s WALL (    1693 calls)
     fft          :      0.75s CPU      0.84s WALL (     117 calls)
     ffts         :      0.02s CPU      0.02s WALL (      14 calls)
     fftw         :     13.83s CPU     16.17s WALL (   18768 calls)
     interpolate  :      0.13s CPU      0.14s WALL (      14 calls)
     davcio       :      0.00s CPU      0.00s WALL (      44 calls)

     Parallel routines
     fft_scatter  :      6.06s CPU      7.70s WALL (   18899 calls)

     PWSCF        :    27.99s CPU        32.20s WALL


   This run was terminated on:  16:27:44  17Dec2017            

=------------------------------------------------------------------------------=
   JOB DONE.
=------------------------------------------------------------------------------=
