
     Program PWSCF v.6.1 (svn rev. 13369) starts on 17Dec2017 at 16:20:46 

     This program is part of the open-source Quantum ESPRESSO suite
     for quantum simulation of materials; please cite
         "P. Giannozzi et al., J. Phys.:Condens. Matter 21 395502 (2009);
          URL http://www.quantum-espresso.org", 
     in publications or presentations arising from this work. More details at
     http://www.quantum-espresso.org/quote

     Parallel version (MPI), running on     4 processors
     R & G space division:  proc/nbgrp/npool/nimage =       4
     Waiting for input...
     Reading input from standard input

     Current dimensions of program PWSCF are:
     Max number of different atomic species (ntypx) = 10
     Max number of k-points (npk) =  40000
     Max angular momentum in pseudopotentials (lmaxx) =  3

     Subspace diagonalization in iterative solution of the eigenvalue problem:
     a serial algorithm will be used


     Parallelization info
     --------------------
     sticks:   dense  smooth     PW     G-vecs:    dense   smooth      PW
     Min         149      72     24                 2296      787     156
     Max         150      73     25                 2298      788     157
     Sum         599     291     99                 9189     3151     627



     bravais-lattice index     =            3
     lattice parameter (alat)  =       8.1080  a.u.
     unit-cell volume          =     266.5086 (a.u.)^3
     number of atoms/cell      =            1
     number of atomic types    =            1
     number of electrons       =         9.00
     number of Kohn-Sham states=            9
     kinetic-energy cutoff     =      20.0000  Ry
     charge density cutoff     =     160.0000  Ry
     convergence threshold     =      1.0E-08
     mixing beta               =       0.7000
     number of iterations used =            8  plain     mixing
     Exchange-correlation      = SLA  PW   PBE  PBE ( 1  4  3  4 0 0)

     celldm(1)=   8.108000  celldm(2)=   0.000000  celldm(3)=   0.000000
     celldm(4)=   0.000000  celldm(5)=   0.000000  celldm(6)=   0.000000

     crystal axes: (cart. coord. in units of alat)
               a(1) = (   0.500000   0.500000   0.500000 )  
               a(2) = (  -0.500000   0.500000   0.500000 )  
               a(3) = (  -0.500000  -0.500000   0.500000 )  

     reciprocal axes: (cart. coord. in units 2 pi/alat)
               b(1) = (  1.000000  0.000000  1.000000 )  
               b(2) = ( -1.000000  1.000000  0.000000 )  
               b(3) = (  0.000000 -1.000000  1.000000 )  


     PseudoPot. # 1 for Na read from file:
     /home/max/quantum_espresso/qe-6.1/pseudo/Na_pbe_v1.uspp.F.UPF
     MD5 check sum: 76a99c7e9422403d3e93cbc85ab7bccb
     Pseudo is Ultrasoft, Zval =  9.0
     Generated by new atomic code, or converted to UPF format
     Using radial grid of  819 points,  5 beta functions with: 
                l(1) =   0
                l(2) =   0
                l(3) =   1
                l(4) =   1
                l(5) =   2
     Q(r) pseudized with  8 coefficients,  rinner =    1.250   1.250   1.250
                                                       1.250   1.250

     atomic species   valence    mass     pseudopotential
        Na             9.00    22.99000     Na( 1.00)

     48 Sym. Ops., with inversion, found



   Cartesian axes

     site n.     atom                  positions (alat units)
         1           Na  tau(   1) = (   0.0000000   0.0000000   0.0000000  )

     number of k points=    44  Marzari-Vanderbilt smearing, width (Ry)=  0.0200
                       cart. coord. in units 2pi/alat
        k(    1) = (   0.0000000   0.0000000   0.1000000), wk =   0.0120000
        k(    2) = (   0.0000000  -0.1000000   0.2000000), wk =   0.0480000
        k(    3) = (   0.0000000  -0.2000000   0.3000000), wk =   0.0480000
        k(    4) = (   0.0000000  -0.3000000   0.4000000), wk =   0.0480000
        k(    5) = (   0.0000000  -0.4000000   0.5000000), wk =   0.0480000
        k(    6) = (  -0.1000000   0.1000000   0.1000000), wk =   0.0160000
        k(    7) = (  -0.1000000  -0.1000000   0.3000000), wk =   0.0480000
        k(    8) = (  -0.1000000  -0.2000000   0.4000000), wk =   0.0960000
        k(    9) = (  -0.1000000  -0.3000000   0.5000000), wk =   0.0960000
        k(   10) = (  -0.1000000   0.6000000  -0.4000000), wk =   0.0480000
        k(   11) = (  -0.2000000   0.2000000   0.1000000), wk =   0.0480000
        k(   12) = (  -0.2000000  -0.2000000   0.5000000), wk =   0.0480000
        k(   13) = (  -0.2000000   0.7000000  -0.4000000), wk =   0.0960000
        k(   14) = (  -0.3000000   0.3000000   0.1000000), wk =   0.0480000
        k(   15) = (  -0.3000000   0.2000000   0.2000000), wk =   0.0480000
        k(   16) = (  -0.3000000   0.7000000  -0.3000000), wk =   0.0160000
        k(   17) = (  -0.4000000   0.4000000   0.1000000), wk =   0.0480000
        k(   18) = (  -0.4000000   0.3000000   0.2000000), wk =   0.0960000
        k(   19) = (   0.5000000  -0.5000000   0.1000000), wk =   0.0240000
        k(   20) = (   0.5000000  -0.6000000   0.2000000), wk =   0.0960000
        k(   21) = (   0.5000000  -0.7000000   0.3000000), wk =   0.0480000
        k(   22) = (   0.4000000  -0.6000000   0.3000000), wk =   0.0480000
        k(   23) = (   0.0000000   0.0000000   0.3000000), wk =   0.0120000
        k(   24) = (   0.0000000  -0.1000000   0.4000000), wk =   0.0480000
        k(   25) = (   0.0000000  -0.2000000   0.5000000), wk =   0.0480000
        k(   26) = (   0.0000000  -0.3000000   0.6000000), wk =   0.0480000
        k(   27) = (  -0.1000000  -0.1000000   0.5000000), wk =   0.0480000
        k(   28) = (  -0.1000000  -0.2000000   0.6000000), wk =   0.0960000
        k(   29) = (  -0.1000000   0.7000000  -0.3000000), wk =   0.0480000
        k(   30) = (  -0.2000000   0.8000000  -0.3000000), wk =   0.0480000
        k(   31) = (  -0.3000000   0.3000000   0.3000000), wk =   0.0160000
        k(   32) = (   0.6000000  -0.6000000   0.3000000), wk =   0.0480000
        k(   33) = (   0.5000000  -0.5000000   0.3000000), wk =   0.0240000
        k(   34) = (   0.5000000  -0.6000000   0.4000000), wk =   0.0480000
        k(   35) = (   0.0000000   0.0000000   0.5000000), wk =   0.0120000
        k(   36) = (   0.0000000  -0.1000000   0.6000000), wk =   0.0480000
        k(   37) = (   0.0000000  -0.2000000   0.7000000), wk =   0.0480000
        k(   38) = (  -0.1000000  -0.1000000   0.7000000), wk =   0.0480000
        k(   39) = (  -0.1000000   0.8000000  -0.2000000), wk =   0.0480000
        k(   40) = (   0.5000000  -0.5000000   0.5000000), wk =   0.0040000
        k(   41) = (   0.0000000   0.0000000   0.7000000), wk =   0.0120000
        k(   42) = (   0.0000000  -0.1000000   0.8000000), wk =   0.0480000
        k(   43) = (  -0.1000000   0.9000000  -0.1000000), wk =   0.0160000
        k(   44) = (   0.0000000   0.0000000   0.9000000), wk =   0.0120000

     Dense  grid:     9189 G-vectors     FFT dimensions: (  30,  30,  30)

     Smooth grid:     3151 G-vectors     FFT dimensions: (  20,  20,  20)

     Estimated max dynamical RAM per process >       2.19MB

     Estimated total allocated dynamical RAM >       8.77MB

     Initial potential from superposition of free atoms

     starting charge    8.99371, renormalised to    9.00000
     Starting wfc are    5 randomized atomic wfcs +    4 random wfc

     total cpu time spent up to now is        0.4 secs

     per-process dynamical memory:     7.0 Mb

     Self-consistent Calculation

     iteration #  1     ecut=    20.00 Ry     beta=0.70
     Davidson diagonalization with overlap
     ethr =  1.00E-02,  avg # of iterations =  5.7

     Threshold (ethr) on eigenvalues was too large:
     Diagonalizing with lowered threshold

     Davidson diagonalization with overlap
     ethr =  5.52E-05,  avg # of iterations =  3.1

     total cpu time spent up to now is        0.8 secs

     total energy              =     -95.04301070 Ry
     Harris-Foulkes estimate   =     -95.04622903 Ry
     estimated scf accuracy    <       0.00497073 Ry

     iteration #  2     ecut=    20.00 Ry     beta=0.70
     Davidson diagonalization with overlap
     ethr =  5.52E-05,  avg # of iterations =  2.0

     total cpu time spent up to now is        0.9 secs

     total energy              =     -95.04434714 Ry
     Harris-Foulkes estimate   =     -95.04453362 Ry
     estimated scf accuracy    <       0.00039167 Ry

     iteration #  3     ecut=    20.00 Ry     beta=0.70
     Davidson diagonalization with overlap
     ethr =  4.35E-06,  avg # of iterations =  2.4

     total cpu time spent up to now is        1.1 secs

     total energy              =     -95.04441683 Ry
     Harris-Foulkes estimate   =     -95.04441156 Ry
     estimated scf accuracy    <       0.00001279 Ry

     iteration #  4     ecut=    20.00 Ry     beta=0.70
     Davidson diagonalization with overlap
     ethr =  1.42E-07,  avg # of iterations =  1.0

     total cpu time spent up to now is        1.2 secs

     End of self-consistent calculation

          k = 0.0000 0.0000 0.1000 (   389 PWs)   bands (ev):

   -52.0552 -23.8368 -23.8164 -23.8164  -1.7434  11.8177  11.8177  12.3422
    12.7283

          k = 0.0000-0.1000 0.2000 (   395 PWs)   bands (ev):

   -52.0587 -23.8493 -23.8361 -23.8292  -1.4084   9.5300  10.6990  11.5535
    12.1578

          k = 0.0000-0.2000 0.3000 (   394 PWs)   bands (ev):

   -52.0564 -23.8477 -23.8399 -23.8219  -0.7431   7.1527   9.8127  10.7511
    11.3844

          k = 0.0000-0.3000 0.4000 (   401 PWs)   bands (ev):

   -52.0600 -23.8787 -23.8610 -23.8207   0.2399   5.0147   9.2109  10.1689
    10.8441

          k = 0.0000-0.4000 0.5000 (   404 PWs)   bands (ev):

   -52.0609 -23.8958 -23.8641 -23.8204   1.5175   3.1591   8.9077   9.8713
    10.5726

          k =-0.1000 0.1000 0.1000 (   393 PWs)   bands (ev):

   -52.0578 -23.8466 -23.8268 -23.8268  -1.5756  10.6834  10.6834  11.3778
    13.4076

          k =-0.1000-0.1000 0.3000 (   393 PWs)   bands (ev):

   -52.0561 -23.8474 -23.8375 -23.8182  -0.9088   8.2529   8.8084  11.3574
    11.5849

          k =-0.1000-0.2000 0.4000 (   397 PWs)   bands (ev):

   -52.0575 -23.8653 -23.8502 -23.8171  -0.0857   6.2106   7.8534  10.8805
    11.0316

          k =-0.1000-0.3000 0.5000 (   403 PWs)   bands (ev):

   -52.0607 -23.8887 -23.8612 -23.8272   1.0457   4.2357   7.3757  10.4831
    10.6130

          k =-0.1000 0.6000-0.4000 (   404 PWs)   bands (ev):

   -52.0607 -23.8820 -23.8734 -23.8272   2.2888   2.7088   7.2184  10.3487
    10.4621

          k =-0.2000 0.2000 0.1000 (   402 PWs)   bands (ev):

   -52.0624 -23.8710 -23.8472 -23.8414  -1.0754   8.3254   9.6081  10.3873
    12.7914

          k =-0.2000-0.2000 0.5000 (   400 PWs)   bands (ev):

   -52.0587 -23.8820 -23.8475 -23.8278   0.8860   5.3331   6.0114  10.4052
    11.5226

          k =-0.2000 0.7000-0.4000 (   407 PWs)   bands (ev):

   -52.0625 -23.8901 -23.8701 -23.8426   2.1443   3.7541   5.4458  10.1173
    11.5443

          k =-0.3000 0.3000 0.1000 (   394 PWs)   bands (ev):

   -52.0554 -23.8593 -23.8256 -23.8238  -0.2495   6.0818   8.8333   9.6859
    12.0678

          k =-0.3000 0.2000 0.2000 (   397 PWs)   bands (ev):

   -52.0576 -23.8556 -23.8393 -23.8328  -0.4137   7.1721   7.7208   9.3214
    13.3466

          k =-0.3000 0.7000-0.3000 (   400 PWs)   bands (ev):

   -52.0571 -23.8608 -23.8608 -23.8335   3.3496   3.3496   4.2038   9.9735
    12.6121

          k =-0.4000 0.4000 0.1000 (   402 PWs)   bands (ev):

   -52.0598 -23.8843 -23.8506 -23.8309   0.8851   4.0847   8.3669   9.2552
    11.6211

          k =-0.4000 0.3000 0.2000 (   402 PWs)   bands (ev):

   -52.0598 -23.8826 -23.8480 -23.8324   0.5635   5.2818   6.9042   8.6913
    13.0501

          k = 0.5000-0.5000 0.1000 (   398 PWs)   bands (ev):

   -52.0565 -23.8684 -23.8629 -23.8078   2.1387   2.5453   8.2119   9.1092
    11.4721

          k = 0.5000-0.6000 0.2000 (   402 PWs)   bands (ev):

   -52.0589 -23.8898 -23.8512 -23.8220   1.8317   3.4644   6.5769   8.3811
    12.7909

          k = 0.5000-0.7000 0.3000 (   404 PWs)   bands (ev):

   -52.0600 -23.8888 -23.8600 -23.8256   1.6796   4.5662   5.2143   8.1962
    13.8374

          k = 0.4000-0.6000 0.3000 (   402 PWs)   bands (ev):

   -52.0580 -23.8764 -23.8543 -23.8289   2.8931   3.2985   4.8325   8.0355
    13.9468

          k = 0.0000 0.0000 0.3000 (   398 PWs)   bands (ev):

   -52.0601 -23.8477 -23.8451 -23.8451  -1.0753   9.5515   9.5515   9.7490
    11.3194

          k = 0.0000-0.1000 0.4000 (   398 PWs)   bands (ev):

   -52.0588 -23.8637 -23.8541 -23.8232  -0.4135   7.4081   8.6758   9.4192
    11.0676

          k = 0.0000-0.2000 0.5000 (   408 PWs)   bands (ev):

   -52.0644 -23.8863 -23.8782 -23.8461   0.5638   5.3102   8.0884   8.9261
    11.7368

          k = 0.0000-0.3000 0.6000 (   409 PWs)   bands (ev):

   -52.0639 -23.8959 -23.8728 -23.8483   1.8328   3.4729   7.7959   8.6336
    12.2926

          k =-0.1000-0.1000 0.5000 (   404 PWs)   bands (ev):

   -52.0620 -23.8761 -23.8618 -23.8494   0.4022   6.4092   7.0343   9.5044
    10.5721

          k =-0.1000-0.2000 0.6000 (   410 PWs)   bands (ev):

   -52.0648 -23.8932 -23.8755 -23.8581   1.5237   4.6729   6.3519   9.4104
    11.1545

          k =-0.1000 0.7000-0.3000 (   404 PWs)   bands (ev):

   -52.0601 -23.8705 -23.8660 -23.8506   2.7437   3.1891   6.1802   9.3036
    11.9953

          k =-0.2000 0.8000-0.3000 (   408 PWs)   bands (ev):

   -52.0627 -23.8795 -23.8717 -23.8634   2.7595   4.1107   4.8060  10.2861
    10.9529

          k =-0.3000 0.3000 0.3000 (   405 PWs)   bands (ev):

   -52.0620 -23.8741 -23.8539 -23.8539   0.4018   6.4008   6.4008   7.6385
    15.2970

          k = 0.6000-0.6000 0.3000 (   402 PWs)   bands (ev):

   -52.0587 -23.8786 -23.8493 -23.8326   1.5221   4.6440   5.9401   6.9426
    15.2795

          k = 0.5000-0.5000 0.3000 (   404 PWs)   bands (ev):

   -52.0590 -23.8775 -23.8540 -23.8372   2.7414   3.1713   5.7862   6.7491
    15.1488

          k = 0.5000-0.6000 0.4000 (   401 PWs)   bands (ev):

   -52.0564 -23.8628 -23.8512 -23.8309   2.7548   4.1083   4.6609   6.3197
    16.3613

          k = 0.0000 0.0000 0.5000 (   410 PWs)   bands (ev):

   -52.0664 -23.8853 -23.8713 -23.8713   0.2398   7.7929   7.8051   7.8051
     9.5421

          k = 0.0000-0.1000 0.6000 (   413 PWs)   bands (ev):

   -52.0671 -23.9023 -23.8790 -23.8680   1.2064   5.8750   7.2247   7.8268
     9.5233

          k = 0.0000-0.2000 0.7000 (   407 PWs)   bands (ev):

   -52.0623 -23.8840 -23.8665 -23.8619   2.4607   4.0883   6.9363   7.6142
    10.4145

          k =-0.1000-0.1000 0.7000 (   408 PWs)   bands (ev):

   -52.0632 -23.8854 -23.8715 -23.8653   2.3124   5.1818   5.8251   8.2710
     9.2325

          k =-0.1000 0.8000-0.2000 (   410 PWs)   bands (ev):

   -52.0642 -23.8885 -23.8768 -23.8703   3.5020   3.9330   5.4615   8.4268
     9.6683

          k = 0.5000-0.5000 0.5000 (   420 PWs)   bands (ev):

   -52.0684 -23.8872 -23.8872 -23.8872   3.9538   3.9538   3.9538   5.3661
    18.0257

          k = 0.0000 0.0000 0.7000 (   410 PWs)   bands (ev):

   -52.0644 -23.8882 -23.8739 -23.8739   2.1580   6.4872   6.6491   6.6491
     8.1612

          k = 0.0000-0.1000 0.8000 (   404 PWs)   bands (ev):

   -52.0599 -23.8790 -23.8653 -23.8555   3.3872   4.9625   6.3637   6.8422
     8.3433

          k =-0.1000 0.9000-0.1000 (   409 PWs)   bands (ev):

   -52.0625 -23.8779 -23.8779 -23.8737   4.5684   4.5684   5.3935   7.6566
     7.6566

          k = 0.0000 0.0000 0.9000 (   398 PWs)   bands (ev):

   -52.0549 -23.8572 -23.8572 -23.8452   4.5840   5.8342   6.0772   6.0772
     6.9495

     the Fermi energy is     1.3465 ev

!    total energy              =     -95.04441704 Ry
     Harris-Foulkes estimate   =     -95.04441697 Ry
     estimated scf accuracy    <          1.5E-09 Ry

     The total energy is the sum of the following terms:

     one-electron contribution =     -89.24862561 Ry
     hartree contribution      =      44.77329243 Ry
     xc contribution           =     -14.21279787 Ry
     ewald contribution        =     -36.35642699 Ry
     smearing contrib. (-TS)   =       0.00014101 Ry

     convergence has been achieved in   4 iterations


     Computing stress (Cartesian axis) and pressure

          total   stress  (Ry/bohr**3)                   (kbar)     P= -238.13
  -0.00161876   0.00000000   0.00000000       -238.13      0.00      0.00
   0.00000000  -0.00161876  -0.00000000          0.00   -238.13     -0.00
  -0.00000000   0.00000000  -0.00161876         -0.00      0.00   -238.13


     Writing output data file na.bcc.save

     init_run     :      0.30s CPU      0.35s WALL (       1 calls)
     electrons    :      0.77s CPU      0.81s WALL (       1 calls)
     stress       :      0.07s CPU      0.07s WALL (       1 calls)

     Called by init_run:
     wfcinit      :      0.03s CPU      0.04s WALL (       1 calls)
     potinit      :      0.16s CPU      0.17s WALL (       1 calls)

     Called by electrons:
     c_bands      :      0.60s CPU      0.62s WALL (       5 calls)
     sum_band     :      0.12s CPU      0.13s WALL (       5 calls)
     v_of_rho     :      0.03s CPU      0.03s WALL (       5 calls)
     newd         :      0.04s CPU      0.04s WALL (       5 calls)
     mix_rho      :      0.00s CPU      0.00s WALL (       5 calls)

     Called by c_bands:
     init_us_2    :      0.02s CPU      0.02s WALL (     528 calls)
     cegterg      :      0.58s CPU      0.60s WALL (     220 calls)

     Called by sum_band:
     sum_band:bec :      0.00s CPU      0.00s WALL (     220 calls)
     addusdens    :      0.03s CPU      0.03s WALL (       5 calls)

     Called by *egterg:
     h_psi        :      0.39s CPU      0.40s WALL (     889 calls)
     s_psi        :      0.01s CPU      0.01s WALL (     889 calls)
     g_psi        :      0.00s CPU      0.00s WALL (     625 calls)
     cdiaghg      :      0.13s CPU      0.13s WALL (     801 calls)

     Called by h_psi:
     h_psi:pot    :      0.38s CPU      0.40s WALL (     889 calls)
     h_psi:calbec :      0.02s CPU      0.02s WALL (     889 calls)
     vloc_psi     :      0.36s CPU      0.37s WALL (     889 calls)
     add_vuspsi   :      0.01s CPU      0.01s WALL (     889 calls)

     General routines
     calbec       :      0.03s CPU      0.03s WALL (    1153 calls)
     fft          :      0.08s CPU      0.08s WALL (      85 calls)
     ffts         :      0.00s CPU      0.00s WALL (      10 calls)
     fftw         :      0.37s CPU      0.39s WALL (   13098 calls)
     interpolate  :      0.00s CPU      0.00s WALL (      10 calls)
     davcio       :      0.00s CPU      0.00s WALL (      44 calls)

     Parallel routines
     fft_scatter  :      0.16s CPU      0.16s WALL (   13193 calls)

     PWSCF        :     1.26s CPU         1.36s WALL


   This run was terminated on:  16:20:47  17Dec2017            

=------------------------------------------------------------------------------=
   JOB DONE.
=------------------------------------------------------------------------------=
