
     Program PWSCF v.6.1 (svn rev. 13369) starts on 17Dec2017 at 16:26:45 

     This program is part of the open-source Quantum ESPRESSO suite
     for quantum simulation of materials; please cite
         "P. Giannozzi et al., J. Phys.:Condens. Matter 21 395502 (2009);
          URL http://www.quantum-espresso.org", 
     in publications or presentations arising from this work. More details at
     http://www.quantum-espresso.org/quote

     Parallel version (MPI), running on     4 processors
     R & G space division:  proc/nbgrp/npool/nimage =       4
     Waiting for input...
     Reading input from standard input

     Current dimensions of program PWSCF are:
     Max number of different atomic species (ntypx) = 10
     Max number of k-points (npk) =  40000
     Max angular momentum in pseudopotentials (lmaxx) =  3

     Subspace diagonalization in iterative solution of the eigenvalue problem:
     a serial algorithm will be used


     Parallelization info
     --------------------
     sticks:   dense  smooth     PW     G-vecs:    dense   smooth      PW
     Min         815     406    116                29321    10344    1590
     Max         816     407    117                29324    10346    1592
     Sum        3261    1625    467               117287    41379    6363



     bravais-lattice index     =            3
     lattice parameter (alat)  =       8.1080  a.u.
     unit-cell volume          =     266.5086 (a.u.)^3
     number of atoms/cell      =            1
     number of atomic types    =            1
     number of electrons       =         9.00
     number of Kohn-Sham states=            9
     kinetic-energy cutoff     =     110.0000  Ry
     charge density cutoff     =     880.0000  Ry
     convergence threshold     =      1.0E-08
     mixing beta               =       0.7000
     number of iterations used =            8  plain     mixing
     Exchange-correlation      = SLA  PW   PBE  PBE ( 1  4  3  4 0 0)

     celldm(1)=   8.108000  celldm(2)=   0.000000  celldm(3)=   0.000000
     celldm(4)=   0.000000  celldm(5)=   0.000000  celldm(6)=   0.000000

     crystal axes: (cart. coord. in units of alat)
               a(1) = (   0.500000   0.500000   0.500000 )  
               a(2) = (  -0.500000   0.500000   0.500000 )  
               a(3) = (  -0.500000  -0.500000   0.500000 )  

     reciprocal axes: (cart. coord. in units 2 pi/alat)
               b(1) = (  1.000000  0.000000  1.000000 )  
               b(2) = ( -1.000000  1.000000  0.000000 )  
               b(3) = (  0.000000 -1.000000  1.000000 )  


     PseudoPot. # 1 for Na read from file:
     /home/max/quantum_espresso/qe-6.1/pseudo/Na_pbe_v1.uspp.F.UPF
     MD5 check sum: 76a99c7e9422403d3e93cbc85ab7bccb
     Pseudo is Ultrasoft, Zval =  9.0
     Generated by new atomic code, or converted to UPF format
     Using radial grid of  819 points,  5 beta functions with: 
                l(1) =   0
                l(2) =   0
                l(3) =   1
                l(4) =   1
                l(5) =   2
     Q(r) pseudized with  8 coefficients,  rinner =    1.250   1.250   1.250
                                                       1.250   1.250

     atomic species   valence    mass     pseudopotential
        Na             9.00    22.99000     Na( 1.00)

     48 Sym. Ops., with inversion, found



   Cartesian axes

     site n.     atom                  positions (alat units)
         1           Na  tau(   1) = (   0.0000000   0.0000000   0.0000000  )

     number of k points=    44  Marzari-Vanderbilt smearing, width (Ry)=  0.0200
                       cart. coord. in units 2pi/alat
        k(    1) = (   0.0000000   0.0000000   0.1000000), wk =   0.0120000
        k(    2) = (   0.0000000  -0.1000000   0.2000000), wk =   0.0480000
        k(    3) = (   0.0000000  -0.2000000   0.3000000), wk =   0.0480000
        k(    4) = (   0.0000000  -0.3000000   0.4000000), wk =   0.0480000
        k(    5) = (   0.0000000  -0.4000000   0.5000000), wk =   0.0480000
        k(    6) = (  -0.1000000   0.1000000   0.1000000), wk =   0.0160000
        k(    7) = (  -0.1000000  -0.1000000   0.3000000), wk =   0.0480000
        k(    8) = (  -0.1000000  -0.2000000   0.4000000), wk =   0.0960000
        k(    9) = (  -0.1000000  -0.3000000   0.5000000), wk =   0.0960000
        k(   10) = (  -0.1000000   0.6000000  -0.4000000), wk =   0.0480000
        k(   11) = (  -0.2000000   0.2000000   0.1000000), wk =   0.0480000
        k(   12) = (  -0.2000000  -0.2000000   0.5000000), wk =   0.0480000
        k(   13) = (  -0.2000000   0.7000000  -0.4000000), wk =   0.0960000
        k(   14) = (  -0.3000000   0.3000000   0.1000000), wk =   0.0480000
        k(   15) = (  -0.3000000   0.2000000   0.2000000), wk =   0.0480000
        k(   16) = (  -0.3000000   0.7000000  -0.3000000), wk =   0.0160000
        k(   17) = (  -0.4000000   0.4000000   0.1000000), wk =   0.0480000
        k(   18) = (  -0.4000000   0.3000000   0.2000000), wk =   0.0960000
        k(   19) = (   0.5000000  -0.5000000   0.1000000), wk =   0.0240000
        k(   20) = (   0.5000000  -0.6000000   0.2000000), wk =   0.0960000
        k(   21) = (   0.5000000  -0.7000000   0.3000000), wk =   0.0480000
        k(   22) = (   0.4000000  -0.6000000   0.3000000), wk =   0.0480000
        k(   23) = (   0.0000000   0.0000000   0.3000000), wk =   0.0120000
        k(   24) = (   0.0000000  -0.1000000   0.4000000), wk =   0.0480000
        k(   25) = (   0.0000000  -0.2000000   0.5000000), wk =   0.0480000
        k(   26) = (   0.0000000  -0.3000000   0.6000000), wk =   0.0480000
        k(   27) = (  -0.1000000  -0.1000000   0.5000000), wk =   0.0480000
        k(   28) = (  -0.1000000  -0.2000000   0.6000000), wk =   0.0960000
        k(   29) = (  -0.1000000   0.7000000  -0.3000000), wk =   0.0480000
        k(   30) = (  -0.2000000   0.8000000  -0.3000000), wk =   0.0480000
        k(   31) = (  -0.3000000   0.3000000   0.3000000), wk =   0.0160000
        k(   32) = (   0.6000000  -0.6000000   0.3000000), wk =   0.0480000
        k(   33) = (   0.5000000  -0.5000000   0.3000000), wk =   0.0240000
        k(   34) = (   0.5000000  -0.6000000   0.4000000), wk =   0.0480000
        k(   35) = (   0.0000000   0.0000000   0.5000000), wk =   0.0120000
        k(   36) = (   0.0000000  -0.1000000   0.6000000), wk =   0.0480000
        k(   37) = (   0.0000000  -0.2000000   0.7000000), wk =   0.0480000
        k(   38) = (  -0.1000000  -0.1000000   0.7000000), wk =   0.0480000
        k(   39) = (  -0.1000000   0.8000000  -0.2000000), wk =   0.0480000
        k(   40) = (   0.5000000  -0.5000000   0.5000000), wk =   0.0040000
        k(   41) = (   0.0000000   0.0000000   0.7000000), wk =   0.0120000
        k(   42) = (   0.0000000  -0.1000000   0.8000000), wk =   0.0480000
        k(   43) = (  -0.1000000   0.9000000  -0.1000000), wk =   0.0160000
        k(   44) = (   0.0000000   0.0000000   0.9000000), wk =   0.0120000

     Dense  grid:   117287 G-vectors     FFT dimensions: (  72,  72,  72)

     Smooth grid:    41379 G-vectors     FFT dimensions: (  48,  48,  48)

     Estimated max dynamical RAM per process >      27.75MB

     Estimated total allocated dynamical RAM >     111.02MB

     Initial potential from superposition of free atoms

     starting charge    8.99371, renormalised to    9.00000
     Starting wfc are    5 randomized atomic wfcs +    4 random wfc

     total cpu time spent up to now is        1.2 secs

     per-process dynamical memory:    28.1 Mb

     Self-consistent Calculation

     iteration #  1     ecut=   110.00 Ry     beta=0.70
     Davidson diagonalization with overlap
     ethr =  1.00E-02,  avg # of iterations =  5.8

     Threshold (ethr) on eigenvalues was too large:
     Diagonalizing with lowered threshold

     Davidson diagonalization with overlap
     ethr =  1.15E-05,  avg # of iterations =  5.4

     total cpu time spent up to now is        8.5 secs

     total energy              =     -95.10094390 Ry
     Harris-Foulkes estimate   =     -95.10670272 Ry
     estimated scf accuracy    <       0.00103075 Ry

     iteration #  2     ecut=   110.00 Ry     beta=0.70
     Davidson diagonalization with overlap
     ethr =  1.15E-05,  avg # of iterations =  2.8

     total cpu time spent up to now is       12.1 secs

     total energy              =     -95.10880057 Ry
     Harris-Foulkes estimate   =     -95.10141790 Ry
     estimated scf accuracy    <       0.00005588 Ry

     iteration #  3     ecut=   110.00 Ry     beta=0.70
     Davidson diagonalization with overlap
     ethr =  6.21E-07,  avg # of iterations =  2.7

     total cpu time spent up to now is       16.2 secs

     total energy              =     -95.10902843 Ry
     Harris-Foulkes estimate   =     -95.10885576 Ry
     estimated scf accuracy    <       0.00001036 Ry

     iteration #  4     ecut=   110.00 Ry     beta=0.70
     Davidson diagonalization with overlap
     ethr =  1.15E-07,  avg # of iterations =  1.6

     total cpu time spent up to now is       19.0 secs

     total energy              =     -95.10903571 Ry
     Harris-Foulkes estimate   =     -95.10902958 Ry
     estimated scf accuracy    <       0.00000023 Ry

     iteration #  5     ecut=   110.00 Ry     beta=0.70
     Davidson diagonalization with overlap
     ethr =  2.51E-09,  avg # of iterations =  2.0

     total cpu time spent up to now is       22.3 secs

     total energy              =     -95.10903627 Ry
     Harris-Foulkes estimate   =     -95.10903577 Ry
     estimated scf accuracy    <       0.00000002 Ry

     iteration #  6     ecut=   110.00 Ry     beta=0.70
     Davidson diagonalization with overlap
     ethr =  2.22E-10,  avg # of iterations =  1.6

     total cpu time spent up to now is       24.9 secs

     End of self-consistent calculation

          k = 0.0000 0.0000 0.1000 (  5209 PWs)   bands (ev):

   -51.7070 -23.6080 -23.6076 -23.6076  -1.7165  11.8404  11.8404  12.3518
    12.7532

          k = 0.0000-0.1000 0.2000 (  5203 PWs)   bands (ev):

   -51.7067 -23.6130 -23.6094 -23.6077  -1.3810   9.5502  10.7216  11.5690
    12.1826

          k = 0.0000-0.2000 0.3000 (  5193 PWs)   bands (ev):

   -51.7063 -23.6213 -23.6122 -23.6076  -0.7159   7.1740   9.8354  10.7684
    11.4112

          k = 0.0000-0.3000 0.4000 (  5199 PWs)   bands (ev):

   -51.7059 -23.6295 -23.6151 -23.6076   0.2675   5.0398   9.2338  10.1875
    10.8731

          k = 0.0000-0.4000 0.5000 (  5190 PWs)   bands (ev):

   -51.7056 -23.6345 -23.6169 -23.6075   1.5448   3.1865   8.9306   9.8902
    10.6024

          k =-0.1000 0.1000 0.1000 (  5215 PWs)   bands (ev):

   -51.7068 -23.6115 -23.6076 -23.6076  -1.5485  10.7007  10.7007  11.4094
    13.4256

          k =-0.1000-0.1000 0.3000 (  5197 PWs)   bands (ev):

   -51.7064 -23.6186 -23.6113 -23.6089  -0.8815   8.2709   8.8340  11.3731
    11.6096

          k =-0.1000-0.2000 0.4000 (  5188 PWs)   bands (ev):

   -51.7060 -23.6259 -23.6146 -23.6092  -0.0584   6.2326   7.8790  10.9037
    11.0532

          k =-0.1000-0.3000 0.5000 (  5202 PWs)   bands (ev):

   -51.7056 -23.6317 -23.6175 -23.6092   1.0731   4.2615   7.4012  10.5083
    10.6354

          k =-0.1000 0.6000-0.4000 (  5198 PWs)   bands (ev):

   -51.7055 -23.6339 -23.6186 -23.6092   2.3122   2.7390   7.2442  10.3747
    10.4845

          k =-0.2000 0.2000 0.1000 (  5203 PWs)   bands (ev):

   -51.7065 -23.6183 -23.6100 -23.6076  -1.0475   8.3462   9.6255  10.4215
    12.8077

          k =-0.2000-0.2000 0.5000 (  5181 PWs)   bands (ev):

   -51.7056 -23.6295 -23.6184 -23.6102   0.9134   5.3526   6.0428  10.4311
    11.5391

          k =-0.2000 0.7000-0.4000 (  5190 PWs)   bands (ev):

   -51.7054 -23.6310 -23.6219 -23.6105   2.1711   3.7799   5.4744  10.1440
    11.5642

          k =-0.3000 0.3000 0.1000 (  5193 PWs)   bands (ev):

   -51.7061 -23.6261 -23.6133 -23.6077  -0.2221   6.1038   8.8504   9.7190
    12.0830

          k =-0.3000 0.2000 0.2000 (  5201 PWs)   bands (ev):

   -51.7061 -23.6245 -23.6117 -23.6089  -0.3863   7.1904   7.7448   9.3525
    13.3628

          k =-0.3000 0.7000-0.3000 (  5174 PWs)   bands (ev):

   -51.7053 -23.6272 -23.6272 -23.6109   3.3710   3.3710   4.2403   9.9996
    12.6290

          k =-0.4000 0.4000 0.1000 (  5188 PWs)   bands (ev):

   -51.7057 -23.6323 -23.6161 -23.6077   0.9128   4.1107   8.3842   9.2889
    11.6364

          k =-0.4000 0.3000 0.2000 (  5187 PWs)   bands (ev):

   -51.7058 -23.6295 -23.6154 -23.6094   0.5913   5.3048   6.9280   8.7231
    13.0680

          k = 0.5000-0.5000 0.1000 (  5192 PWs)   bands (ev):

   -51.7056 -23.6346 -23.6172 -23.6077   2.1613   2.5756   8.2287   9.1441
    11.4868

          k = 0.5000-0.6000 0.2000 (  5192 PWs)   bands (ev):

   -51.7056 -23.6321 -23.6184 -23.6096   1.8588   3.4911   6.5999   8.4113
    12.8095

          k = 0.5000-0.7000 0.3000 (  5175 PWs)   bands (ev):

   -51.7056 -23.6299 -23.6196 -23.6108   1.7069   4.5870   5.2450   8.2259
    13.8543

          k = 0.4000-0.6000 0.3000 (  5180 PWs)   bands (ev):

   -51.7055 -23.6287 -23.6226 -23.6111   2.9158   3.3259   4.8610   8.0642
    13.9652

          k = 0.0000 0.0000 0.3000 (  5185 PWs)   bands (ev):

   -51.7065 -23.6141 -23.6112 -23.6112  -1.0475   9.5764   9.5764   9.7584
    11.3494

          k = 0.0000-0.1000 0.4000 (  5193 PWs)   bands (ev):

   -51.7060 -23.6209 -23.6141 -23.6118  -0.3862   7.4297   8.7018   9.4369
    11.0957

          k = 0.0000-0.2000 0.5000 (  5195 PWs)   bands (ev):

   -51.7056 -23.6285 -23.6170 -23.6115   0.5917   5.3351   8.1166   8.9474
    11.7630

          k = 0.0000-0.3000 0.6000 (  5193 PWs)   bands (ev):

   -51.7054 -23.6332 -23.6189 -23.6114   1.8602   3.4999   7.8236   8.6556
    12.3189

          k =-0.1000-0.1000 0.5000 (  5192 PWs)   bands (ev):

   -51.7057 -23.6258 -23.6175 -23.6133   0.4300   6.4287   7.0648   9.5222
    10.6036

          k =-0.1000-0.2000 0.6000 (  5198 PWs)   bands (ev):

   -51.7053 -23.6303 -23.6207 -23.6134   1.5514   4.6975   6.3805   9.4318
    11.1812

          k =-0.1000 0.7000-0.3000 (  5201 PWs)   bands (ev):

   -51.7052 -23.6321 -23.6220 -23.6133   2.7657   3.2184   6.2084   9.3259
    12.0122

          k =-0.2000 0.8000-0.3000 (  5209 PWs)   bands (ev):

   -51.7051 -23.6298 -23.6254 -23.6138   2.7849   4.1321   4.8402  10.3039
    10.9766

          k =-0.3000 0.3000 0.3000 (  5189 PWs)   bands (ev):

   -51.7059 -23.6285 -23.6121 -23.6121   0.4295   6.4201   6.4201   7.6799
    15.3162

          k = 0.6000-0.6000 0.3000 (  5185 PWs)   bands (ev):

   -51.7056 -23.6297 -23.6168 -23.6125   1.5495   4.6670   5.9587   6.9819
    15.2957

          k = 0.5000-0.5000 0.3000 (  5170 PWs)   bands (ev):

   -51.7055 -23.6293 -23.6194 -23.6126   2.7644   3.2004   5.8051   6.7872
    15.1645

          k = 0.5000-0.6000 0.4000 (  5176 PWs)   bands (ev):

   -51.7055 -23.6266 -23.6205 -23.6148   2.7793   4.1289   4.6883   6.3552
    16.3800

          k = 0.0000 0.0000 0.5000 (  5190 PWs)   bands (ev):

   -51.7057 -23.6216 -23.6172 -23.6172   0.2677   7.8024   7.8336   7.8336
     9.5795

          k = 0.0000-0.1000 0.6000 (  5209 PWs)   bands (ev):

   -51.7053 -23.6270 -23.6202 -23.6179   1.2347   5.8974   7.2544   7.8468
     9.5557

          k = 0.0000-0.2000 0.7000 (  5197 PWs)   bands (ev):

   -51.7050 -23.6310 -23.6221 -23.6175   2.4860   4.1138   6.9650   7.6359
    10.4374

          k =-0.1000-0.1000 0.7000 (  5195 PWs)   bands (ev):

   -51.7050 -23.6290 -23.6239 -23.6189   2.3387   5.2016   5.8576   8.2900
     9.2625

          k =-0.1000 0.8000-0.2000 (  5195 PWs)   bands (ev):

   -51.7049 -23.6298 -23.6257 -23.6189   3.5239   3.9604   5.4923   8.4481
     9.6867

          k = 0.5000-0.5000 0.5000 (  5216 PWs)   bands (ev):

   -51.7055 -23.6208 -23.6208 -23.6208   3.9765   3.9765   3.9765   5.4150
    18.0546

          k = 0.0000 0.0000 0.7000 (  5198 PWs)   bands (ev):

   -51.7049 -23.6263 -23.6233 -23.6233   2.1851   6.4969   6.6792   6.6792
     8.1950

          k = 0.0000-0.1000 0.8000 (  5185 PWs)   bands (ev):

   -51.7047 -23.6289 -23.6253 -23.6236   3.4117   4.9857   6.3920   6.8629
     8.3675

          k =-0.1000 0.9000-0.1000 (  5180 PWs)   bands (ev):

   -51.7046 -23.6280 -23.6280 -23.6241   4.5890   4.5890   5.4292   7.6765
     7.6765

          k = 0.0000 0.0000 0.9000 (  5186 PWs)   bands (ev):

   -51.7045 -23.6277 -23.6273 -23.6273   4.6048   5.8439   6.1060   6.1060
     6.9719

     the Fermi energy is     1.3743 ev

!    total energy              =     -95.10903631 Ry
     Harris-Foulkes estimate   =     -95.10903627 Ry
     estimated scf accuracy    <          1.2E-09 Ry

     The total energy is the sum of the following terms:

     one-electron contribution =     -89.50176281 Ry
     hartree contribution      =      45.00882368 Ry
     xc contribution           =     -14.25981013 Ry
     ewald contribution        =     -36.35642691 Ry
     smearing contrib. (-TS)   =       0.00013986 Ry

     convergence has been achieved in   6 iterations


     Computing stress (Cartesian axis) and pressure

          total   stress  (Ry/bohr**3)                   (kbar)     P=   -4.87
  -0.00003309  -0.00000000   0.00000000         -4.87     -0.00      0.00
  -0.00000000  -0.00003309  -0.00000000         -0.00     -4.87     -0.00
   0.00000000  -0.00000000  -0.00003309          0.00     -0.00     -4.87


     Writing output data file na.bcc.save

     init_run     :      1.07s CPU      1.18s WALL (       1 calls)
     electrons    :     20.49s CPU     23.66s WALL (       1 calls)
     stress       :      1.31s CPU      1.44s WALL (       1 calls)

     Called by init_run:
     wfcinit      :      0.62s CPU      0.68s WALL (       1 calls)
     potinit      :      0.14s CPU      0.15s WALL (       1 calls)

     Called by electrons:
     c_bands      :     14.76s CPU     16.95s WALL (       7 calls)
     sum_band     :      4.25s CPU      4.98s WALL (       7 calls)
     v_of_rho     :      0.77s CPU      0.89s WALL (       7 calls)
     newd         :      0.72s CPU      0.83s WALL (       7 calls)
     mix_rho      :      0.08s CPU      0.11s WALL (       7 calls)

     Called by c_bands:
     init_us_2    :      0.42s CPU      0.43s WALL (     704 calls)
     cegterg      :     14.34s CPU     16.50s WALL (     308 calls)

     Called by sum_band:
     sum_band:bec :      0.00s CPU      0.00s WALL (     308 calls)
     addusdens    :      0.68s CPU      0.89s WALL (       7 calls)

     Called by *egterg:
     h_psi        :     12.32s CPU     14.19s WALL (    1314 calls)
     s_psi        :      0.17s CPU      0.18s WALL (    1314 calls)
     g_psi        :      0.05s CPU      0.05s WALL (     962 calls)
     cdiaghg      :      0.30s CPU      0.36s WALL (    1226 calls)

     Called by h_psi:
     h_psi:pot    :     12.26s CPU     14.13s WALL (    1314 calls)
     h_psi:calbec :      0.59s CPU      0.66s WALL (    1314 calls)
     vloc_psi     :     11.47s CPU     13.24s WALL (    1314 calls)
     add_vuspsi   :      0.20s CPU      0.23s WALL (    1314 calls)

     General routines
     calbec       :      1.07s CPU      1.25s WALL (    1666 calls)
     fft          :      0.64s CPU      0.73s WALL (     117 calls)
     ffts         :      0.01s CPU      0.01s WALL (      14 calls)
     fftw         :     10.48s CPU     12.34s WALL (   18684 calls)
     interpolate  :      0.11s CPU      0.11s WALL (      14 calls)
     davcio       :      0.00s CPU      0.00s WALL (      44 calls)

     Parallel routines
     fft_scatter  :      5.08s CPU      6.42s WALL (   18815 calls)

     PWSCF        :    22.98s CPU        26.41s WALL


   This run was terminated on:  16:27:12  17Dec2017            

=------------------------------------------------------------------------------=
   JOB DONE.
=------------------------------------------------------------------------------=
