
     Program PWSCF v.6.1 (svn rev. 13369) starts on 17Dec2017 at 16:25:51 

     This program is part of the open-source Quantum ESPRESSO suite
     for quantum simulation of materials; please cite
         "P. Giannozzi et al., J. Phys.:Condens. Matter 21 395502 (2009);
          URL http://www.quantum-espresso.org", 
     in publications or presentations arising from this work. More details at
     http://www.quantum-espresso.org/quote

     Parallel version (MPI), running on     4 processors
     R & G space division:  proc/nbgrp/npool/nimage =       4
     Waiting for input...
     Reading input from standard input

     Current dimensions of program PWSCF are:
     Max number of different atomic species (ntypx) = 10
     Max number of k-points (npk) =  40000
     Max angular momentum in pseudopotentials (lmaxx) =  3

     Subspace diagonalization in iterative solution of the eigenvalue problem:
     a serial algorithm will be used


     Parallelization info
     --------------------
     sticks:   dense  smooth     PW     G-vecs:    dense   smooth      PW
     Min         661     333     96                21737     7689    1188
     Max         662     334     97                21742     7692    1189
     Sum        2647    1335    387                86959    30765    4753



     bravais-lattice index     =            3
     lattice parameter (alat)  =       8.1080  a.u.
     unit-cell volume          =     266.5086 (a.u.)^3
     number of atoms/cell      =            1
     number of atomic types    =            1
     number of electrons       =         9.00
     number of Kohn-Sham states=            9
     kinetic-energy cutoff     =      90.0000  Ry
     charge density cutoff     =     720.0000  Ry
     convergence threshold     =      1.0E-08
     mixing beta               =       0.7000
     number of iterations used =            8  plain     mixing
     Exchange-correlation      = SLA  PW   PBE  PBE ( 1  4  3  4 0 0)

     celldm(1)=   8.108000  celldm(2)=   0.000000  celldm(3)=   0.000000
     celldm(4)=   0.000000  celldm(5)=   0.000000  celldm(6)=   0.000000

     crystal axes: (cart. coord. in units of alat)
               a(1) = (   0.500000   0.500000   0.500000 )  
               a(2) = (  -0.500000   0.500000   0.500000 )  
               a(3) = (  -0.500000  -0.500000   0.500000 )  

     reciprocal axes: (cart. coord. in units 2 pi/alat)
               b(1) = (  1.000000  0.000000  1.000000 )  
               b(2) = ( -1.000000  1.000000  0.000000 )  
               b(3) = (  0.000000 -1.000000  1.000000 )  


     PseudoPot. # 1 for Na read from file:
     /home/max/quantum_espresso/qe-6.1/pseudo/Na_pbe_v1.uspp.F.UPF
     MD5 check sum: 76a99c7e9422403d3e93cbc85ab7bccb
     Pseudo is Ultrasoft, Zval =  9.0
     Generated by new atomic code, or converted to UPF format
     Using radial grid of  819 points,  5 beta functions with: 
                l(1) =   0
                l(2) =   0
                l(3) =   1
                l(4) =   1
                l(5) =   2
     Q(r) pseudized with  8 coefficients,  rinner =    1.250   1.250   1.250
                                                       1.250   1.250

     atomic species   valence    mass     pseudopotential
        Na             9.00    22.99000     Na( 1.00)

     48 Sym. Ops., with inversion, found



   Cartesian axes

     site n.     atom                  positions (alat units)
         1           Na  tau(   1) = (   0.0000000   0.0000000   0.0000000  )

     number of k points=    44  Marzari-Vanderbilt smearing, width (Ry)=  0.0200
                       cart. coord. in units 2pi/alat
        k(    1) = (   0.0000000   0.0000000   0.1000000), wk =   0.0120000
        k(    2) = (   0.0000000  -0.1000000   0.2000000), wk =   0.0480000
        k(    3) = (   0.0000000  -0.2000000   0.3000000), wk =   0.0480000
        k(    4) = (   0.0000000  -0.3000000   0.4000000), wk =   0.0480000
        k(    5) = (   0.0000000  -0.4000000   0.5000000), wk =   0.0480000
        k(    6) = (  -0.1000000   0.1000000   0.1000000), wk =   0.0160000
        k(    7) = (  -0.1000000  -0.1000000   0.3000000), wk =   0.0480000
        k(    8) = (  -0.1000000  -0.2000000   0.4000000), wk =   0.0960000
        k(    9) = (  -0.1000000  -0.3000000   0.5000000), wk =   0.0960000
        k(   10) = (  -0.1000000   0.6000000  -0.4000000), wk =   0.0480000
        k(   11) = (  -0.2000000   0.2000000   0.1000000), wk =   0.0480000
        k(   12) = (  -0.2000000  -0.2000000   0.5000000), wk =   0.0480000
        k(   13) = (  -0.2000000   0.7000000  -0.4000000), wk =   0.0960000
        k(   14) = (  -0.3000000   0.3000000   0.1000000), wk =   0.0480000
        k(   15) = (  -0.3000000   0.2000000   0.2000000), wk =   0.0480000
        k(   16) = (  -0.3000000   0.7000000  -0.3000000), wk =   0.0160000
        k(   17) = (  -0.4000000   0.4000000   0.1000000), wk =   0.0480000
        k(   18) = (  -0.4000000   0.3000000   0.2000000), wk =   0.0960000
        k(   19) = (   0.5000000  -0.5000000   0.1000000), wk =   0.0240000
        k(   20) = (   0.5000000  -0.6000000   0.2000000), wk =   0.0960000
        k(   21) = (   0.5000000  -0.7000000   0.3000000), wk =   0.0480000
        k(   22) = (   0.4000000  -0.6000000   0.3000000), wk =   0.0480000
        k(   23) = (   0.0000000   0.0000000   0.3000000), wk =   0.0120000
        k(   24) = (   0.0000000  -0.1000000   0.4000000), wk =   0.0480000
        k(   25) = (   0.0000000  -0.2000000   0.5000000), wk =   0.0480000
        k(   26) = (   0.0000000  -0.3000000   0.6000000), wk =   0.0480000
        k(   27) = (  -0.1000000  -0.1000000   0.5000000), wk =   0.0480000
        k(   28) = (  -0.1000000  -0.2000000   0.6000000), wk =   0.0960000
        k(   29) = (  -0.1000000   0.7000000  -0.3000000), wk =   0.0480000
        k(   30) = (  -0.2000000   0.8000000  -0.3000000), wk =   0.0480000
        k(   31) = (  -0.3000000   0.3000000   0.3000000), wk =   0.0160000
        k(   32) = (   0.6000000  -0.6000000   0.3000000), wk =   0.0480000
        k(   33) = (   0.5000000  -0.5000000   0.3000000), wk =   0.0240000
        k(   34) = (   0.5000000  -0.6000000   0.4000000), wk =   0.0480000
        k(   35) = (   0.0000000   0.0000000   0.5000000), wk =   0.0120000
        k(   36) = (   0.0000000  -0.1000000   0.6000000), wk =   0.0480000
        k(   37) = (   0.0000000  -0.2000000   0.7000000), wk =   0.0480000
        k(   38) = (  -0.1000000  -0.1000000   0.7000000), wk =   0.0480000
        k(   39) = (  -0.1000000   0.8000000  -0.2000000), wk =   0.0480000
        k(   40) = (   0.5000000  -0.5000000   0.5000000), wk =   0.0040000
        k(   41) = (   0.0000000   0.0000000   0.7000000), wk =   0.0120000
        k(   42) = (   0.0000000  -0.1000000   0.8000000), wk =   0.0480000
        k(   43) = (  -0.1000000   0.9000000  -0.1000000), wk =   0.0160000
        k(   44) = (   0.0000000   0.0000000   0.9000000), wk =   0.0120000

     Dense  grid:    86959 G-vectors     FFT dimensions: (  60,  60,  60)

     Smooth grid:    30765 G-vectors     FFT dimensions: (  45,  45,  45)

     Estimated max dynamical RAM per process >      19.53MB

     Estimated total allocated dynamical RAM >      78.11MB

     Initial potential from superposition of free atoms

     starting charge    8.99371, renormalised to    9.00000
     Starting wfc are    5 randomized atomic wfcs +    4 random wfc

     total cpu time spent up to now is        1.0 secs

     per-process dynamical memory:    21.2 Mb

     Self-consistent Calculation

     iteration #  1     ecut=    90.00 Ry     beta=0.70
     Davidson diagonalization with overlap
     ethr =  1.00E-02,  avg # of iterations =  5.8

     Threshold (ethr) on eigenvalues was too large:
     Diagonalizing with lowered threshold

     Davidson diagonalization with overlap
     ethr =  8.47E-06,  avg # of iterations =  5.4

     total cpu time spent up to now is        8.2 secs

     total energy              =     -95.10615213 Ry
     Harris-Foulkes estimate   =     -95.09070926 Ry
     estimated scf accuracy    <       0.00075654 Ry

     iteration #  2     ecut=    90.00 Ry     beta=0.70
     Davidson diagonalization with overlap
     ethr =  8.41E-06,  avg # of iterations =  1.8

     total cpu time spent up to now is       10.3 secs

     total energy              =     -95.10855613 Ry
     Harris-Foulkes estimate   =     -95.10626026 Ry
     estimated scf accuracy    <       0.00008696 Ry

     iteration #  3     ecut=    90.00 Ry     beta=0.70
     Davidson diagonalization with overlap
     ethr =  9.66E-07,  avg # of iterations =  2.5

     total cpu time spent up to now is       12.6 secs

     total energy              =     -95.10862267 Ry
     Harris-Foulkes estimate   =     -95.10857334 Ry
     estimated scf accuracy    <       0.00000742 Ry

     iteration #  4     ecut=    90.00 Ry     beta=0.70
     Davidson diagonalization with overlap
     ethr =  8.24E-08,  avg # of iterations =  1.7

     total cpu time spent up to now is       14.6 secs

     total energy              =     -95.10862613 Ry
     Harris-Foulkes estimate   =     -95.10862343 Ry
     estimated scf accuracy    <       0.00000007 Ry

     iteration #  5     ecut=    90.00 Ry     beta=0.70
     Davidson diagonalization with overlap
     ethr =  7.67E-10,  avg # of iterations =  2.1

     total cpu time spent up to now is       16.8 secs

     total energy              =     -95.10862640 Ry
     Harris-Foulkes estimate   =     -95.10862616 Ry
     estimated scf accuracy    <       0.00000001 Ry

     iteration #  6     ecut=    90.00 Ry     beta=0.70
     Davidson diagonalization with overlap
     ethr =  1.34E-10,  avg # of iterations =  2.0

     total cpu time spent up to now is       18.8 secs

     End of self-consistent calculation

          k = 0.0000 0.0000 0.1000 (  3865 PWs)   bands (ev):

   -51.7069 -23.6074 -23.6070 -23.6070  -1.7159  11.8411  11.8411  12.3523
    12.7537

          k = 0.0000-0.1000 0.2000 (  3870 PWs)   bands (ev):

   -51.7067 -23.6124 -23.6088 -23.6071  -1.3804   9.5508  10.7223  11.5695
    12.1833

          k = 0.0000-0.2000 0.3000 (  3843 PWs)   bands (ev):

   -51.7062 -23.6206 -23.6116 -23.6070  -0.7153   7.1747   9.8361  10.7689
    11.4120

          k = 0.0000-0.3000 0.4000 (  3845 PWs)   bands (ev):

   -51.7058 -23.6288 -23.6144 -23.6069   0.2681   5.0405   9.2345  10.1880
    10.8738

          k = 0.0000-0.4000 0.5000 (  3846 PWs)   bands (ev):

   -51.7055 -23.6339 -23.6162 -23.6069   1.5455   3.1872   8.9313   9.8907
    10.6032

          k =-0.1000 0.1000 0.1000 (  3865 PWs)   bands (ev):

   -51.7068 -23.6109 -23.6070 -23.6070  -1.5479  10.7013  10.7013  11.4102
    13.4262

          k =-0.1000-0.1000 0.3000 (  3846 PWs)   bands (ev):

   -51.7063 -23.6180 -23.6107 -23.6083  -0.8809   8.2715   8.8347  11.3737
    11.6103

          k =-0.1000-0.2000 0.4000 (  3842 PWs)   bands (ev):

   -51.7059 -23.6252 -23.6139 -23.6086  -0.0578   6.2332   7.8797  10.9044
    11.0537

          k =-0.1000-0.3000 0.5000 (  3843 PWs)   bands (ev):

   -51.7056 -23.6311 -23.6168 -23.6086   1.0738   4.2622   7.4018  10.5090
    10.6360

          k =-0.1000 0.6000-0.4000 (  3839 PWs)   bands (ev):

   -51.7054 -23.6333 -23.6179 -23.6085   2.3129   2.7396   7.2449  10.3754
    10.4850

          k =-0.2000 0.2000 0.1000 (  3849 PWs)   bands (ev):

   -51.7064 -23.6176 -23.6093 -23.6070  -1.0469   8.3469   9.6261  10.4222
    12.8083

          k =-0.2000-0.2000 0.5000 (  3833 PWs)   bands (ev):

   -51.7056 -23.6289 -23.6178 -23.6096   0.9141   5.3533   6.0434  10.4317
    11.5397

          k =-0.2000 0.7000-0.4000 (  3848 PWs)   bands (ev):

   -51.7054 -23.6304 -23.6213 -23.6099   2.1717   3.7805   5.4751  10.1447
    11.5648

          k =-0.3000 0.3000 0.1000 (  3856 PWs)   bands (ev):

   -51.7060 -23.6254 -23.6127 -23.6070  -0.2215   6.1044   8.8510   9.7197
    12.0836

          k =-0.3000 0.2000 0.2000 (  3843 PWs)   bands (ev):

   -51.7061 -23.6238 -23.6110 -23.6083  -0.3857   7.1911   7.7454   9.3532
    13.3634

          k =-0.3000 0.7000-0.3000 (  3826 PWs)   bands (ev):

   -51.7053 -23.6266 -23.6266 -23.6103   3.3717   3.3717   4.2409  10.0002
    12.6296

          k =-0.4000 0.4000 0.1000 (  3841 PWs)   bands (ev):

   -51.7057 -23.6316 -23.6155 -23.6070   0.9134   4.1113   8.3848   9.2896
    11.6370

          k =-0.4000 0.3000 0.2000 (  3845 PWs)   bands (ev):

   -51.7057 -23.6288 -23.6148 -23.6088   0.5919   5.3054   6.9287   8.7238
    13.0686

          k = 0.5000-0.5000 0.1000 (  3850 PWs)   bands (ev):

   -51.7055 -23.6340 -23.6166 -23.6070   2.1620   2.5761   8.2293   9.1448
    11.4874

          k = 0.5000-0.6000 0.2000 (  3850 PWs)   bands (ev):

   -51.7055 -23.6314 -23.6177 -23.6090   1.8594   3.4917   6.6005   8.4120
    12.8100

          k = 0.5000-0.7000 0.3000 (  3836 PWs)   bands (ev):

   -51.7055 -23.6293 -23.6189 -23.6101   1.7076   4.5876   5.2456   8.2265
    13.8549

          k = 0.4000-0.6000 0.3000 (  3847 PWs)   bands (ev):

   -51.7054 -23.6281 -23.6220 -23.6105   2.9165   3.3265   4.8617   8.0648
    13.9658

          k = 0.0000 0.0000 0.3000 (  3864 PWs)   bands (ev):

   -51.7064 -23.6135 -23.6106 -23.6106  -1.0469   9.5772   9.5772   9.7589
    11.3499

          k = 0.0000-0.1000 0.4000 (  3851 PWs)   bands (ev):

   -51.7060 -23.6202 -23.6135 -23.6112  -0.3856   7.4304   8.7026   9.4374
    11.0963

          k = 0.0000-0.2000 0.5000 (  3841 PWs)   bands (ev):

   -51.7056 -23.6278 -23.6164 -23.6109   0.5923   5.3357   8.1173   8.9479
    11.7636

          k = 0.0000-0.3000 0.6000 (  3845 PWs)   bands (ev):

   -51.7053 -23.6325 -23.6182 -23.6107   1.8608   3.5005   7.8244   8.6561
    12.3196

          k =-0.1000-0.1000 0.5000 (  3840 PWs)   bands (ev):

   -51.7056 -23.6251 -23.6169 -23.6127   0.4306   6.4293   7.0655   9.5228
    10.6042

          k =-0.1000-0.2000 0.6000 (  3843 PWs)   bands (ev):

   -51.7053 -23.6297 -23.6201 -23.6127   1.5520   4.6982   6.3811   9.4324
    11.1818

          k =-0.1000 0.7000-0.3000 (  3841 PWs)   bands (ev):

   -51.7052 -23.6314 -23.6214 -23.6127   2.7663   3.2190   6.2091   9.3265
    12.0128

          k =-0.2000 0.8000-0.3000 (  3836 PWs)   bands (ev):

   -51.7051 -23.6291 -23.6247 -23.6132   2.7855   4.1327   4.8409  10.3046
    10.9772

          k =-0.3000 0.3000 0.3000 (  3838 PWs)   bands (ev):

   -51.7058 -23.6279 -23.6115 -23.6115   0.4301   6.4207   6.4207   7.6805
    15.3167

          k = 0.6000-0.6000 0.3000 (  3848 PWs)   bands (ev):

   -51.7056 -23.6290 -23.6162 -23.6118   1.5501   4.6676   5.9594   6.9825
    15.2963

          k = 0.5000-0.5000 0.3000 (  3850 PWs)   bands (ev):

   -51.7055 -23.6286 -23.6188 -23.6120   2.7651   3.2010   5.8058   6.7878
    15.1650

          k = 0.5000-0.6000 0.4000 (  3844 PWs)   bands (ev):

   -51.7055 -23.6259 -23.6198 -23.6142   2.7800   4.1296   4.6890   6.3558
    16.3806

          k = 0.0000 0.0000 0.5000 (  3836 PWs)   bands (ev):

   -51.7056 -23.6210 -23.6165 -23.6165   0.2684   7.8029   7.8344   7.8344
     9.5799

          k = 0.0000-0.1000 0.6000 (  3844 PWs)   bands (ev):

   -51.7052 -23.6263 -23.6196 -23.6172   1.2353   5.8980   7.2551   7.8473
     9.5562

          k = 0.0000-0.2000 0.7000 (  3833 PWs)   bands (ev):

   -51.7050 -23.6304 -23.6214 -23.6169   2.4867   4.1145   6.9658   7.6364
    10.4380

          k =-0.1000-0.1000 0.7000 (  3831 PWs)   bands (ev):

   -51.7049 -23.6283 -23.6233 -23.6183   2.3393   5.2023   5.8583   8.2907
     9.2631

          k =-0.1000 0.8000-0.2000 (  3828 PWs)   bands (ev):

   -51.7048 -23.6292 -23.6251 -23.6182   3.5245   3.9610   5.4929   8.4488
     9.6873

          k = 0.5000-0.5000 0.5000 (  3832 PWs)   bands (ev):

   -51.7055 -23.6202 -23.6202 -23.6202   3.9772   3.9772   3.9772   5.4156
    18.0553

          k = 0.0000 0.0000 0.7000 (  3832 PWs)   bands (ev):

   -51.7049 -23.6256 -23.6227 -23.6227   2.1858   6.4974   6.6800   6.6800
     8.1954

          k = 0.0000-0.1000 0.8000 (  3829 PWs)   bands (ev):

   -51.7046 -23.6282 -23.6247 -23.6230   3.4123   4.9864   6.3928   6.8634
     8.3680

          k =-0.1000 0.9000-0.1000 (  3820 PWs)   bands (ev):

   -51.7045 -23.6273 -23.6273 -23.6235   4.5896   4.5896   5.4299   7.6772
     7.6772

          k = 0.0000 0.0000 0.9000 (  3828 PWs)   bands (ev):

   -51.7044 -23.6270 -23.6266 -23.6266   4.6054   5.8444   6.1068   6.1068
     6.9724

     the Fermi energy is     1.3749 ev

!    total energy              =     -95.10862642 Ry
     Harris-Foulkes estimate   =     -95.10862640 Ry
     estimated scf accuracy    <          4.3E-11 Ry

     The total energy is the sum of the following terms:

     one-electron contribution =     -89.50159306 Ry
     hartree contribution      =      45.00909120 Ry
     xc contribution           =     -14.25983753 Ry
     ewald contribution        =     -36.35642691 Ry
     smearing contrib. (-TS)   =       0.00013987 Ry

     convergence has been achieved in   6 iterations


     Computing stress (Cartesian axis) and pressure

          total   stress  (Ry/bohr**3)                   (kbar)     P=   -5.54
  -0.00003767  -0.00000000   0.00000000         -5.54     -0.00      0.00
  -0.00000000  -0.00003767  -0.00000000         -0.00     -5.54     -0.00
   0.00000000  -0.00000000  -0.00003767          0.00     -0.00     -5.54


     Writing output data file na.bcc.save

     init_run     :      0.84s CPU      0.93s WALL (       1 calls)
     electrons    :     14.73s CPU     17.82s WALL (       1 calls)
     stress       :      0.91s CPU      1.25s WALL (       1 calls)

     Called by init_run:
     wfcinit      :      0.47s CPU      0.51s WALL (       1 calls)
     potinit      :      0.08s CPU      0.09s WALL (       1 calls)

     Called by electrons:
     c_bands      :     11.26s CPU     13.80s WALL (       7 calls)
     sum_band     :      2.51s CPU      3.04s WALL (       7 calls)
     v_of_rho     :      0.43s CPU      0.45s WALL (       7 calls)
     newd         :      0.53s CPU      0.56s WALL (       7 calls)
     mix_rho      :      0.06s CPU      0.06s WALL (       7 calls)

     Called by c_bands:
     init_us_2    :      0.29s CPU      0.30s WALL (     704 calls)
     cegterg      :     10.93s CPU     13.39s WALL (     308 calls)

     Called by sum_band:
     sum_band:bec :      0.00s CPU      0.00s WALL (     308 calls)
     addusdens    :      0.51s CPU      0.54s WALL (       7 calls)

     Called by *egterg:
     h_psi        :      9.33s CPU     11.37s WALL (    1286 calls)
     s_psi        :      0.13s CPU      0.15s WALL (    1286 calls)
     g_psi        :      0.03s CPU      0.04s WALL (     934 calls)
     cdiaghg      :      0.28s CPU      0.37s WALL (    1198 calls)

     Called by h_psi:
     h_psi:pot    :      9.29s CPU     11.32s WALL (    1286 calls)
     h_psi:calbec :      0.43s CPU      0.54s WALL (    1286 calls)
     vloc_psi     :      8.71s CPU     10.64s WALL (    1286 calls)
     add_vuspsi   :      0.14s CPU      0.15s WALL (    1286 calls)

     General routines
     calbec       :      0.71s CPU      0.93s WALL (    1638 calls)
     fft          :      0.41s CPU      0.44s WALL (     117 calls)
     ffts         :      0.01s CPU      0.01s WALL (      14 calls)
     fftw         :      9.06s CPU     11.25s WALL (   18158 calls)
     interpolate  :      0.05s CPU      0.06s WALL (      14 calls)
     davcio       :      0.00s CPU      0.00s WALL (      44 calls)

     Parallel routines
     fft_scatter  :      3.86s CPU      5.62s WALL (   18289 calls)

     PWSCF        :    16.60s CPU        20.15s WALL


   This run was terminated on:  16:26:11  17Dec2017            

=------------------------------------------------------------------------------=
   JOB DONE.
=------------------------------------------------------------------------------=
