
     Program PWSCF v.6.1 (svn rev. 13369) starts on 17Dec2017 at 16:25:12 

     This program is part of the open-source Quantum ESPRESSO suite
     for quantum simulation of materials; please cite
         "P. Giannozzi et al., J. Phys.:Condens. Matter 21 395502 (2009);
          URL http://www.quantum-espresso.org", 
     in publications or presentations arising from this work. More details at
     http://www.quantum-espresso.org/quote

     Parallel version (MPI), running on     4 processors
     R & G space division:  proc/nbgrp/npool/nimage =       4
     Waiting for input...
     Reading input from standard input

     Current dimensions of program PWSCF are:
     Max number of different atomic species (ntypx) = 10
     Max number of k-points (npk) =  40000
     Max angular momentum in pseudopotentials (lmaxx) =  3

     Subspace diagonalization in iterative solution of the eigenvalue problem:
     a serial algorithm will be used


     Parallelization info
     --------------------
     sticks:   dense  smooth     PW     G-vecs:    dense   smooth      PW
     Min         443     221     66                11840     4180     682
     Max         444     222     67                11843     4183     684
     Sum        1775     887    265                47369    16727    2731



     bravais-lattice index     =            3
     lattice parameter (alat)  =       8.1080  a.u.
     unit-cell volume          =     266.5086 (a.u.)^3
     number of atoms/cell      =            1
     number of atomic types    =            1
     number of electrons       =         9.00
     number of Kohn-Sham states=            9
     kinetic-energy cutoff     =      60.0000  Ry
     charge density cutoff     =     480.0000  Ry
     convergence threshold     =      1.0E-08
     mixing beta               =       0.7000
     number of iterations used =            8  plain     mixing
     Exchange-correlation      = SLA  PW   PBE  PBE ( 1  4  3  4 0 0)

     celldm(1)=   8.108000  celldm(2)=   0.000000  celldm(3)=   0.000000
     celldm(4)=   0.000000  celldm(5)=   0.000000  celldm(6)=   0.000000

     crystal axes: (cart. coord. in units of alat)
               a(1) = (   0.500000   0.500000   0.500000 )  
               a(2) = (  -0.500000   0.500000   0.500000 )  
               a(3) = (  -0.500000  -0.500000   0.500000 )  

     reciprocal axes: (cart. coord. in units 2 pi/alat)
               b(1) = (  1.000000  0.000000  1.000000 )  
               b(2) = ( -1.000000  1.000000  0.000000 )  
               b(3) = (  0.000000 -1.000000  1.000000 )  


     PseudoPot. # 1 for Na read from file:
     /home/max/quantum_espresso/qe-6.1/pseudo/Na_pbe_v1.uspp.F.UPF
     MD5 check sum: 76a99c7e9422403d3e93cbc85ab7bccb
     Pseudo is Ultrasoft, Zval =  9.0
     Generated by new atomic code, or converted to UPF format
     Using radial grid of  819 points,  5 beta functions with: 
                l(1) =   0
                l(2) =   0
                l(3) =   1
                l(4) =   1
                l(5) =   2
     Q(r) pseudized with  8 coefficients,  rinner =    1.250   1.250   1.250
                                                       1.250   1.250

     atomic species   valence    mass     pseudopotential
        Na             9.00    22.99000     Na( 1.00)

     48 Sym. Ops., with inversion, found



   Cartesian axes

     site n.     atom                  positions (alat units)
         1           Na  tau(   1) = (   0.0000000   0.0000000   0.0000000  )

     number of k points=    44  Marzari-Vanderbilt smearing, width (Ry)=  0.0200
                       cart. coord. in units 2pi/alat
        k(    1) = (   0.0000000   0.0000000   0.1000000), wk =   0.0120000
        k(    2) = (   0.0000000  -0.1000000   0.2000000), wk =   0.0480000
        k(    3) = (   0.0000000  -0.2000000   0.3000000), wk =   0.0480000
        k(    4) = (   0.0000000  -0.3000000   0.4000000), wk =   0.0480000
        k(    5) = (   0.0000000  -0.4000000   0.5000000), wk =   0.0480000
        k(    6) = (  -0.1000000   0.1000000   0.1000000), wk =   0.0160000
        k(    7) = (  -0.1000000  -0.1000000   0.3000000), wk =   0.0480000
        k(    8) = (  -0.1000000  -0.2000000   0.4000000), wk =   0.0960000
        k(    9) = (  -0.1000000  -0.3000000   0.5000000), wk =   0.0960000
        k(   10) = (  -0.1000000   0.6000000  -0.4000000), wk =   0.0480000
        k(   11) = (  -0.2000000   0.2000000   0.1000000), wk =   0.0480000
        k(   12) = (  -0.2000000  -0.2000000   0.5000000), wk =   0.0480000
        k(   13) = (  -0.2000000   0.7000000  -0.4000000), wk =   0.0960000
        k(   14) = (  -0.3000000   0.3000000   0.1000000), wk =   0.0480000
        k(   15) = (  -0.3000000   0.2000000   0.2000000), wk =   0.0480000
        k(   16) = (  -0.3000000   0.7000000  -0.3000000), wk =   0.0160000
        k(   17) = (  -0.4000000   0.4000000   0.1000000), wk =   0.0480000
        k(   18) = (  -0.4000000   0.3000000   0.2000000), wk =   0.0960000
        k(   19) = (   0.5000000  -0.5000000   0.1000000), wk =   0.0240000
        k(   20) = (   0.5000000  -0.6000000   0.2000000), wk =   0.0960000
        k(   21) = (   0.5000000  -0.7000000   0.3000000), wk =   0.0480000
        k(   22) = (   0.4000000  -0.6000000   0.3000000), wk =   0.0480000
        k(   23) = (   0.0000000   0.0000000   0.3000000), wk =   0.0120000
        k(   24) = (   0.0000000  -0.1000000   0.4000000), wk =   0.0480000
        k(   25) = (   0.0000000  -0.2000000   0.5000000), wk =   0.0480000
        k(   26) = (   0.0000000  -0.3000000   0.6000000), wk =   0.0480000
        k(   27) = (  -0.1000000  -0.1000000   0.5000000), wk =   0.0480000
        k(   28) = (  -0.1000000  -0.2000000   0.6000000), wk =   0.0960000
        k(   29) = (  -0.1000000   0.7000000  -0.3000000), wk =   0.0480000
        k(   30) = (  -0.2000000   0.8000000  -0.3000000), wk =   0.0480000
        k(   31) = (  -0.3000000   0.3000000   0.3000000), wk =   0.0160000
        k(   32) = (   0.6000000  -0.6000000   0.3000000), wk =   0.0480000
        k(   33) = (   0.5000000  -0.5000000   0.3000000), wk =   0.0240000
        k(   34) = (   0.5000000  -0.6000000   0.4000000), wk =   0.0480000
        k(   35) = (   0.0000000   0.0000000   0.5000000), wk =   0.0120000
        k(   36) = (   0.0000000  -0.1000000   0.6000000), wk =   0.0480000
        k(   37) = (   0.0000000  -0.2000000   0.7000000), wk =   0.0480000
        k(   38) = (  -0.1000000  -0.1000000   0.7000000), wk =   0.0480000
        k(   39) = (  -0.1000000   0.8000000  -0.2000000), wk =   0.0480000
        k(   40) = (   0.5000000  -0.5000000   0.5000000), wk =   0.0040000
        k(   41) = (   0.0000000   0.0000000   0.7000000), wk =   0.0120000
        k(   42) = (   0.0000000  -0.1000000   0.8000000), wk =   0.0480000
        k(   43) = (  -0.1000000   0.9000000  -0.1000000), wk =   0.0160000
        k(   44) = (   0.0000000   0.0000000   0.9000000), wk =   0.0120000

     Dense  grid:    47369 G-vectors     FFT dimensions: (  50,  50,  50)

     Smooth grid:    16727 G-vectors     FFT dimensions: (  36,  36,  36)

     Estimated max dynamical RAM per process >      10.87MB

     Estimated total allocated dynamical RAM >      43.47MB

     Initial potential from superposition of free atoms

     starting charge    8.99371, renormalised to    9.00000
     Starting wfc are    5 randomized atomic wfcs +    4 random wfc

     total cpu time spent up to now is        0.5 secs

     per-process dynamical memory:    14.3 Mb

     Self-consistent Calculation

     iteration #  1     ecut=    60.00 Ry     beta=0.70
     Davidson diagonalization with overlap
     ethr =  1.00E-02,  avg # of iterations =  5.9

     Threshold (ethr) on eigenvalues was too large:
     Diagonalizing with lowered threshold

     Davidson diagonalization with overlap
     ethr =  9.35E-06,  avg # of iterations =  5.3

     total cpu time spent up to now is        3.4 secs

     total energy              =     -95.10741635 Ry
     Harris-Foulkes estimate   =     -95.10338687 Ry
     estimated scf accuracy    <       0.00083717 Ry

     iteration #  2     ecut=    60.00 Ry     beta=0.70
     Davidson diagonalization with overlap
     ethr =  9.30E-06,  avg # of iterations =  2.0

     total cpu time spent up to now is        4.1 secs

     total energy              =     -95.10762267 Ry
     Harris-Foulkes estimate   =     -95.10754402 Ry
     estimated scf accuracy    <       0.00010237 Ry

     iteration #  3     ecut=    60.00 Ry     beta=0.70
     Davidson diagonalization with overlap
     ethr =  1.14E-06,  avg # of iterations =  1.3

     total cpu time spent up to now is        5.7 secs

     total energy              =     -95.10763752 Ry
     Harris-Foulkes estimate   =     -95.10763262 Ry
     estimated scf accuracy    <       0.00000674 Ry

     iteration #  4     ecut=    60.00 Ry     beta=0.70
     Davidson diagonalization with overlap
     ethr =  7.49E-08,  avg # of iterations =  1.0

     total cpu time spent up to now is        7.3 secs

     total energy              =     -95.10763854 Ry
     Harris-Foulkes estimate   =     -95.10763809 Ry
     estimated scf accuracy    <       0.00000002 Ry

     iteration #  5     ecut=    60.00 Ry     beta=0.70
     Davidson diagonalization with overlap
     ethr =  2.46E-10,  avg # of iterations =  2.2

     total cpu time spent up to now is        9.5 secs

     End of self-consistent calculation

          k = 0.0000 0.0000 0.1000 (  2102 PWs)   bands (ev):

   -51.7043 -23.6035 -23.6031 -23.6031  -1.7156  11.8415  11.8416  12.3530
    12.7542

          k = 0.0000-0.1000 0.2000 (  2091 PWs)   bands (ev):

   -51.7040 -23.6084 -23.6048 -23.6032  -1.3801   9.5513  10.7228  11.5700
    12.1836

          k = 0.0000-0.2000 0.3000 (  2087 PWs)   bands (ev):

   -51.7036 -23.6167 -23.6076 -23.6031  -0.7149   7.1752   9.8367  10.7692
    11.4122

          k = 0.0000-0.3000 0.4000 (  2085 PWs)   bands (ev):

   -51.7032 -23.6249 -23.6105 -23.6030   0.2685   5.0409   9.2351  10.1883
    10.8740

          k = 0.0000-0.4000 0.5000 (  2093 PWs)   bands (ev):

   -51.7029 -23.6300 -23.6123 -23.6030   1.5460   3.1875   8.9319   9.8909
    10.6033

          k =-0.1000 0.1000 0.1000 (  2090 PWs)   bands (ev):

   -51.7042 -23.6069 -23.6031 -23.6031  -1.5476  10.7019  10.7019  11.4101
    13.4267

          k =-0.1000-0.1000 0.3000 (  2093 PWs)   bands (ev):

   -51.7037 -23.6141 -23.6068 -23.6044  -0.8805   8.2722   8.8350  11.3743
    11.6104

          k =-0.1000-0.2000 0.4000 (  2094 PWs)   bands (ev):

   -51.7033 -23.6213 -23.6100 -23.6047  -0.0574   6.2337   7.8800  10.9047
    11.0539

          k =-0.1000-0.3000 0.5000 (  2086 PWs)   bands (ev):

   -51.7029 -23.6272 -23.6129 -23.6047   1.0742   4.2626   7.4022  10.5092
    10.6361

          k =-0.1000 0.6000-0.4000 (  2096 PWs)   bands (ev):

   -51.7028 -23.6294 -23.6140 -23.6047   2.3138   2.7397   7.2453  10.3756
    10.4851

          k =-0.2000 0.2000 0.1000 (  2097 PWs)   bands (ev):

   -51.7038 -23.6137 -23.6054 -23.6031  -1.0465   8.3474   9.6268  10.4220
    12.8088

          k =-0.2000-0.2000 0.5000 (  2095 PWs)   bands (ev):

   -51.7029 -23.6250 -23.6139 -23.6058   0.9145   5.3540   6.0434  10.4318
    11.5402

          k =-0.2000 0.7000-0.4000 (  2102 PWs)   bands (ev):

   -51.7027 -23.6265 -23.6174 -23.6061   2.1723   3.7810   5.4753  10.1447
    11.5651

          k =-0.3000 0.3000 0.1000 (  2092 PWs)   bands (ev):

   -51.7034 -23.6215 -23.6087 -23.6031  -0.2211   6.1049   8.8517   9.7195
    12.0840

          k =-0.3000 0.2000 0.2000 (  2099 PWs)   bands (ev):

   -51.7035 -23.6200 -23.6072 -23.6044  -0.3853   7.1917   7.7458   9.3530
    13.3639

          k =-0.3000 0.7000-0.3000 (  2115 PWs)   bands (ev):

   -51.7027 -23.6227 -23.6227 -23.6065   3.3725   3.3725   4.2405  10.0002
    12.6301

          k =-0.4000 0.4000 0.1000 (  2089 PWs)   bands (ev):

   -51.7030 -23.6277 -23.6115 -23.6031   0.9139   4.1117   8.3855   9.2894
    11.6375

          k =-0.4000 0.3000 0.2000 (  2099 PWs)   bands (ev):

   -51.7031 -23.6250 -23.6109 -23.6049   0.5924   5.3060   6.9291   8.7237
    13.0690

          k = 0.5000-0.5000 0.1000 (  2098 PWs)   bands (ev):

   -51.7029 -23.6302 -23.6127 -23.6031   2.1629   2.5762   8.2300   9.1445
    11.4880

          k = 0.5000-0.6000 0.2000 (  2094 PWs)   bands (ev):

   -51.7029 -23.6275 -23.6138 -23.6051   1.8600   3.4921   6.6009   8.4118
    12.8103

          k = 0.5000-0.7000 0.3000 (  2094 PWs)   bands (ev):

   -51.7029 -23.6254 -23.6150 -23.6063   1.7081   4.5884   5.2457   8.2264
    13.8554

          k = 0.4000-0.6000 0.3000 (  2092 PWs)   bands (ev):

   -51.7028 -23.6242 -23.6181 -23.6066   2.9174   3.3268   4.8618   8.0648
    13.9661

          k = 0.0000 0.0000 0.3000 (  2086 PWs)   bands (ev):

   -51.7038 -23.6096 -23.6066 -23.6066  -1.0465   9.5776   9.5776   9.7597
    11.3492

          k = 0.0000-0.1000 0.4000 (  2092 PWs)   bands (ev):

   -51.7034 -23.6163 -23.6095 -23.6073  -0.3852   7.4309   8.7031   9.4378
    11.0958

          k = 0.0000-0.2000 0.5000 (  2098 PWs)   bands (ev):

   -51.7030 -23.6240 -23.6124 -23.6071   0.5927   5.3362   8.1179   8.9480
    11.7634

          k = 0.0000-0.3000 0.6000 (  2100 PWs)   bands (ev):

   -51.7027 -23.6287 -23.6143 -23.6069   1.8614   3.5009   7.8249   8.6561
    12.3199

          k =-0.1000-0.1000 0.5000 (  2099 PWs)   bands (ev):

   -51.7030 -23.6213 -23.6129 -23.6088   0.4310   6.4300   7.0656   9.5234
    10.6037

          k =-0.1000-0.2000 0.6000 (  2097 PWs)   bands (ev):

   -51.7027 -23.6258 -23.6162 -23.6089   1.5525   4.6987   6.3814   9.4328
    11.1817

          k =-0.1000 0.7000-0.3000 (  2094 PWs)   bands (ev):

   -51.7025 -23.6276 -23.6174 -23.6089   2.7672   3.2192   6.2094   9.3268
    12.0133

          k =-0.2000 0.8000-0.3000 (  2085 PWs)   bands (ev):

   -51.7025 -23.6252 -23.6208 -23.6093   2.7861   4.1335   4.8407  10.3051
    10.9774

          k =-0.3000 0.3000 0.3000 (  2094 PWs)   bands (ev):

   -51.7032 -23.6241 -23.6076 -23.6076   0.4306   6.4214   6.4214   7.6799
    15.3171

          k = 0.6000-0.6000 0.3000 (  2085 PWs)   bands (ev):

   -51.7030 -23.6251 -23.6122 -23.6079   1.5506   4.6682   5.9601   6.9819
    15.2967

          k = 0.5000-0.5000 0.3000 (  2092 PWs)   bands (ev):

   -51.7029 -23.6247 -23.6149 -23.6081   2.7659   3.2012   5.8065   6.7873
    15.1654

          k = 0.5000-0.6000 0.4000 (  2090 PWs)   bands (ev):

   -51.7029 -23.6220 -23.6159 -23.6102   2.7806   4.1304   4.6892   6.3553
    16.3808

          k = 0.0000 0.0000 0.5000 (  2070 PWs)   bands (ev):

   -51.7030 -23.6171 -23.6125 -23.6125   0.2688   7.8037   7.8349   7.8349
     9.5790

          k = 0.0000-0.1000 0.6000 (  2084 PWs)   bands (ev):

   -51.7026 -23.6224 -23.6155 -23.6133   1.2358   5.8986   7.2557   7.8476
     9.5558

          k = 0.0000-0.2000 0.7000 (  2083 PWs)   bands (ev):

   -51.7024 -23.6264 -23.6175 -23.6130   2.4873   4.1149   6.9663   7.6365
    10.4382

          k =-0.1000-0.1000 0.7000 (  2087 PWs)   bands (ev):

   -51.7023 -23.6245 -23.6193 -23.6144   2.3398   5.2030   5.8584   8.2913
     9.2628

          k =-0.1000 0.8000-0.2000 (  2077 PWs)   bands (ev):

   -51.7022 -23.6252 -23.6211 -23.6143   3.5254   3.9614   5.4931   8.4492
     9.6879

          k = 0.5000-0.5000 0.5000 (  2112 PWs)   bands (ev):

   -51.7029 -23.6164 -23.6164 -23.6164   3.9780   3.9780   3.9780   5.4144
    18.0548

          k = 0.0000 0.0000 0.7000 (  2074 PWs)   bands (ev):

   -51.7022 -23.6217 -23.6187 -23.6187   2.1863   6.4983   6.6805   6.6805
     8.1947

          k = 0.0000-0.1000 0.8000 (  2070 PWs)   bands (ev):

   -51.7020 -23.6243 -23.6206 -23.6190   3.4129   4.9870   6.3934   6.8637
     8.3682

          k =-0.1000 0.9000-0.1000 (  2073 PWs)   bands (ev):

   -51.7019 -23.6233 -23.6233 -23.6196   4.5904   4.5904   5.4299   7.6778
     7.6778

          k = 0.0000 0.0000 0.9000 (  2066 PWs)   bands (ev):

   -51.7018 -23.6231 -23.6226 -23.6226   4.6061   5.8452   6.1074   6.1074
     6.9728

     the Fermi energy is     1.3754 ev

!    total energy              =     -95.10763861 Ry
     Harris-Foulkes estimate   =     -95.10763856 Ry
     estimated scf accuracy    <          1.7E-09 Ry

     The total energy is the sum of the following terms:

     one-electron contribution =     -89.50129879 Ry
     hartree contribution      =      45.01006468 Ry
     xc contribution           =     -14.26011751 Ry
     ewald contribution        =     -36.35642691 Ry
     smearing contrib. (-TS)   =       0.00013993 Ry

     convergence has been achieved in   5 iterations


     Computing stress (Cartesian axis) and pressure

          total   stress  (Ry/bohr**3)                   (kbar)     P=   -7.09
  -0.00004817   0.00000000  -0.00000000         -7.09      0.00     -0.00
   0.00000000  -0.00004817   0.00000000          0.00     -7.09      0.00
  -0.00000000   0.00000000  -0.00004817         -0.00      0.00     -7.09


     Writing output data file na.bcc.save

     init_run     :      0.44s CPU      0.49s WALL (       1 calls)
     electrons    :      6.77s CPU      8.95s WALL (       1 calls)
     stress       :      0.35s CPU      0.39s WALL (       1 calls)

     Called by init_run:
     wfcinit      :      0.19s CPU      0.22s WALL (       1 calls)
     potinit      :      0.04s CPU      0.04s WALL (       1 calls)

     Called by electrons:
     c_bands      :      5.19s CPU      6.74s WALL (       6 calls)
     sum_band     :      0.98s CPU      1.22s WALL (       6 calls)
     v_of_rho     :      0.25s CPU      0.39s WALL (       6 calls)
     newd         :      0.21s CPU      0.27s WALL (       6 calls)
     mix_rho      :      0.13s CPU      0.31s WALL (       6 calls)

     Called by c_bands:
     init_us_2    :      0.13s CPU      0.14s WALL (     616 calls)
     cegterg      :      4.97s CPU      6.46s WALL (     264 calls)

     Called by sum_band:
     sum_band:bec :      0.00s CPU      0.00s WALL (     264 calls)
     addusdens    :      0.17s CPU      0.22s WALL (       6 calls)

     Called by *egterg:
     h_psi        :      3.97s CPU      5.18s WALL (    1091 calls)
     s_psi        :      0.06s CPU      0.06s WALL (    1091 calls)
     g_psi        :      0.02s CPU      0.02s WALL (     783 calls)
     cdiaghg      :      0.29s CPU      0.36s WALL (    1003 calls)

     Called by h_psi:
     h_psi:pot    :      3.96s CPU      5.16s WALL (    1091 calls)
     h_psi:calbec :      0.19s CPU      0.26s WALL (    1091 calls)
     vloc_psi     :      3.71s CPU      4.82s WALL (    1091 calls)
     add_vuspsi   :      0.06s CPU      0.08s WALL (    1091 calls)

     General routines
     calbec       :      0.25s CPU      0.33s WALL (    1399 calls)
     fft          :      0.26s CPU      0.44s WALL (     101 calls)
     ffts         :      0.00s CPU      0.00s WALL (      12 calls)
     fftw         :      3.95s CPU      5.12s WALL (   15610 calls)
     interpolate  :      0.03s CPU      0.03s WALL (      12 calls)
     davcio       :      0.00s CPU      0.00s WALL (      44 calls)

     Parallel routines
     fft_scatter  :      2.24s CPU      3.35s WALL (   15723 calls)

     PWSCF        :     7.67s CPU         9.96s WALL


   This run was terminated on:  16:25:22  17Dec2017            

=------------------------------------------------------------------------------=
   JOB DONE.
=------------------------------------------------------------------------------=
