
     Program PWSCF v.6.1 (svn rev. 13369) starts on 21Dec2017 at 12:20:21 

     This program is part of the open-source Quantum ESPRESSO suite
     for quantum simulation of materials; please cite
         "P. Giannozzi et al., J. Phys.:Condens. Matter 21 395502 (2009);
          URL http://www.quantum-espresso.org", 
     in publications or presentations arising from this work. More details at
     http://www.quantum-espresso.org/quote

     Parallel version (MPI), running on     4 processors
     R & G space division:  proc/nbgrp/npool/nimage =       4
     Waiting for input...
     Reading input from standard input

     Current dimensions of program PWSCF are:
     Max number of different atomic species (ntypx) = 10
     Max number of k-points (npk) =  40000
     Max angular momentum in pseudopotentials (lmaxx) =  3

     Subspace diagonalization in iterative solution of the eigenvalue problem:
     a serial algorithm will be used


     Parallelization info
     --------------------
     sticks:   dense  smooth     PW     G-vecs:    dense   smooth      PW
     Min         238     118     40                 4933     1718     340
     Max         239     119     41                 4938     1721     342
     Sum         955     475    163                19747     6879    1363



     bravais-lattice index     =            2
     lattice parameter (alat)  =       9.3458  a.u.
     unit-cell volume          =     204.0763 (a.u.)^3
     number of atoms/cell      =            1
     number of atomic types    =            1
     number of electrons       =         9.00
     number of Kohn-Sham states=            9
     kinetic-energy cutoff     =      40.0000  Ry
     charge density cutoff     =     320.0000  Ry
     convergence threshold     =      1.0E-08
     mixing beta               =       0.7000
     number of iterations used =            8  plain     mixing
     Exchange-correlation      = SLA  PW   PBE  PBE ( 1  4  3  4 0 0)

     celldm(1)=   9.345822  celldm(2)=   0.000000  celldm(3)=   0.000000
     celldm(4)=   0.000000  celldm(5)=   0.000000  celldm(6)=   0.000000

     crystal axes: (cart. coord. in units of alat)
               a(1) = (  -0.500000   0.000000   0.500000 )  
               a(2) = (   0.000000   0.500000   0.500000 )  
               a(3) = (  -0.500000   0.500000   0.000000 )  

     reciprocal axes: (cart. coord. in units 2 pi/alat)
               b(1) = ( -1.000000 -1.000000  1.000000 )  
               b(2) = (  1.000000  1.000000  1.000000 )  
               b(3) = ( -1.000000  1.000000 -1.000000 )  


     PseudoPot. # 1 for Na read from file:
     /home/s1333534/quantum_espresso/qe-6.1/pseudo/Na_pbe_v1.uspp.F.UPF
     MD5 check sum: 76a99c7e9422403d3e93cbc85ab7bccb
     Pseudo is Ultrasoft, Zval =  9.0
     Generated by new atomic code, or converted to UPF format
     Using radial grid of  819 points,  5 beta functions with: 
                l(1) =   0
                l(2) =   0
                l(3) =   1
                l(4) =   1
                l(5) =   2
     Q(r) pseudized with  8 coefficients,  rinner =    1.250   1.250   1.250
                                                       1.250   1.250

     atomic species   valence    mass     pseudopotential
        Na             9.00    22.99000     Na( 1.00)

     48 Sym. Ops., with inversion, found



   Cartesian axes

     site n.     atom                  positions (alat units)
         1           Na  tau(   1) = (   0.0000000   0.0000000   0.0000000  )

     number of k points=   280  Marzari-Vanderbilt smearing, width (Ry)=  0.0200

     Number of k-points >= 100: set verbosity='high' to print them.

     Dense  grid:    19747 G-vectors     FFT dimensions: (  40,  40,  40)

     Smooth grid:     6879 G-vectors     FFT dimensions: (  27,  27,  27)

     Estimated max dynamical RAM per process >      11.79MB

     Estimated total allocated dynamical RAM >      47.15MB

     Initial potential from superposition of free atoms

     starting charge    8.99371, renormalised to    9.00000
     Starting wfc are    5 randomized atomic wfcs +    4 random wfc

     total cpu time spent up to now is        0.9 secs

     per-process dynamical memory:    17.2 Mb

     Self-consistent Calculation

     iteration #  1     ecut=    40.00 Ry     beta=0.70
     Davidson diagonalization with overlap
     ethr =  1.00E-02,  avg # of iterations =  5.3

     Threshold (ethr) on eigenvalues was too large:
     Diagonalizing with lowered threshold

     Davidson diagonalization with overlap
     ethr =  1.14E-05,  avg # of iterations =  3.5

     total cpu time spent up to now is        5.6 secs

     total energy              =     -95.10338441 Ry
     Harris-Foulkes estimate   =     -95.10371211 Ry
     estimated scf accuracy    <       0.00101987 Ry

     iteration #  2     ecut=    40.00 Ry     beta=0.70
     Davidson diagonalization with overlap
     ethr =  1.13E-05,  avg # of iterations =  2.0

     total cpu time spent up to now is        7.3 secs

     total energy              =     -95.10350775 Ry
     Harris-Foulkes estimate   =     -95.10353652 Ry
     estimated scf accuracy    <       0.00011324 Ry

     iteration #  3     ecut=    40.00 Ry     beta=0.70
     Davidson diagonalization with overlap
     ethr =  1.26E-06,  avg # of iterations =  2.0

     total cpu time spent up to now is        8.9 secs

     total energy              =     -95.10352124 Ry
     Harris-Foulkes estimate   =     -95.10352249 Ry
     estimated scf accuracy    <       0.00000672 Ry

     iteration #  4     ecut=    40.00 Ry     beta=0.70
     Davidson diagonalization with overlap
     ethr =  7.47E-08,  avg # of iterations =  1.0

     total cpu time spent up to now is       10.4 secs

     End of self-consistent calculation

     Number of k-points >= 100: set verbosity='high' to print the bands.

     the Fermi energy is     2.5490 ev

!    total energy              =     -95.10352186 Ry
     Harris-Foulkes estimate   =     -95.10352180 Ry
     estimated scf accuracy    <          9.3E-09 Ry

     The total energy is the sum of the following terms:

     one-electron contribution =     -83.58032965 Ry
     hartree contribution      =      42.51016893 Ry
     xc contribution           =     -14.29640718 Ry
     ewald contribution        =     -39.73688163 Ry
     smearing contrib. (-TS)   =      -0.00007233 Ry

     convergence has been achieved in   4 iterations


     Computing stress (Cartesian axis) and pressure

          total   stress  (Ry/bohr**3)                   (kbar)     P=   19.38
   0.00013177   0.00000000   0.00000000         19.38      0.00      0.00
   0.00000000   0.00013177  -0.00000000          0.00     19.38     -0.00
   0.00000000  -0.00000000   0.00013177          0.00     -0.00     19.38


     Writing output data file na.fcc.save

     init_run     :      0.72s CPU      0.80s WALL (       1 calls)
     electrons    :      8.95s CPU      9.47s WALL (       1 calls)
     stress       :      0.49s CPU      0.50s WALL (       1 calls)

     Called by init_run:
     wfcinit      :      0.53s CPU      0.58s WALL (       1 calls)
     potinit      :      0.02s CPU      0.03s WALL (       1 calls)

     Called by electrons:
     c_bands      :      7.46s CPU      7.90s WALL (       5 calls)
     sum_band     :      1.39s CPU      1.46s WALL (       5 calls)
     v_of_rho     :      0.06s CPU      0.06s WALL (       5 calls)
     newd         :      0.06s CPU      0.06s WALL (       5 calls)
     mix_rho      :      0.00s CPU      0.00s WALL (       5 calls)

     Called by c_bands:
     init_us_2    :      0.32s CPU      0.31s WALL (    3360 calls)
     cegterg      :      7.17s CPU      7.61s WALL (    1400 calls)

     Called by sum_band:
     sum_band:bec :      0.00s CPU      0.00s WALL (    1400 calls)
     addusdens    :      0.08s CPU      0.08s WALL (       5 calls)

     Called by *egterg:
     h_psi        :      6.24s CPU      6.61s WALL (    5567 calls)
     s_psi        :      0.07s CPU      0.07s WALL (    5567 calls)
     g_psi        :      0.04s CPU      0.04s WALL (    3887 calls)
     cdiaghg      :      0.80s CPU      0.85s WALL (    5007 calls)

     Called by h_psi:
     h_psi:pot    :      6.22s CPU      6.58s WALL (    5567 calls)
     h_psi:calbec :      0.14s CPU      0.12s WALL (    5567 calls)
     vloc_psi     :      6.01s CPU      6.37s WALL (    5567 calls)
     add_vuspsi   :      0.06s CPU      0.08s WALL (    5567 calls)

     General routines
     calbec       :      0.17s CPU      0.16s WALL (    7247 calls)
     fft          :      0.03s CPU      0.06s WALL (      85 calls)
     ffts         :      0.00s CPU      0.00s WALL (      10 calls)
     fftw         :      6.66s CPU      6.69s WALL (   82880 calls)
     interpolate  :      0.01s CPU      0.01s WALL (      10 calls)
     davcio       :      0.00s CPU      0.01s WALL (     280 calls)

     Parallel routines
     fft_scatter  :      1.07s CPU      1.29s WALL (   82975 calls)

     PWSCF        :    10.47s CPU        11.16s WALL


   This run was terminated on:  12:20:32  21Dec2017            

=------------------------------------------------------------------------------=
   JOB DONE.
=------------------------------------------------------------------------------=
