
     Program PHONON v.5.2.0 starts on 31May2016 at 22:36: 2 

     This program is part of the open-source Quantum ESPRESSO suite
     for quantum simulation of materials; please cite
         "P. Giannozzi et al., J. Phys.:Condens. Matter 21 395502 (2009);
          URL http://www.quantum-espresso.org", 
     in publications or presentations arising from this work. More details at
     http://www.quantum-espresso.org/quote

     Parallel version (MPI), running on   288 processors
     K-points division:     npool     =     288

     Reading data from directory:
     ./tmp/li-bcc.save

   Info: using nr1, nr2, nr3 values from input

   Info: using nr1, nr2, nr3 values from input

     IMPORTANT: XC functional enforced from input :
     Exchange-correlation      =  SLA  PW   PBX  PBC ( 1  4  3  4 0 0)
     Any further DFT definition will be discarded
     Please, verify this is what you really want

 
     G-vector sticks info
     --------------------
     sticks:   dense  smooth     PW     G-vecs:    dense   smooth      PW
     Sum        1097     541    173                22831     8007    1433
 


     Dynamical matrices for (10,10,10)  uniform grid of q-points
     (  47q-points):
       N         xq(1)         xq(2)         xq(3) 
       1   0.000000000   0.000000000   0.000000000
       2   0.000000000  -0.100000000   0.100000000
       3   0.000000000  -0.200000000   0.200000000
       4   0.000000000  -0.300000000   0.300000000
       5   0.000000000  -0.400000000   0.400000000
       6   0.000000000   0.500000000  -0.500000000
       7  -0.100000000  -0.100000000   0.200000000
       8  -0.100000000  -0.200000000   0.300000000
       9  -0.100000000  -0.300000000   0.400000000
      10  -0.100000000   0.600000000  -0.500000000
      11  -0.200000000  -0.200000000   0.400000000
      12  -0.200000000   0.700000000  -0.500000000
      13  -0.200000000   0.600000000  -0.400000000
      14  -0.300000000   0.700000000  -0.400000000
      15   0.000000000   0.000000000   0.200000000
      16   0.000000000  -0.100000000   0.300000000
      17   0.000000000  -0.200000000   0.400000000
      18   0.000000000  -0.300000000   0.500000000
      19   0.000000000   0.600000000  -0.400000000
      20  -0.100000000  -0.100000000   0.400000000
      21  -0.100000000  -0.200000000   0.500000000
      22  -0.100000000   0.700000000  -0.400000000
      23  -0.200000000   0.200000000   0.200000000
      24  -0.200000000   0.800000000  -0.400000000
      25  -0.200000000   0.700000000  -0.300000000
      26  -0.300000000   0.300000000   0.200000000
      27   0.600000000  -0.600000000   0.200000000
      28   0.600000000  -0.700000000   0.300000000
      29   0.500000000  -0.500000000   0.200000000
      30   0.500000000  -0.600000000   0.300000000
      31   0.400000000  -0.600000000   0.400000000
      32   0.000000000   0.000000000   0.400000000
      33   0.000000000  -0.100000000   0.500000000
      34   0.000000000  -0.200000000   0.600000000
      35   0.000000000   0.700000000  -0.300000000
      36  -0.100000000  -0.100000000   0.600000000
      37  -0.100000000   0.800000000  -0.300000000
      38  -0.200000000   0.800000000  -0.200000000
      39   0.600000000  -0.600000000   0.400000000
      40   0.500000000  -0.500000000   0.400000000
      41   0.000000000   0.000000000   0.600000000
      42   0.000000000  -0.100000000   0.700000000
      43   0.000000000   0.800000000  -0.200000000
      44  -0.100000000   0.900000000  -0.200000000
      45   0.000000000   0.000000000   0.800000000
      46   0.000000000   0.900000000  -0.100000000
      47   0.000000000   0.000000000  -1.000000000

     Calculation of q =    0.0000000   0.0000000   0.0000000

                                                                                

     bravais-lattice index     =            3
     lattice parameter (alat)  =       6.3528  a.u.
     unit-cell volume          =     128.1952 (a.u.)^3
     number of atoms/cell      =            1
     number of atomic types    =            1
     kinetic-energy cut-off    =      60.0000  Ry
     charge density cut-off    =     480.0000  Ry
     convergence threshold     =      1.0E-16
     beta                      =       0.7000
     number of iterations used =            4
     Exchange-correlation      =  SLA  PW   PBX  PBC ( 1  4  3  4 0 0)


     celldm(1)=    6.35283  celldm(2)=    0.00000  celldm(3)=    0.00000
     celldm(4)=    0.00000  celldm(5)=    0.00000  celldm(6)=    0.00000

     crystal axes: (cart. coord. in units of alat)
               a(1) = (  0.5000  0.5000  0.5000 )  
               a(2) = ( -0.5000  0.5000  0.5000 )  
               a(3) = ( -0.5000 -0.5000  0.5000 )  

     reciprocal axes: (cart. coord. in units 2 pi/alat)
               b(1) = (  1.0000  0.0000  1.0000 )  
               b(2) = ( -1.0000  1.0000  0.0000 )  
               b(3) = (  0.0000 -1.0000  1.0000 )  


     Atoms inside the unit cell: 

     Cartesian axes

     site n.  atom      mass           positions (alat units)
        1     Li   6.9410   tau(    1) = (    0.00000    0.00000    0.00000  )

     Computing dynamical matrix for 
                    q = (   0.0000000   0.0000000   0.0000000 )
 
     49 Sym.Ops. (with q -> -q+G )


     G cutoff =  490.7001  (  22831 G-vectors)     FFT grid: ( 40, 40, 40)
     G cutoff =  245.3500  (   8007 G-vectors)  smooth grid: ( 27, 27, 27)

     number of k points=   616  Marzari-Vanderbilt smearing, width (Ry)=  0.0200

     PseudoPot. # 1 for Li read from file:
     ../Li.pbe-s-gbrv14.UPF
     MD5 check sum: 7ca33c4f951f001da2db5c8738379802
     Pseudo is Ultrasoft, Zval =  3.0
     Generated by new atomic code, or converted to UPF format
     Using radial grid of  751 points,  5 beta functions with: 
                l(1) =   0
                l(2) =   0
                l(3) =   0
                l(4) =   1
                l(5) =   1
     Q(r) pseudized with 10 coefficients,  rinner =    1.150   1.150   1.150


     Mode symmetry, O_h (m-3m)  point group:


     Atomic displacements:
     There are   1 irreducible representations

     Representation     1      3 modes -T_1u G_15  G_4-  To be done



     Alpha used in Ewald sum =   2.8000
     PHONON       :     7.65s CPU        29.59s WALL



     Representation #  1 modes #   1  2  3

     Self-consistent Calculation
 
     Pert. #  1: Fermi energy shift (Ry) =    -6.8932E-25    -4.0750E-37
     Pert. #  2: Fermi energy shift (Ry) =     0.0000E+00    -6.8962E-37
     Pert. #  3: Fermi energy shift (Ry) =     8.2718E-25     6.2693E-38

      iter #   1 total cpu time :    30.3 secs   av.it.:   5.3
      thresh= 1.000E-02 alpha_mix =  0.700 |ddv_scf|^2 =  1.162E-07
 
     Pert. #  1: Fermi energy shift (Ry) =    -6.8932E-26     6.1224E-40
     Pert. #  2: Fermi energy shift (Ry) =     5.5145E-25     2.3265E-39
     Pert. #  3: Fermi energy shift (Ry) =    -9.6504E-25    -1.2245E-40

      iter #   2 total cpu time :    32.8 secs   av.it.:   9.3
      thresh= 3.408E-05 alpha_mix =  0.700 |ddv_scf|^2 =  7.149E-09
 
     Pert. #  1: Fermi energy shift (Ry) =     8.2718E-25     4.5918E-41
     Pert. #  2: Fermi energy shift (Ry) =     6.2039E-25    -3.0612E-41
     Pert. #  3: Fermi energy shift (Ry) =     2.0680E-25    -2.6785E-41

      iter #   3 total cpu time :    34.0 secs   av.it.:   9.6
      thresh= 8.455E-06 alpha_mix =  0.700 |ddv_scf|^2 =  4.282E-11
 
     Pert. #  1: Fermi energy shift (Ry) =     8.9611E-25     4.7831E-42
     Pert. #  2: Fermi energy shift (Ry) =     6.8932E-25    -3.8265E-42
     Pert. #  3: Fermi energy shift (Ry) =     8.9611E-25    -1.9132E-42

      iter #   4 total cpu time :    37.8 secs   av.it.:   9.4
      thresh= 6.543E-07 alpha_mix =  0.700 |ddv_scf|^2 =  1.135E-13
 
     Pert. #  1: Fermi energy shift (Ry) =    -2.7573E-25    -8.6096E-42
     Pert. #  2: Fermi energy shift (Ry) =    -1.0340E-24     7.6530E-42
     Pert. #  3: Fermi energy shift (Ry) =     2.0680E-25    -7.6530E-42

      iter #   5 total cpu time :    40.9 secs   av.it.:   9.0
      thresh= 3.369E-08 alpha_mix =  0.700 |ddv_scf|^2 =  2.052E-15
 
     Pert. #  1: Fermi energy shift (Ry) =    -9.6504E-25     6.6963E-42
     Pert. #  2: Fermi energy shift (Ry) =    -2.0680E-25     1.5306E-41
     Pert. #  3: Fermi energy shift (Ry) =     1.3786E-25    -7.6530E-42

      iter #   6 total cpu time :    43.5 secs   av.it.:   8.5
      thresh= 4.530E-09 alpha_mix =  0.700 |ddv_scf|^2 =  6.236E-19

     End of self-consistent calculation

     Convergence has been achieved 
 
     Number of q in the star =    1
     List of q in the star:
          1   0.000000000   0.000000000   0.000000000

     Diagonalizing the dynamical matrix

     q = (    0.000000000   0.000000000   0.000000000 ) 

 **************************************************************************
     freq (    1) =       0.020311 [THz] =       0.677495 [cm-1]
     freq (    2) =       0.020311 [THz] =       0.677495 [cm-1]
     freq (    3) =       0.020311 [THz] =       0.677495 [cm-1]
 **************************************************************************

     Mode symmetry, O_h (m-3m)  point group:

     freq (  1 -  3) =          0.7  [cm-1]   --> T_1u G_15  G_4- I  

     Calculation of q =    0.0000000  -0.1000000   0.1000000
 
     G-vector sticks info
     --------------------
     sticks:   dense  smooth     PW     G-vecs:    dense   smooth      PW
     Sum        1097     541    173                22831     8007    1481
 


     bravais-lattice index     =            3
     lattice parameter (alat)  =       6.3528  a.u.
     unit-cell volume          =     128.1952 (a.u.)^3
     number of atoms/cell      =            1
     number of atomic types    =            1
     number of electrons       =         3.00
     number of Kohn-Sham states=            6
     kinetic-energy cutoff     =      60.0000  Ry
     charge density cutoff     =     480.0000  Ry
     Exchange-correlation      =  SLA  PW   PBX  PBC ( 1  4  3  4 0 0)

     celldm(1)=   6.352831  celldm(2)=   0.000000  celldm(3)=   0.000000
     celldm(4)=   0.000000  celldm(5)=   0.000000  celldm(6)=   0.000000

     crystal axes: (cart. coord. in units of alat)
               a(1) = (   0.500000   0.500000   0.500000 )  
               a(2) = (  -0.500000   0.500000   0.500000 )  
               a(3) = (  -0.500000  -0.500000   0.500000 )  

     reciprocal axes: (cart. coord. in units 2 pi/alat)
               b(1) = (  1.000000  0.000000  1.000000 )  
               b(2) = ( -1.000000  1.000000  0.000000 )  
               b(3) = (  0.000000 -1.000000  1.000000 )  


     PseudoPot. # 1 for Li read from file:
     ../Li.pbe-s-gbrv14.UPF
     MD5 check sum: 7ca33c4f951f001da2db5c8738379802
     Pseudo is Ultrasoft, Zval =  3.0
     Generated by new atomic code, or converted to UPF format
     Using radial grid of  751 points,  5 beta functions with: 
                l(1) =   0
                l(2) =   0
                l(3) =   0
                l(4) =   1
                l(5) =   1
     Q(r) pseudized with 10 coefficients,  rinner =    1.150   1.150   1.150


     atomic species   valence    mass     pseudopotential
        Li             3.00     6.94100     Li( 1.00)

     48 Sym. Ops., with inversion, found



   Cartesian axes

     site n.     atom                  positions (alat units)
         1           Li  tau(   1) = (   0.0000000   0.0000000   0.0000000  )

     number of k points= 11760  Marzari-Vanderbilt smearing, width (Ry)=  0.0200

     Number of k-points >= 100: set verbosity='high' to print them.

     Dense  grid:    22831 G-vectors     FFT dimensions: (  40,  40,  40)

     Smooth grid:     8007 G-vectors     FFT dimensions: (  27,  27,  27)

     Largest allocated arrays     est. size (Mb)     dimensions
        Kohn-Sham Wavefunctions         0.10 Mb     (    1040,    6)
        NL pseudopotentials             0.14 Mb     (    1040,    9)
        Each V/rho on FFT grid          0.98 Mb     (   64000)
        Each G-vector array             0.17 Mb     (   22831)
        G-vector shells                 0.00 Mb     (     227)
     Largest temporary arrays     est. size (Mb)     dimensions
        Auxiliary wavefunctions         0.38 Mb     (    1040,   24)
        Each subspace H/S matrix        0.01 Mb     (      24,   24)
        Each <psi_i|beta_j> matrix      0.00 Mb     (       9,    6)

     The potential is recalculated from file :
     ./tmp/_ph0/li-bcc.save/charge-density.dat

     Starting wfc are    5 atomic +    1 random wfc

     Band Structure Calculation
     Davidson diagonalization with overlap

     ethr =  3.33E-10,  avg # of iterations = 17.2

     total cpu time spent up to now is        7.3 secs

     End of band structure calculation

     Number of k-points >= 100: set verbosity='high' to print the bands.

     the Fermi energy is     1.1626 ev

                                                                                

     bravais-lattice index     =            3
     lattice parameter (alat)  =       6.3528  a.u.
     unit-cell volume          =     128.1952 (a.u.)^3
     number of atoms/cell      =            1
     number of atomic types    =            1
     kinetic-energy cut-off    =      60.0000  Ry
     charge density cut-off    =     480.0000  Ry
     convergence threshold     =      1.0E-16
     beta                      =       0.7000
     number of iterations used =            4
     Exchange-correlation      =  SLA  PW   PBX  PBC ( 1  4  3  4 0 0)


     celldm(1)=    6.35283  celldm(2)=    0.00000  celldm(3)=    0.00000
     celldm(4)=    0.00000  celldm(5)=    0.00000  celldm(6)=    0.00000

     crystal axes: (cart. coord. in units of alat)
               a(1) = (  0.5000  0.5000  0.5000 )  
               a(2) = ( -0.5000  0.5000  0.5000 )  
               a(3) = ( -0.5000 -0.5000  0.5000 )  

     reciprocal axes: (cart. coord. in units 2 pi/alat)
               b(1) = (  1.0000  0.0000  1.0000 )  
               b(2) = ( -1.0000  1.0000  0.0000 )  
               b(3) = (  0.0000 -1.0000  1.0000 )  


     Atoms inside the unit cell: 

     Cartesian axes

     site n.  atom      mass           positions (alat units)
        1     Li   6.9410   tau(    1) = (    0.00000    0.00000    0.00000  )

     Computing dynamical matrix for 
                    q = (   0.0000000  -0.1000000   0.1000000 )
 
      4 Sym.Ops. (no q -> -q+G )


     G cutoff =  490.7001  (  22831 G-vectors)     FFT grid: ( 40, 40, 40)
     G cutoff =  245.3500  (   8007 G-vectors)  smooth grid: ( 27, 27, 27)

     number of k points= 11760  Marzari-Vanderbilt smearing, width (Ry)=  0.0200

     PseudoPot. # 1 for Li read from file:
     ../Li.pbe-s-gbrv14.UPF
     MD5 check sum: 7ca33c4f951f001da2db5c8738379802
     Pseudo is Ultrasoft, Zval =  3.0
     Generated by new atomic code, or converted to UPF format
     Using radial grid of  751 points,  5 beta functions with: 
                l(1) =   0
                l(2) =   0
                l(3) =   0
                l(4) =   1
                l(5) =   1
     Q(r) pseudized with 10 coefficients,  rinner =    1.150   1.150   1.150


     Mode symmetry, C_2v (mm2)  point group:


     Atomic displacements:
     There are   3 irreducible representations

     Representation     1      1 modes -A_1  D_1  S_1  To be done

     Representation     2      1 modes -B_1  D_3  S_3  To be done

     Representation     3      1 modes -B_2  D_4  S_4  To be done



     Alpha used in Ewald sum =   2.8000
     PHONON       :  0m42.62s CPU     1m11.55s WALL



     Representation #  1 mode #   1

     Self-consistent Calculation

      iter #   1 total cpu time :    72.1 secs   av.it.:   6.3
      thresh= 1.000E-02 alpha_mix =  0.700 |ddv_scf|^2 =  2.776E-01

      iter #   2 total cpu time :    77.0 secs   av.it.:   8.2
      thresh= 1.000E-02 alpha_mix =  0.700 |ddv_scf|^2 =  5.345E+02

      iter #   3 total cpu time :    78.4 secs   av.it.:   8.1
      thresh= 1.000E-02 alpha_mix =  0.700 |ddv_scf|^2 =  1.004E-02

      iter #   4 total cpu time :    80.9 secs   av.it.:   3.5
      thresh= 1.000E-02 alpha_mix =  0.700 |ddv_scf|^2 =  1.443E-07

      iter #   5 total cpu time :    83.2 secs   av.it.:   7.9
      thresh= 3.799E-05 alpha_mix =  0.700 |ddv_scf|^2 =  1.351E-08

      iter #   6 total cpu time :    84.8 secs   av.it.:   7.5
      thresh= 1.162E-05 alpha_mix =  0.700 |ddv_scf|^2 =  3.814E-08

      iter #   7 total cpu time :    85.3 secs   av.it.:   3.3
      thresh= 1.953E-05 alpha_mix =  0.700 |ddv_scf|^2 =  1.013E-09

      iter #   8 total cpu time :    86.1 secs   av.it.:   6.1
      thresh= 3.183E-06 alpha_mix =  0.700 |ddv_scf|^2 =  2.161E-11

      iter #   9 total cpu time :    88.0 secs   av.it.:   6.5
      thresh= 4.649E-07 alpha_mix =  0.700 |ddv_scf|^2 =  7.564E-13

      iter #  10 total cpu time :    95.5 secs   av.it.:   6.5
      thresh= 8.697E-08 alpha_mix =  0.700 |ddv_scf|^2 =  2.034E-15

      iter #  11 total cpu time :   103.0 secs   av.it.:   6.9
      thresh= 4.510E-09 alpha_mix =  0.700 |ddv_scf|^2 =  3.973E-17

     End of self-consistent calculation

     Convergence has been achieved 


     Representation #  2 mode #   2

     Self-consistent Calculation

      iter #   1 total cpu time :   109.5 secs   av.it.:   5.2
      thresh= 1.000E-02 alpha_mix =  0.700 |ddv_scf|^2 =  1.049E-06

      iter #   2 total cpu time :   110.9 secs   av.it.:   8.5
      thresh= 1.024E-04 alpha_mix =  0.700 |ddv_scf|^2 =  6.442E-08

      iter #   3 total cpu time :   111.6 secs   av.it.:   8.9
      thresh= 2.538E-05 alpha_mix =  0.700 |ddv_scf|^2 =  4.026E-10

      iter #   4 total cpu time :   112.2 secs   av.it.:   8.4
      thresh= 2.007E-06 alpha_mix =  0.700 |ddv_scf|^2 =  9.863E-13

      iter #   5 total cpu time :   112.8 secs   av.it.:   8.1
      thresh= 9.931E-08 alpha_mix =  0.700 |ddv_scf|^2 =  1.749E-14

      iter #   6 total cpu time :   114.3 secs   av.it.:   7.6
      thresh= 1.322E-08 alpha_mix =  0.700 |ddv_scf|^2 =  5.986E-18

     End of self-consistent calculation

     Convergence has been achieved 


     Representation #  3 mode #   3

     Self-consistent Calculation

      iter #   1 total cpu time :   118.8 secs   av.it.:   5.2
      thresh= 1.000E-02 alpha_mix =  0.700 |ddv_scf|^2 =  1.062E-06

      iter #   2 total cpu time :   124.3 secs   av.it.:   8.5
      thresh= 1.030E-04 alpha_mix =  0.700 |ddv_scf|^2 =  6.500E-08

      iter #   3 total cpu time :   125.0 secs   av.it.:   8.8
      thresh= 2.550E-05 alpha_mix =  0.700 |ddv_scf|^2 =  4.601E-10

      iter #   4 total cpu time :   126.2 secs   av.it.:   8.3
      thresh= 2.145E-06 alpha_mix =  0.700 |ddv_scf|^2 =  9.665E-13

      iter #   5 total cpu time :   128.0 secs   av.it.:   8.2
      thresh= 9.831E-08 alpha_mix =  0.700 |ddv_scf|^2 =  1.669E-14

      iter #   6 total cpu time :   129.0 secs   av.it.:   7.6
      thresh= 1.292E-08 alpha_mix =  0.700 |ddv_scf|^2 =  5.360E-18

     End of self-consistent calculation

     Convergence has been achieved 
 
     Number of q in the star =   12
     List of q in the star:
          1   0.000000000  -0.100000000   0.100000000
          2  -0.100000000   0.000000000   0.100000000
          3   0.100000000   0.000000000   0.100000000
          4   0.000000000   0.100000000   0.100000000
          5   0.100000000   0.100000000   0.000000000
          6  -0.100000000   0.100000000   0.000000000
          7   0.100000000  -0.100000000   0.000000000
          8  -0.100000000  -0.100000000   0.000000000
          9  -0.100000000   0.000000000  -0.100000000
         10   0.000000000   0.100000000  -0.100000000
         11   0.000000000  -0.100000000  -0.100000000
         12   0.100000000   0.000000000  -0.100000000

     Diagonalizing the dynamical matrix

     q = (    0.000000000  -0.100000000   0.100000000 ) 

 **************************************************************************
     freq (    1) =       0.478667 [THz] =      15.966627 [cm-1]
     freq (    2) =       1.829188 [THz] =      61.015148 [cm-1]
     freq (    3) =       2.901298 [THz] =      96.776879 [cm-1]
 **************************************************************************

     Mode symmetry, C_2v (mm2)  point group:

     freq (  1 -  1) =         16.0  [cm-1]   --> B_1  D_3  S_3      
     freq (  2 -  2) =         61.0  [cm-1]   --> B_2  D_4  S_4      
     freq (  3 -  3) =         96.8  [cm-1]   --> A_1  D_1  S_1      

     Calculation of q =    0.0000000  -0.2000000   0.2000000
 
     G-vector sticks info
     --------------------
     sticks:   dense  smooth     PW     G-vecs:    dense   smooth      PW
     Sum        1097     541    181                22831     8007    1553
 


     bravais-lattice index     =            3
     lattice parameter (alat)  =       6.3528  a.u.
     unit-cell volume          =     128.1952 (a.u.)^3
     number of atoms/cell      =            1
     number of atomic types    =            1
     number of electrons       =         3.00
     number of Kohn-Sham states=            6
     kinetic-energy cutoff     =      60.0000  Ry
     charge density cutoff     =     480.0000  Ry
     Exchange-correlation      =  SLA  PW   PBX  PBC ( 1  4  3  4 0 0)

     celldm(1)=   6.352831  celldm(2)=   0.000000  celldm(3)=   0.000000
     celldm(4)=   0.000000  celldm(5)=   0.000000  celldm(6)=   0.000000

     crystal axes: (cart. coord. in units of alat)
               a(1) = (   0.500000   0.500000   0.500000 )  
               a(2) = (  -0.500000   0.500000   0.500000 )  
               a(3) = (  -0.500000  -0.500000   0.500000 )  

     reciprocal axes: (cart. coord. in units 2 pi/alat)
               b(1) = (  1.000000  0.000000  1.000000 )  
               b(2) = ( -1.000000  1.000000  0.000000 )  
               b(3) = (  0.000000 -1.000000  1.000000 )  


     PseudoPot. # 1 for Li read from file:
     ../Li.pbe-s-gbrv14.UPF
     MD5 check sum: 7ca33c4f951f001da2db5c8738379802
     Pseudo is Ultrasoft, Zval =  3.0
     Generated by new atomic code, or converted to UPF format
     Using radial grid of  751 points,  5 beta functions with: 
                l(1) =   0
                l(2) =   0
                l(3) =   0
                l(4) =   1
                l(5) =   1
     Q(r) pseudized with 10 coefficients,  rinner =    1.150   1.150   1.150


     atomic species   valence    mass     pseudopotential
        Li             3.00     6.94100     Li( 1.00)

     48 Sym. Ops., with inversion, found



   Cartesian axes

     site n.     atom                  positions (alat units)
         1           Li  tau(   1) = (   0.0000000   0.0000000   0.0000000  )

     number of k points= 11760  Marzari-Vanderbilt smearing, width (Ry)=  0.0200

     Number of k-points >= 100: set verbosity='high' to print them.

     Dense  grid:    22831 G-vectors     FFT dimensions: (  40,  40,  40)

     Smooth grid:     8007 G-vectors     FFT dimensions: (  27,  27,  27)

     Largest allocated arrays     est. size (Mb)     dimensions
        Kohn-Sham Wavefunctions         0.10 Mb     (    1040,    6)
        NL pseudopotentials             0.14 Mb     (    1040,    9)
        Each V/rho on FFT grid          0.98 Mb     (   64000)
        Each G-vector array             0.17 Mb     (   22831)
        G-vector shells                 0.00 Mb     (     227)
     Largest temporary arrays     est. size (Mb)     dimensions
        Auxiliary wavefunctions         0.38 Mb     (    1040,   24)
        Each subspace H/S matrix        0.01 Mb     (      24,   24)
        Each <psi_i|beta_j> matrix      0.00 Mb     (       9,    6)

 %%%%%%%%%%%%%%%%%%%%%%%%%%%%%%%%%%%%%%%%%%%%%%%%%%%%%%%%%%%%%%%%%%%%%%%%%%%%%%
     Error in routine seqopn (24):
     error opening ./tmp/_ph0/li-bcc.igk251
 %%%%%%%%%%%%%%%%%%%%%%%%%%%%%%%%%%%%%%%%%%%%%%%%%%%%%%%%%%%%%%%%%%%%%%%%%%%%%%

     stopping ...
Application 21880438 exit codes: 134
Application 21880438 exit signals: Killed
Application 21880438 resources: utime ~156s, stime ~14s, Rss ~218312, inblocks ~448566, outblocks ~1266121

     Program PHONON v.5.2.0 starts on  2Jun2016 at 13: 8:21 

     This program is part of the open-source Quantum ESPRESSO suite
     for quantum simulation of materials; please cite
         "P. Giannozzi et al., J. Phys.:Condens. Matter 21 395502 (2009);
          URL http://www.quantum-espresso.org", 
     in publications or presentations arising from this work. More details at
     http://www.quantum-espresso.org/quote

     Parallel version (MPI), running on   288 processors
     K-points division:     npool     =     288

     Reading data from directory:
     ./tmp/li-bcc.save

   Info: using nr1, nr2, nr3 values from input

   Info: using nr1, nr2, nr3 values from input

     IMPORTANT: XC functional enforced from input :
     Exchange-correlation      =  SLA  PW   PBX  PBC ( 1  4  3  4 0 0)
     Any further DFT definition will be discarded
     Please, verify this is what you really want

 
     G-vector sticks info
     --------------------
     sticks:   dense  smooth     PW     G-vecs:    dense   smooth      PW
     Sum        1097     541    173                22831     8007    1433
 


     Dynamical matrices for (10,10,10)  uniform grid of q-points
     (  47q-points):
       N         xq(1)         xq(2)         xq(3) 
       1   0.000000000   0.000000000   0.000000000
       2   0.000000000  -0.100000000   0.100000000
       3   0.000000000  -0.200000000   0.200000000
       4   0.000000000  -0.300000000   0.300000000
       5   0.000000000  -0.400000000   0.400000000
       6   0.000000000   0.500000000  -0.500000000
       7  -0.100000000  -0.100000000   0.200000000
       8  -0.100000000  -0.200000000   0.300000000
       9  -0.100000000  -0.300000000   0.400000000
      10  -0.100000000   0.600000000  -0.500000000
      11  -0.200000000  -0.200000000   0.400000000
      12  -0.200000000   0.700000000  -0.500000000
      13  -0.200000000   0.600000000  -0.400000000
      14  -0.300000000   0.700000000  -0.400000000
      15   0.000000000   0.000000000   0.200000000
      16   0.000000000  -0.100000000   0.300000000
      17   0.000000000  -0.200000000   0.400000000
      18   0.000000000  -0.300000000   0.500000000
      19   0.000000000   0.600000000  -0.400000000
      20  -0.100000000  -0.100000000   0.400000000
      21  -0.100000000  -0.200000000   0.500000000
      22  -0.100000000   0.700000000  -0.400000000
      23  -0.200000000   0.200000000   0.200000000
      24  -0.200000000   0.800000000  -0.400000000
      25  -0.200000000   0.700000000  -0.300000000
      26  -0.300000000   0.300000000   0.200000000
      27   0.600000000  -0.600000000   0.200000000
      28   0.600000000  -0.700000000   0.300000000
      29   0.500000000  -0.500000000   0.200000000
      30   0.500000000  -0.600000000   0.300000000
      31   0.400000000  -0.600000000   0.400000000
      32   0.000000000   0.000000000   0.400000000
      33   0.000000000  -0.100000000   0.500000000
      34   0.000000000  -0.200000000   0.600000000
      35   0.000000000   0.700000000  -0.300000000
      36  -0.100000000  -0.100000000   0.600000000
      37  -0.100000000   0.800000000  -0.300000000
      38  -0.200000000   0.800000000  -0.200000000
      39   0.600000000  -0.600000000   0.400000000
      40   0.500000000  -0.500000000   0.400000000
      41   0.000000000   0.000000000   0.600000000
      42   0.000000000  -0.100000000   0.700000000
      43   0.000000000   0.800000000  -0.200000000
      44  -0.100000000   0.900000000  -0.200000000
      45   0.000000000   0.000000000   0.800000000
      46   0.000000000   0.900000000  -0.100000000
      47   0.000000000   0.000000000  -1.000000000

     Calculation of q =    0.0000000  -0.2000000   0.2000000
 
     G-vector sticks info
     --------------------
     sticks:   dense  smooth     PW     G-vecs:    dense   smooth      PW
     Sum        1097     541    181                22831     8007    1553
 


     bravais-lattice index     =            3
     lattice parameter (alat)  =       6.3528  a.u.
     unit-cell volume          =     128.1952 (a.u.)^3
     number of atoms/cell      =            1
     number of atomic types    =            1
     number of electrons       =         3.00
     number of Kohn-Sham states=            6
     kinetic-energy cutoff     =      60.0000  Ry
     charge density cutoff     =     480.0000  Ry
     Exchange-correlation      =  SLA  PW   PBX  PBC ( 1  4  3  4 0 0)

     celldm(1)=   6.352831  celldm(2)=   0.000000  celldm(3)=   0.000000
     celldm(4)=   0.000000  celldm(5)=   0.000000  celldm(6)=   0.000000

     crystal axes: (cart. coord. in units of alat)
               a(1) = (   0.500000   0.500000   0.500000 )  
               a(2) = (  -0.500000   0.500000   0.500000 )  
               a(3) = (  -0.500000  -0.500000   0.500000 )  

     reciprocal axes: (cart. coord. in units 2 pi/alat)
               b(1) = (  1.000000  0.000000  1.000000 )  
               b(2) = ( -1.000000  1.000000  0.000000 )  
               b(3) = (  0.000000 -1.000000  1.000000 )  


     PseudoPot. # 1 for Li read from file:
     ../Li.pbe-s-gbrv14.UPF
     MD5 check sum: 7ca33c4f951f001da2db5c8738379802
     Pseudo is Ultrasoft, Zval =  3.0
     Generated by new atomic code, or converted to UPF format
     Using radial grid of  751 points,  5 beta functions with: 
                l(1) =   0
                l(2) =   0
                l(3) =   0
                l(4) =   1
                l(5) =   1
     Q(r) pseudized with 10 coefficients,  rinner =    1.150   1.150   1.150


     atomic species   valence    mass     pseudopotential
        Li             3.00     6.94100     Li( 1.00)

     48 Sym. Ops., with inversion, found



   Cartesian axes

     site n.     atom                  positions (alat units)
         1           Li  tau(   1) = (   0.0000000   0.0000000   0.0000000  )

     number of k points= 11760  Marzari-Vanderbilt smearing, width (Ry)=  0.0200

     Number of k-points >= 100: set verbosity='high' to print them.

     Dense  grid:    22831 G-vectors     FFT dimensions: (  40,  40,  40)

     Smooth grid:     8007 G-vectors     FFT dimensions: (  27,  27,  27)

     Largest allocated arrays     est. size (Mb)     dimensions
        Kohn-Sham Wavefunctions         0.10 Mb     (    1040,    6)
        NL pseudopotentials             0.14 Mb     (    1040,    9)
        Each V/rho on FFT grid          0.98 Mb     (   64000)
        Each G-vector array             0.17 Mb     (   22831)
        G-vector shells                 0.00 Mb     (     227)
     Largest temporary arrays     est. size (Mb)     dimensions
        Auxiliary wavefunctions         0.38 Mb     (    1040,   24)
        Each subspace H/S matrix        0.01 Mb     (      24,   24)
        Each <psi_i|beta_j> matrix      0.00 Mb     (       9,    6)

     The potential is recalculated from file :
     ./tmp/_ph0/li-bcc.save/charge-density.dat

     Starting wfc are    5 atomic +    1 random wfc

     Band Structure Calculation
     Davidson diagonalization with overlap

     ethr =  3.33E-10,  avg # of iterations = 17.2

     total cpu time spent up to now is        8.6 secs

     End of band structure calculation

     Number of k-points >= 100: set verbosity='high' to print the bands.

     the Fermi energy is     1.1626 ev

                                                                                

     bravais-lattice index     =            3
     lattice parameter (alat)  =       6.3528  a.u.
     unit-cell volume          =     128.1952 (a.u.)^3
     number of atoms/cell      =            1
     number of atomic types    =            1
     kinetic-energy cut-off    =      60.0000  Ry
     charge density cut-off    =     480.0000  Ry
     convergence threshold     =      1.0E-16
     beta                      =       0.7000
     number of iterations used =            4
     Exchange-correlation      =  SLA  PW   PBX  PBC ( 1  4  3  4 0 0)


     celldm(1)=    6.35283  celldm(2)=    0.00000  celldm(3)=    0.00000
     celldm(4)=    0.00000  celldm(5)=    0.00000  celldm(6)=    0.00000

     crystal axes: (cart. coord. in units of alat)
               a(1) = (  0.5000  0.5000  0.5000 )  
               a(2) = ( -0.5000  0.5000  0.5000 )  
               a(3) = ( -0.5000 -0.5000  0.5000 )  

     reciprocal axes: (cart. coord. in units 2 pi/alat)
               b(1) = (  1.0000  0.0000  1.0000 )  
               b(2) = ( -1.0000  1.0000  0.0000 )  
               b(3) = (  0.0000 -1.0000  1.0000 )  


     Atoms inside the unit cell: 

     Cartesian axes

     site n.  atom      mass           positions (alat units)
        1     Li   6.9410   tau(    1) = (    0.00000    0.00000    0.00000  )

     Computing dynamical matrix for 
                    q = (   0.0000000  -0.2000000   0.2000000 )
 
      4 Sym.Ops. (no q -> -q+G )


     G cutoff =  490.7001  (  22831 G-vectors)     FFT grid: ( 40, 40, 40)
     G cutoff =  245.3500  (   8007 G-vectors)  smooth grid: ( 27, 27, 27)

     number of k points= 11760  Marzari-Vanderbilt smearing, width (Ry)=  0.0200

     PseudoPot. # 1 for Li read from file:
     ../Li.pbe-s-gbrv14.UPF
     MD5 check sum: 7ca33c4f951f001da2db5c8738379802
     Pseudo is Ultrasoft, Zval =  3.0
     Generated by new atomic code, or converted to UPF format
     Using radial grid of  751 points,  5 beta functions with: 
                l(1) =   0
                l(2) =   0
                l(3) =   0
                l(4) =   1
                l(5) =   1
     Q(r) pseudized with 10 coefficients,  rinner =    1.150   1.150   1.150


     Mode symmetry, C_2v (mm2)  point group:


     Atomic displacements:
     There are   3 irreducible representations

     Representation     1      1 modes -A_1  D_1  S_1  To be done

     Representation     2      1 modes -B_1  D_3  S_3  To be done

     Representation     3      1 modes -B_2  D_4  S_4  To be done



     Alpha used in Ewald sum =   2.8000
     PHONON       :    16.34s CPU        31.46s WALL



     Representation #  1 mode #   1

     Self-consistent Calculation

      iter #   1 total cpu time :    32.0 secs   av.it.:   6.4
      thresh= 1.000E-02 alpha_mix =  0.700 |ddv_scf|^2 =  3.732E-03

      iter #   2 total cpu time :    34.0 secs   av.it.:   7.4
      thresh= 6.109E-03 alpha_mix =  0.700 |ddv_scf|^2 =  3.562E-01

      iter #   3 total cpu time :    39.9 secs   av.it.:   6.9
      thresh= 1.000E-02 alpha_mix =  0.700 |ddv_scf|^2 =  5.798E-08

      iter #   4 total cpu time :    57.1 secs   av.it.:   9.1
      thresh= 2.408E-05 alpha_mix =  0.700 |ddv_scf|^2 =  1.017E-08

      iter #   5 total cpu time :    58.2 secs   av.it.:   8.6
      thresh= 1.009E-05 alpha_mix =  0.700 |ddv_scf|^2 =  1.960E-10

      iter #   6 total cpu time :    70.2 secs   av.it.:   8.1
      thresh= 1.400E-06 alpha_mix =  0.700 |ddv_scf|^2 =  3.293E-13

      iter #   7 total cpu time :    79.7 secs   av.it.:   9.1
      thresh= 5.739E-08 alpha_mix =  0.700 |ddv_scf|^2 =  8.977E-13

      iter #   8 total cpu time :    83.1 secs   av.it.:   6.6
      thresh= 9.475E-08 alpha_mix =  0.700 |ddv_scf|^2 =  8.295E-13

      iter #   9 total cpu time :    95.0 secs   av.it.:   6.9
      thresh= 9.108E-08 alpha_mix =  0.700 |ddv_scf|^2 =  9.373E-14

      iter #  10 total cpu time :    99.1 secs   av.it.:   6.9
      thresh= 3.062E-08 alpha_mix =  0.700 |ddv_scf|^2 =  7.963E-17

     End of self-consistent calculation

     Convergence has been achieved 


     Representation #  2 mode #   2

     Self-consistent Calculation

      iter #   1 total cpu time :   106.1 secs   av.it.:   5.3
      thresh= 1.000E-02 alpha_mix =  0.700 |ddv_scf|^2 =  1.060E-06

      iter #   2 total cpu time :   106.8 secs   av.it.:   8.5
      thresh= 1.029E-04 alpha_mix =  0.700 |ddv_scf|^2 =  6.454E-08

      iter #   3 total cpu time :   107.5 secs   av.it.:   8.9
      thresh= 2.541E-05 alpha_mix =  0.700 |ddv_scf|^2 =  4.562E-10

      iter #   4 total cpu time :   108.6 secs   av.it.:   8.3
      thresh= 2.136E-06 alpha_mix =  0.700 |ddv_scf|^2 =  8.971E-13

      iter #   5 total cpu time :   109.9 secs   av.it.:   8.3
      thresh= 9.472E-08 alpha_mix =  0.700 |ddv_scf|^2 =  1.589E-14

      iter #   6 total cpu time :   113.0 secs   av.it.:   7.2
      thresh= 1.261E-08 alpha_mix =  0.700 |ddv_scf|^2 =  6.913E-18

     End of self-consistent calculation

     Convergence has been achieved 


     Representation #  3 mode #   3

     Self-consistent Calculation

      iter #   1 total cpu time :   125.6 secs   av.it.:   5.4
      thresh= 1.000E-02 alpha_mix =  0.700 |ddv_scf|^2 =  1.105E-06

      iter #   2 total cpu time :   128.2 secs   av.it.:   8.5
      thresh= 1.051E-04 alpha_mix =  0.700 |ddv_scf|^2 =  6.684E-08

      iter #   3 total cpu time :   139.2 secs   av.it.:   8.9
      thresh= 2.585E-05 alpha_mix =  0.700 |ddv_scf|^2 =  6.828E-10

      iter #   4 total cpu time :   143.9 secs   av.it.:   8.3
      thresh= 2.613E-06 alpha_mix =  0.700 |ddv_scf|^2 =  9.969E-13

      iter #   5 total cpu time :   145.6 secs   av.it.:   8.3
      thresh= 9.985E-08 alpha_mix =  0.700 |ddv_scf|^2 =  1.772E-14

      iter #   6 total cpu time :   146.6 secs   av.it.:   7.1
      thresh= 1.331E-08 alpha_mix =  0.700 |ddv_scf|^2 =  4.950E-18

     End of self-consistent calculation

     Convergence has been achieved 
 
     Number of q in the star =   12
     List of q in the star:
          1   0.000000000  -0.200000000   0.200000000
          2  -0.200000000   0.000000000   0.200000000
          3   0.200000000   0.000000000   0.200000000
          4   0.000000000   0.200000000   0.200000000
          5   0.200000000   0.200000000   0.000000000
          6  -0.200000000   0.200000000   0.000000000
          7   0.200000000  -0.200000000   0.000000000
          8  -0.200000000  -0.200000000   0.000000000
          9  -0.200000000   0.000000000  -0.200000000
         10   0.000000000   0.200000000  -0.200000000
         11   0.000000000  -0.200000000  -0.200000000
         12   0.200000000   0.000000000  -0.200000000

     Diagonalizing the dynamical matrix

     q = (    0.000000000  -0.200000000   0.200000000 ) 

 **************************************************************************
     freq (    1) =       0.887011 [THz] =      29.587497 [cm-1]
     freq (    2) =       3.447334 [THz] =     114.990688 [cm-1]
     freq (    3) =       5.982030 [THz] =     199.539035 [cm-1]
 **************************************************************************

     Mode symmetry, C_2v (mm2)  point group:

     freq (  1 -  1) =         29.6  [cm-1]   --> B_1  D_3  S_3      
     freq (  2 -  2) =        115.0  [cm-1]   --> B_2  D_4  S_4      
     freq (  3 -  3) =        199.5  [cm-1]   --> A_1  D_1  S_1      

     Calculation of q =    0.0000000  -0.3000000   0.3000000
 
     G-vector sticks info
     --------------------
     sticks:   dense  smooth     PW     G-vecs:    dense   smooth      PW
     Sum        1097     541    181                22831     8007    1601
 


     bravais-lattice index     =            3
     lattice parameter (alat)  =       6.3528  a.u.
     unit-cell volume          =     128.1952 (a.u.)^3
     number of atoms/cell      =            1
     number of atomic types    =            1
     number of electrons       =         3.00
     number of Kohn-Sham states=            6
     kinetic-energy cutoff     =      60.0000  Ry
     charge density cutoff     =     480.0000  Ry
     Exchange-correlation      =  SLA  PW   PBX  PBC ( 1  4  3  4 0 0)

     celldm(1)=   6.352831  celldm(2)=   0.000000  celldm(3)=   0.000000
     celldm(4)=   0.000000  celldm(5)=   0.000000  celldm(6)=   0.000000

     crystal axes: (cart. coord. in units of alat)
               a(1) = (   0.500000   0.500000   0.500000 )  
               a(2) = (  -0.500000   0.500000   0.500000 )  
               a(3) = (  -0.500000  -0.500000   0.500000 )  

     reciprocal axes: (cart. coord. in units 2 pi/alat)
               b(1) = (  1.000000  0.000000  1.000000 )  
               b(2) = ( -1.000000  1.000000  0.000000 )  
               b(3) = (  0.000000 -1.000000  1.000000 )  


     PseudoPot. # 1 for Li read from file:
     ../Li.pbe-s-gbrv14.UPF
     MD5 check sum: 7ca33c4f951f001da2db5c8738379802
     Pseudo is Ultrasoft, Zval =  3.0
     Generated by new atomic code, or converted to UPF format
     Using radial grid of  751 points,  5 beta functions with: 
                l(1) =   0
                l(2) =   0
                l(3) =   0
                l(4) =   1
                l(5) =   1
     Q(r) pseudized with 10 coefficients,  rinner =    1.150   1.150   1.150


     atomic species   valence    mass     pseudopotential
        Li             3.00     6.94100     Li( 1.00)

     48 Sym. Ops., with inversion, found



   Cartesian axes

     site n.     atom                  positions (alat units)
         1           Li  tau(   1) = (   0.0000000   0.0000000   0.0000000  )

     number of k points= 11760  Marzari-Vanderbilt smearing, width (Ry)=  0.0200

     Number of k-points >= 100: set verbosity='high' to print them.

     Dense  grid:    22831 G-vectors     FFT dimensions: (  40,  40,  40)

     Smooth grid:     8007 G-vectors     FFT dimensions: (  27,  27,  27)

     Largest allocated arrays     est. size (Mb)     dimensions
        Kohn-Sham Wavefunctions         0.10 Mb     (    1040,    6)
        NL pseudopotentials             0.14 Mb     (    1040,    9)
        Each V/rho on FFT grid          0.98 Mb     (   64000)
        Each G-vector array             0.17 Mb     (   22831)
        G-vector shells                 0.00 Mb     (     227)
     Largest temporary arrays     est. size (Mb)     dimensions
        Auxiliary wavefunctions         0.38 Mb     (    1040,   24)
        Each subspace H/S matrix        0.01 Mb     (      24,   24)
        Each <psi_i|beta_j> matrix      0.00 Mb     (       9,    6)

     The potential is recalculated from file :
     ./tmp/_ph0/li-bcc.save/charge-density.dat

     Starting wfc are    5 atomic +    1 random wfc

     Band Structure Calculation
     Davidson diagonalization with overlap

     ethr =  3.33E-10,  avg # of iterations = 17.2

     total cpu time spent up to now is       21.4 secs

     End of band structure calculation

     Number of k-points >= 100: set verbosity='high' to print the bands.

     the Fermi energy is     1.1626 ev

                                                                                

     bravais-lattice index     =            3
     lattice parameter (alat)  =       6.3528  a.u.
     unit-cell volume          =     128.1952 (a.u.)^3
     number of atoms/cell      =            1
     number of atomic types    =            1
     kinetic-energy cut-off    =      60.0000  Ry
     charge density cut-off    =     480.0000  Ry
     convergence threshold     =      1.0E-16
     beta                      =       0.7000
     number of iterations used =            4
     Exchange-correlation      =  SLA  PW   PBX  PBC ( 1  4  3  4 0 0)


     celldm(1)=    6.35283  celldm(2)=    0.00000  celldm(3)=    0.00000
     celldm(4)=    0.00000  celldm(5)=    0.00000  celldm(6)=    0.00000

     crystal axes: (cart. coord. in units of alat)
               a(1) = (  0.5000  0.5000  0.5000 )  
               a(2) = ( -0.5000  0.5000  0.5000 )  
               a(3) = ( -0.5000 -0.5000  0.5000 )  

     reciprocal axes: (cart. coord. in units 2 pi/alat)
               b(1) = (  1.0000  0.0000  1.0000 )  
               b(2) = ( -1.0000  1.0000  0.0000 )  
               b(3) = (  0.0000 -1.0000  1.0000 )  


     Atoms inside the unit cell: 

     Cartesian axes

     site n.  atom      mass           positions (alat units)
        1     Li   6.9410   tau(    1) = (    0.00000    0.00000    0.00000  )

     Computing dynamical matrix for 
                    q = (   0.0000000  -0.3000000   0.3000000 )
 
      4 Sym.Ops. (no q -> -q+G )


     G cutoff =  490.7001  (  22831 G-vectors)     FFT grid: ( 40, 40, 40)
     G cutoff =  245.3500  (   8007 G-vectors)  smooth grid: ( 27, 27, 27)

     number of k points= 11760  Marzari-Vanderbilt smearing, width (Ry)=  0.0200

     PseudoPot. # 1 for Li read from file:
     ../Li.pbe-s-gbrv14.UPF
     MD5 check sum: 7ca33c4f951f001da2db5c8738379802
     Pseudo is Ultrasoft, Zval =  3.0
     Generated by new atomic code, or converted to UPF format
     Using radial grid of  751 points,  5 beta functions with: 
                l(1) =   0
                l(2) =   0
                l(3) =   0
                l(4) =   1
                l(5) =   1
     Q(r) pseudized with 10 coefficients,  rinner =    1.150   1.150   1.150


     Mode symmetry, C_2v (mm2)  point group:


     Atomic displacements:
     There are   3 irreducible representations

     Representation     1      1 modes -A_1  D_1  S_1  To be done

     Representation     2      1 modes -B_1  D_3  S_3  To be done

     Representation     3      1 modes -B_2  D_4  S_4  To be done



     Alpha used in Ewald sum =   2.8000
     PHONON       :  2m 0.43s CPU     2m51.50s WALL



     Representation #  1 mode #   1

     Self-consistent Calculation

      iter #   1 total cpu time :   172.1 secs   av.it.:   6.4
      thresh= 1.000E-02 alpha_mix =  0.700 |ddv_scf|^2 =  2.649E-04

      iter #   2 total cpu time :   174.3 secs   av.it.:   7.9
      thresh= 1.627E-03 alpha_mix =  0.700 |ddv_scf|^2 =  3.388E-03

      iter #   3 total cpu time :   178.8 secs   av.it.:   6.4
      thresh= 5.821E-03 alpha_mix =  0.700 |ddv_scf|^2 =  7.901E-08

      iter #   4 total cpu time :   180.9 secs   av.it.:   8.8
      thresh= 2.811E-05 alpha_mix =  0.700 |ddv_scf|^2 =  2.686E-09

      iter #   5 total cpu time :   187.5 secs   av.it.:   8.8
      thresh= 5.183E-06 alpha_mix =  0.700 |ddv_scf|^2 =  1.618E-11

      iter #   6 total cpu time :   188.4 secs   av.it.:   8.8
      thresh= 4.022E-07 alpha_mix =  0.700 |ddv_scf|^2 =  3.076E-13

      iter #   7 total cpu time :   190.1 secs   av.it.:   9.4
      thresh= 5.546E-08 alpha_mix =  0.700 |ddv_scf|^2 =  7.097E-16

      iter #   8 total cpu time :   196.3 secs   av.it.:   9.5
      thresh= 2.664E-09 alpha_mix =  0.700 |ddv_scf|^2 =  2.585E-16

      iter #   9 total cpu time :   206.3 secs   av.it.:   7.6
      thresh= 1.608E-09 alpha_mix =  0.700 |ddv_scf|^2 =  1.012E-15

      iter #  10 total cpu time :   220.3 secs   av.it.:   7.6
      thresh= 3.181E-09 alpha_mix =  0.700 |ddv_scf|^2 =  4.734E-17

     End of self-consistent calculation

     Convergence has been achieved 


     Representation #  2 mode #   2

     Self-consistent Calculation

      iter #   1 total cpu time :   235.3 secs   av.it.:   5.4
      thresh= 1.000E-02 alpha_mix =  0.700 |ddv_scf|^2 =  1.074E-06

      iter #   2 total cpu time :   236.5 secs   av.it.:   8.5
      thresh= 1.036E-04 alpha_mix =  0.700 |ddv_scf|^2 =  6.479E-08

      iter #   3 total cpu time :   237.3 secs   av.it.:   8.9
      thresh= 2.545E-05 alpha_mix =  0.700 |ddv_scf|^2 =  5.462E-10

      iter #   4 total cpu time :   240.4 secs   av.it.:   8.2
      thresh= 2.337E-06 alpha_mix =  0.700 |ddv_scf|^2 =  8.426E-13

      iter #   5 total cpu time :   245.3 secs   av.it.:   8.4
      thresh= 9.179E-08 alpha_mix =  0.700 |ddv_scf|^2 =  1.665E-14

      iter #   6 total cpu time :   248.4 secs   av.it.:   7.3
      thresh= 1.290E-08 alpha_mix =  0.700 |ddv_scf|^2 =  7.975E-18

     End of self-consistent calculation

     Convergence has been achieved 


     Representation #  3 mode #   3

     Self-consistent Calculation

      iter #   1 total cpu time :   265.9 secs   av.it.:   5.5
      thresh= 1.000E-02 alpha_mix =  0.700 |ddv_scf|^2 =  1.161E-06

      iter #   2 total cpu time :   281.7 secs   av.it.:   8.6
      thresh= 1.077E-04 alpha_mix =  0.700 |ddv_scf|^2 =  6.931E-08

      iter #   3 total cpu time :   283.1 secs   av.it.:   8.9
      thresh= 2.633E-05 alpha_mix =  0.700 |ddv_scf|^2 =  1.015E-09

      iter #   4 total cpu time :   283.7 secs   av.it.:   8.2
      thresh= 3.187E-06 alpha_mix =  0.700 |ddv_scf|^2 =  1.132E-12

      iter #   5 total cpu time :   284.4 secs   av.it.:   8.5
      thresh= 1.064E-07 alpha_mix =  0.700 |ddv_scf|^2 =  2.072E-14

      iter #   6 total cpu time :   284.9 secs   av.it.:   7.5
      thresh= 1.439E-08 alpha_mix =  0.700 |ddv_scf|^2 =  4.466E-18

     End of self-consistent calculation

     Convergence has been achieved 
 
     Number of q in the star =   12
     List of q in the star:
          1   0.000000000  -0.300000000   0.300000000
          2  -0.300000000   0.000000000   0.300000000
          3   0.300000000   0.000000000   0.300000000
          4   0.000000000   0.300000000   0.300000000
          5   0.300000000   0.300000000   0.000000000
          6  -0.300000000   0.300000000   0.000000000
          7   0.300000000  -0.300000000   0.000000000
          8  -0.300000000  -0.300000000   0.000000000
          9  -0.300000000   0.000000000  -0.300000000
         10   0.000000000   0.300000000  -0.300000000
         11   0.000000000  -0.300000000  -0.300000000
         12   0.300000000   0.000000000  -0.300000000

     Diagonalizing the dynamical matrix

     q = (    0.000000000  -0.300000000   0.300000000 ) 

 **************************************************************************
     freq (    1) =       1.228995 [THz] =      40.994849 [cm-1]
     freq (    2) =       4.707487 [THz] =     157.024878 [cm-1]
     freq (    3) =       8.494047 [THz] =     283.330901 [cm-1]
 **************************************************************************

     Mode symmetry, C_2v (mm2)  point group:

     freq (  1 -  1) =         41.0  [cm-1]   --> B_1  D_3  S_3      
     freq (  2 -  2) =        157.0  [cm-1]   --> B_2  D_4  S_4      
     freq (  3 -  3) =        283.3  [cm-1]   --> A_1  D_1  S_1      

     Calculation of q =    0.0000000  -0.4000000   0.4000000
 
     G-vector sticks info
     --------------------
     sticks:   dense  smooth     PW     G-vecs:    dense   smooth      PW
     Sum        1097     541    197                22831     8007    1721
 


     bravais-lattice index     =            3
     lattice parameter (alat)  =       6.3528  a.u.
     unit-cell volume          =     128.1952 (a.u.)^3
     number of atoms/cell      =            1
     number of atomic types    =            1
     number of electrons       =         3.00
     number of Kohn-Sham states=            6
     kinetic-energy cutoff     =      60.0000  Ry
     charge density cutoff     =     480.0000  Ry
     Exchange-correlation      =  SLA  PW   PBX  PBC ( 1  4  3  4 0 0)

     celldm(1)=   6.352831  celldm(2)=   0.000000  celldm(3)=   0.000000
     celldm(4)=   0.000000  celldm(5)=   0.000000  celldm(6)=   0.000000

     crystal axes: (cart. coord. in units of alat)
               a(1) = (   0.500000   0.500000   0.500000 )  
               a(2) = (  -0.500000   0.500000   0.500000 )  
               a(3) = (  -0.500000  -0.500000   0.500000 )  

     reciprocal axes: (cart. coord. in units 2 pi/alat)
               b(1) = (  1.000000  0.000000  1.000000 )  
               b(2) = ( -1.000000  1.000000  0.000000 )  
               b(3) = (  0.000000 -1.000000  1.000000 )  


     PseudoPot. # 1 for Li read from file:
     ../Li.pbe-s-gbrv14.UPF
     MD5 check sum: 7ca33c4f951f001da2db5c8738379802
     Pseudo is Ultrasoft, Zval =  3.0
     Generated by new atomic code, or converted to UPF format
     Using radial grid of  751 points,  5 beta functions with: 
                l(1) =   0
                l(2) =   0
                l(3) =   0
                l(4) =   1
                l(5) =   1
     Q(r) pseudized with 10 coefficients,  rinner =    1.150   1.150   1.150


     atomic species   valence    mass     pseudopotential
        Li             3.00     6.94100     Li( 1.00)

     48 Sym. Ops., with inversion, found



   Cartesian axes

     site n.     atom                  positions (alat units)
         1           Li  tau(   1) = (   0.0000000   0.0000000   0.0000000  )

     number of k points= 11760  Marzari-Vanderbilt smearing, width (Ry)=  0.0200

     Number of k-points >= 100: set verbosity='high' to print them.

     Dense  grid:    22831 G-vectors     FFT dimensions: (  40,  40,  40)

     Smooth grid:     8007 G-vectors     FFT dimensions: (  27,  27,  27)

     Largest allocated arrays     est. size (Mb)     dimensions
        Kohn-Sham Wavefunctions         0.10 Mb     (    1040,    6)
        NL pseudopotentials             0.14 Mb     (    1040,    9)
        Each V/rho on FFT grid          0.98 Mb     (   64000)
        Each G-vector array             0.17 Mb     (   22831)
        G-vector shells                 0.00 Mb     (     227)
     Largest temporary arrays     est. size (Mb)     dimensions
        Auxiliary wavefunctions         0.38 Mb     (    1040,   24)
        Each subspace H/S matrix        0.01 Mb     (      24,   24)
        Each <psi_i|beta_j> matrix      0.00 Mb     (       9,    6)

     The potential is recalculated from file :
     ./tmp/_ph0/li-bcc.save/charge-density.dat

     Starting wfc are    5 atomic +    1 random wfc

     Band Structure Calculation
     Davidson diagonalization with overlap

     ethr =  3.33E-10,  avg # of iterations = 17.1

     total cpu time spent up to now is       29.7 secs

     End of band structure calculation

     Number of k-points >= 100: set verbosity='high' to print the bands.

     the Fermi energy is     1.1626 ev

                                                                                

     bravais-lattice index     =            3
     lattice parameter (alat)  =       6.3528  a.u.
     unit-cell volume          =     128.1952 (a.u.)^3
     number of atoms/cell      =            1
     number of atomic types    =            1
     kinetic-energy cut-off    =      60.0000  Ry
     charge density cut-off    =     480.0000  Ry
     convergence threshold     =      1.0E-16
     beta                      =       0.7000
     number of iterations used =            4
     Exchange-correlation      =  SLA  PW   PBX  PBC ( 1  4  3  4 0 0)


     celldm(1)=    6.35283  celldm(2)=    0.00000  celldm(3)=    0.00000
     celldm(4)=    0.00000  celldm(5)=    0.00000  celldm(6)=    0.00000

     crystal axes: (cart. coord. in units of alat)
               a(1) = (  0.5000  0.5000  0.5000 )  
               a(2) = ( -0.5000  0.5000  0.5000 )  
               a(3) = ( -0.5000 -0.5000  0.5000 )  

     reciprocal axes: (cart. coord. in units 2 pi/alat)
               b(1) = (  1.0000  0.0000  1.0000 )  
               b(2) = ( -1.0000  1.0000  0.0000 )  
               b(3) = (  0.0000 -1.0000  1.0000 )  


     Atoms inside the unit cell: 

     Cartesian axes

     site n.  atom      mass           positions (alat units)
        1     Li   6.9410   tau(    1) = (    0.00000    0.00000    0.00000  )

     Computing dynamical matrix for 
                    q = (   0.0000000  -0.4000000   0.4000000 )
 
      4 Sym.Ops. (no q -> -q+G )


     G cutoff =  490.7001  (  22831 G-vectors)     FFT grid: ( 40, 40, 40)
     G cutoff =  245.3500  (   8007 G-vectors)  smooth grid: ( 27, 27, 27)

     number of k points= 11760  Marzari-Vanderbilt smearing, width (Ry)=  0.0200

     PseudoPot. # 1 for Li read from file:
     ../Li.pbe-s-gbrv14.UPF
     MD5 check sum: 7ca33c4f951f001da2db5c8738379802
     Pseudo is Ultrasoft, Zval =  3.0
     Generated by new atomic code, or converted to UPF format
     Using radial grid of  751 points,  5 beta functions with: 
                l(1) =   0
                l(2) =   0
                l(3) =   0
                l(4) =   1
                l(5) =   1
     Q(r) pseudized with 10 coefficients,  rinner =    1.150   1.150   1.150


     Mode symmetry, C_2v (mm2)  point group:


     Atomic displacements:
     There are   3 irreducible representations

     Representation     1      1 modes -A_1  D_1  S_1  To be done

     Representation     2      1 modes -B_1  D_3  S_3  To be done

     Representation     3      1 modes -B_2  D_4  S_4  To be done



     Alpha used in Ewald sum =   2.8000
     PHONON       :  3m44.12s CPU     4m57.08s WALL



     Representation #  1 mode #   1

     Self-consistent Calculation

      iter #   1 total cpu time :   297.7 secs   av.it.:   6.3
      thresh= 1.000E-02 alpha_mix =  0.700 |ddv_scf|^2 =  3.883E-05

      iter #   2 total cpu time :   300.1 secs   av.it.:   8.5
      thresh= 6.231E-04 alpha_mix =  0.700 |ddv_scf|^2 =  8.395E-05

      iter #   3 total cpu time :   301.8 secs   av.it.:   7.2
      thresh= 9.163E-04 alpha_mix =  0.700 |ddv_scf|^2 =  6.588E-08

      iter #   4 total cpu time :   303.9 secs   av.it.:   8.7
      thresh= 2.567E-05 alpha_mix =  0.700 |ddv_scf|^2 =  3.583E-09

      iter #   5 total cpu time :   312.8 secs   av.it.:   8.7
      thresh= 5.986E-06 alpha_mix =  0.700 |ddv_scf|^2 =  4.200E-12

      iter #   6 total cpu time :   321.8 secs   av.it.:   8.9
      thresh= 2.049E-07 alpha_mix =  0.700 |ddv_scf|^2 =  2.022E-13

      iter #   7 total cpu time :   322.5 secs   av.it.:   8.8
      thresh= 4.496E-08 alpha_mix =  0.700 |ddv_scf|^2 =  9.872E-16

      iter #   8 total cpu time :   323.1 secs   av.it.:   9.4
      thresh= 3.142E-09 alpha_mix =  0.700 |ddv_scf|^2 =  1.316E-16

      iter #   9 total cpu time :   325.1 secs   av.it.:   8.2
      thresh= 1.147E-09 alpha_mix =  0.700 |ddv_scf|^2 =  3.568E-17

     End of self-consistent calculation

     Convergence has been achieved 


     Representation #  2 mode #   2

     Self-consistent Calculation

      iter #   1 total cpu time :   330.7 secs   av.it.:   5.5
      thresh= 1.000E-02 alpha_mix =  0.700 |ddv_scf|^2 =  1.087E-06

      iter #   2 total cpu time :   333.1 secs   av.it.:   8.6
      thresh= 1.043E-04 alpha_mix =  0.700 |ddv_scf|^2 =  6.501E-08

      iter #   3 total cpu time :   342.8 secs   av.it.:   8.9
      thresh= 2.550E-05 alpha_mix =  0.700 |ddv_scf|^2 =  6.384E-10

      iter #   4 total cpu time :   349.6 secs   av.it.:   8.1
      thresh= 2.527E-06 alpha_mix =  0.700 |ddv_scf|^2 =  7.974E-13

      iter #   5 total cpu time :   353.9 secs   av.it.:   8.5
      thresh= 8.930E-08 alpha_mix =  0.700 |ddv_scf|^2 =  1.750E-14

      iter #   6 total cpu time :   354.6 secs   av.it.:   7.7
      thresh= 1.323E-08 alpha_mix =  0.700 |ddv_scf|^2 =  8.270E-18

     End of self-consistent calculation

     Convergence has been achieved 


     Representation #  3 mode #   3

     Self-consistent Calculation

      iter #   1 total cpu time :   357.7 secs   av.it.:   5.6
      thresh= 1.000E-02 alpha_mix =  0.700 |ddv_scf|^2 =  1.208E-06

      iter #   2 total cpu time :   364.3 secs   av.it.:   8.6
      thresh= 1.099E-04 alpha_mix =  0.700 |ddv_scf|^2 =  7.144E-08

      iter #   3 total cpu time :   372.9 secs   av.it.:   8.9
      thresh= 2.673E-05 alpha_mix =  0.700 |ddv_scf|^2 =  1.332E-09

      iter #   4 total cpu time :   376.7 secs   av.it.:   8.1
      thresh= 3.650E-06 alpha_mix =  0.700 |ddv_scf|^2 =  1.265E-12

      iter #   5 total cpu time :   392.9 secs   av.it.:   8.5
      thresh= 1.125E-07 alpha_mix =  0.700 |ddv_scf|^2 =  2.139E-14

      iter #   6 total cpu time :   396.1 secs   av.it.:   7.7
      thresh= 1.463E-08 alpha_mix =  0.700 |ddv_scf|^2 =  3.794E-18

     End of self-consistent calculation

     Convergence has been achieved 
 
     Number of q in the star =   12
     List of q in the star:
          1   0.000000000  -0.400000000   0.400000000
          2  -0.400000000   0.000000000   0.400000000
          3   0.400000000   0.000000000   0.400000000
          4   0.000000000   0.400000000   0.400000000
          5   0.400000000   0.400000000   0.000000000
          6  -0.400000000   0.400000000   0.000000000
          7   0.400000000  -0.400000000   0.000000000
          8  -0.400000000  -0.400000000   0.000000000
          9  -0.400000000   0.000000000  -0.400000000
         10   0.000000000   0.400000000  -0.400000000
         11   0.000000000  -0.400000000  -0.400000000
         12   0.400000000   0.000000000  -0.400000000

     Diagonalizing the dynamical matrix

     q = (    0.000000000  -0.400000000   0.400000000 ) 

 **************************************************************************
     freq (    1) =       1.495257 [THz] =      49.876410 [cm-1]
     freq (    2) =       5.518516 [THz] =     184.077882 [cm-1]
     freq (    3) =       9.994781 [THz] =     333.390002 [cm-1]
 **************************************************************************

     Mode symmetry, C_2v (mm2)  point group:

     freq (  1 -  1) =         49.9  [cm-1]   --> B_1  D_3  S_3      
     freq (  2 -  2) =        184.1  [cm-1]   --> B_2  D_4  S_4      
     freq (  3 -  3) =        333.4  [cm-1]   --> A_1  D_1  S_1      

     Calculation of q =    0.0000000   0.5000000  -0.5000000
 
     G-vector sticks info
     --------------------
     sticks:   dense  smooth     PW     G-vecs:    dense   smooth      PW
     Sum        1097     541    201                22831     8007    1745
 


     bravais-lattice index     =            3
     lattice parameter (alat)  =       6.3528  a.u.
     unit-cell volume          =     128.1952 (a.u.)^3
     number of atoms/cell      =            1
     number of atomic types    =            1
     number of electrons       =         3.00
     number of Kohn-Sham states=            6
     kinetic-energy cutoff     =      60.0000  Ry
     charge density cutoff     =     480.0000  Ry
     Exchange-correlation      =  SLA  PW   PBX  PBC ( 1  4  3  4 0 0)

     celldm(1)=   6.352831  celldm(2)=   0.000000  celldm(3)=   0.000000
     celldm(4)=   0.000000  celldm(5)=   0.000000  celldm(6)=   0.000000

     crystal axes: (cart. coord. in units of alat)
               a(1) = (   0.500000   0.500000   0.500000 )  
               a(2) = (  -0.500000   0.500000   0.500000 )  
               a(3) = (  -0.500000  -0.500000   0.500000 )  

     reciprocal axes: (cart. coord. in units 2 pi/alat)
               b(1) = (  1.000000  0.000000  1.000000 )  
               b(2) = ( -1.000000  1.000000  0.000000 )  
               b(3) = (  0.000000 -1.000000  1.000000 )  


     PseudoPot. # 1 for Li read from file:
     ../Li.pbe-s-gbrv14.UPF
     MD5 check sum: 7ca33c4f951f001da2db5c8738379802
     Pseudo is Ultrasoft, Zval =  3.0
     Generated by new atomic code, or converted to UPF format
     Using radial grid of  751 points,  5 beta functions with: 
                l(1) =   0
                l(2) =   0
                l(3) =   0
                l(4) =   1
                l(5) =   1
     Q(r) pseudized with 10 coefficients,  rinner =    1.150   1.150   1.150


     atomic species   valence    mass     pseudopotential
        Li             3.00     6.94100     Li( 1.00)

     48 Sym. Ops., with inversion, found



   Cartesian axes

     site n.     atom                  positions (alat units)
         1           Li  tau(   1) = (   0.0000000   0.0000000   0.0000000  )

     number of k points=  6090  Marzari-Vanderbilt smearing, width (Ry)=  0.0200

     Number of k-points >= 100: set verbosity='high' to print them.

     Dense  grid:    22831 G-vectors     FFT dimensions: (  40,  40,  40)

     Smooth grid:     8007 G-vectors     FFT dimensions: (  27,  27,  27)

     Largest allocated arrays     est. size (Mb)     dimensions
        Kohn-Sham Wavefunctions         0.09 Mb     (    1032,    6)
        NL pseudopotentials             0.14 Mb     (    1032,    9)
        Each V/rho on FFT grid          0.98 Mb     (   64000)
        Each G-vector array             0.17 Mb     (   22831)
        G-vector shells                 0.00 Mb     (     227)
     Largest temporary arrays     est. size (Mb)     dimensions
        Auxiliary wavefunctions         0.38 Mb     (    1032,   24)
        Each subspace H/S matrix        0.01 Mb     (      24,   24)
        Each <psi_i|beta_j> matrix      0.00 Mb     (       9,    6)

     The potential is recalculated from file :
     ./tmp/_ph0/li-bcc.save/charge-density.dat

     Starting wfc are    5 atomic +    1 random wfc

     Band Structure Calculation
     Davidson diagonalization with overlap

     ethr =  3.33E-10,  avg # of iterations = 17.1

     total cpu time spent up to now is       36.0 secs

     End of band structure calculation

     Number of k-points >= 100: set verbosity='high' to print the bands.

     the Fermi energy is     1.1626 ev

                                                                                

     bravais-lattice index     =            3
     lattice parameter (alat)  =       6.3528  a.u.
     unit-cell volume          =     128.1952 (a.u.)^3
     number of atoms/cell      =            1
     number of atomic types    =            1
     kinetic-energy cut-off    =      60.0000  Ry
     charge density cut-off    =     480.0000  Ry
     convergence threshold     =      1.0E-16
     beta                      =       0.7000
     number of iterations used =            4
     Exchange-correlation      =  SLA  PW   PBX  PBC ( 1  4  3  4 0 0)


     celldm(1)=    6.35283  celldm(2)=    0.00000  celldm(3)=    0.00000
     celldm(4)=    0.00000  celldm(5)=    0.00000  celldm(6)=    0.00000

     crystal axes: (cart. coord. in units of alat)
               a(1) = (  0.5000  0.5000  0.5000 )  
               a(2) = ( -0.5000  0.5000  0.5000 )  
               a(3) = ( -0.5000 -0.5000  0.5000 )  

     reciprocal axes: (cart. coord. in units 2 pi/alat)
               b(1) = (  1.0000  0.0000  1.0000 )  
               b(2) = ( -1.0000  1.0000  0.0000 )  
               b(3) = (  0.0000 -1.0000  1.0000 )  


     Atoms inside the unit cell: 

     Cartesian axes

     site n.  atom      mass           positions (alat units)
        1     Li   6.9410   tau(    1) = (    0.00000    0.00000    0.00000  )

     Computing dynamical matrix for 
                    q = (   0.0000000   0.5000000  -0.5000000 )
 
      9 Sym.Ops. (with q -> -q+G )


     G cutoff =  490.7001  (  22831 G-vectors)     FFT grid: ( 40, 40, 40)
     G cutoff =  245.3500  (   8007 G-vectors)  smooth grid: ( 27, 27, 27)

     number of k points=  6090  Marzari-Vanderbilt smearing, width (Ry)=  0.0200

     PseudoPot. # 1 for Li read from file:
     ../Li.pbe-s-gbrv14.UPF
     MD5 check sum: 7ca33c4f951f001da2db5c8738379802
     Pseudo is Ultrasoft, Zval =  3.0
     Generated by new atomic code, or converted to UPF format
     Using radial grid of  751 points,  5 beta functions with: 
                l(1) =   0
                l(2) =   0
                l(3) =   0
                l(4) =   1
                l(5) =   1
     Q(r) pseudized with 10 coefficients,  rinner =    1.150   1.150   1.150


     Mode symmetry, D_2h (mmm)  point group:


     Atomic displacements:
     There are   3 irreducible representations

     Representation     1      1 modes -B_1u  To be done

     Representation     2      1 modes -B_2u  To be done

     Representation     3      1 modes -B_3u  To be done



     Alpha used in Ewald sum =   2.8000
     PHONON       :  5m23.19s CPU     7m 4.37s WALL



     Representation #  1 mode #   1

     Self-consistent Calculation

      iter #   1 total cpu time :   424.7 secs   av.it.:   5.7
      thresh= 1.000E-02 alpha_mix =  0.700 |ddv_scf|^2 =  1.227E-06

      iter #   2 total cpu time :   428.0 secs   av.it.:   8.6
      thresh= 1.108E-04 alpha_mix =  0.700 |ddv_scf|^2 =  7.227E-08

      iter #   3 total cpu time :   430.2 secs   av.it.:   8.8
      thresh= 2.688E-05 alpha_mix =  0.700 |ddv_scf|^2 =  1.464E-09

      iter #   4 total cpu time :   440.1 secs   av.it.:   8.1
      thresh= 3.826E-06 alpha_mix =  0.700 |ddv_scf|^2 =  1.323E-12

      iter #   5 total cpu time :   447.0 secs   av.it.:   8.4
      thresh= 1.150E-07 alpha_mix =  0.700 |ddv_scf|^2 =  2.157E-14

      iter #   6 total cpu time :   452.6 secs   av.it.:   7.8
      thresh= 1.469E-08 alpha_mix =  0.700 |ddv_scf|^2 =  3.484E-18

     End of self-consistent calculation

     Convergence has been achieved 


     Representation #  2 mode #   2

     Self-consistent Calculation

      iter #   1 total cpu time :   455.9 secs   av.it.:   5.5
      thresh= 1.000E-02 alpha_mix =  0.700 |ddv_scf|^2 =  1.092E-06

      iter #   2 total cpu time :   457.6 secs   av.it.:   8.6
      thresh= 1.045E-04 alpha_mix =  0.700 |ddv_scf|^2 =  6.509E-08

      iter #   3 total cpu time :   462.8 secs   av.it.:   8.9
      thresh= 2.551E-05 alpha_mix =  0.700 |ddv_scf|^2 =  6.781E-10

      iter #   4 total cpu time :   467.8 secs   av.it.:   8.0
      thresh= 2.604E-06 alpha_mix =  0.700 |ddv_scf|^2 =  7.777E-13

      iter #   5 total cpu time :   472.0 secs   av.it.:   8.4
      thresh= 8.819E-08 alpha_mix =  0.700 |ddv_scf|^2 =  1.776E-14

      iter #   6 total cpu time :   474.0 secs   av.it.:   7.7
      thresh= 1.333E-08 alpha_mix =  0.700 |ddv_scf|^2 =  8.060E-18

     End of self-consistent calculation

     Convergence has been achieved 


     Representation #  3 mode #   3

     Self-consistent Calculation

      iter #   1 total cpu time :   485.7 secs   av.it.:   6.2
      thresh= 1.000E-02 alpha_mix =  0.700 |ddv_scf|^2 =  1.499E-05

      iter #   2 total cpu time :   495.5 secs   av.it.:   8.4
      thresh= 3.872E-04 alpha_mix =  0.700 |ddv_scf|^2 =  5.165E-06

      iter #   3 total cpu time :   503.7 secs   av.it.:   7.8
      thresh= 2.273E-04 alpha_mix =  0.700 |ddv_scf|^2 =  1.920E-08

      iter #   4 total cpu time :   515.2 secs   av.it.:   8.6
      thresh= 1.386E-05 alpha_mix =  0.700 |ddv_scf|^2 =  1.054E-11

      iter #   5 total cpu time :   516.1 secs   av.it.:   8.3
      thresh= 3.246E-07 alpha_mix =  0.700 |ddv_scf|^2 =  5.985E-13

      iter #   6 total cpu time :   516.9 secs   av.it.:   8.4
      thresh= 7.736E-08 alpha_mix =  0.700 |ddv_scf|^2 =  3.091E-15

      iter #   7 total cpu time :   518.1 secs   av.it.:   8.5
      thresh= 5.559E-09 alpha_mix =  0.700 |ddv_scf|^2 =  3.313E-18

     End of self-consistent calculation

     Convergence has been achieved 
 
     Number of q in the star =    6
     List of q in the star:
          1   0.000000000   0.500000000  -0.500000000
          2  -0.500000000  -0.500000000   0.000000000
          3   0.500000000  -0.500000000   0.000000000
          4   0.500000000   0.000000000   0.500000000
          5   0.500000000   0.000000000  -0.500000000
          6   0.000000000  -0.500000000  -0.500000000

     Diagonalizing the dynamical matrix

     q = (    0.000000000   0.500000000  -0.500000000 ) 

 **************************************************************************
     freq (    1) =       1.603071 [THz] =      53.472709 [cm-1]
     freq (    2) =       5.802145 [THz] =     193.538723 [cm-1]
     freq (    3) =      10.492874 [THz] =     350.004601 [cm-1]
 **************************************************************************

     Mode symmetry, D_2h (mmm)  point group:

     freq (  1 -  1) =         53.5  [cm-1]   --> B_2u               
     freq (  2 -  2) =        193.5  [cm-1]   --> B_1u               
     freq (  3 -  3) =        350.0  [cm-1]   --> B_3u               

     Calculation of q =   -0.1000000  -0.1000000   0.2000000
 
     G-vector sticks info
     --------------------
     sticks:   dense  smooth     PW     G-vecs:    dense   smooth      PW
     Sum        1097     541    173                22831     8007    1505
 


     bravais-lattice index     =            3
     lattice parameter (alat)  =       6.3528  a.u.
     unit-cell volume          =     128.1952 (a.u.)^3
     number of atoms/cell      =            1
     number of atomic types    =            1
     number of electrons       =         3.00
     number of Kohn-Sham states=            6
     kinetic-energy cutoff     =      60.0000  Ry
     charge density cutoff     =     480.0000  Ry
     Exchange-correlation      =  SLA  PW   PBX  PBC ( 1  4  3  4 0 0)

     celldm(1)=   6.352831  celldm(2)=   0.000000  celldm(3)=   0.000000
     celldm(4)=   0.000000  celldm(5)=   0.000000  celldm(6)=   0.000000

     crystal axes: (cart. coord. in units of alat)
               a(1) = (   0.500000   0.500000   0.500000 )  
               a(2) = (  -0.500000   0.500000   0.500000 )  
               a(3) = (  -0.500000  -0.500000   0.500000 )  

     reciprocal axes: (cart. coord. in units 2 pi/alat)
               b(1) = (  1.000000  0.000000  1.000000 )  
               b(2) = ( -1.000000  1.000000  0.000000 )  
               b(3) = (  0.000000 -1.000000  1.000000 )  


     PseudoPot. # 1 for Li read from file:
     ../Li.pbe-s-gbrv14.UPF
     MD5 check sum: 7ca33c4f951f001da2db5c8738379802
     Pseudo is Ultrasoft, Zval =  3.0
     Generated by new atomic code, or converted to UPF format
     Using radial grid of  751 points,  5 beta functions with: 
                l(1) =   0
                l(2) =   0
                l(3) =   0
                l(4) =   1
                l(5) =   1
     Q(r) pseudized with 10 coefficients,  rinner =    1.150   1.150   1.150


     atomic species   valence    mass     pseudopotential
        Li             3.00     6.94100     Li( 1.00)

     48 Sym. Ops., with inversion, found



   Cartesian axes

     site n.     atom                  positions (alat units)
         1           Li  tau(   1) = (   0.0000000   0.0000000   0.0000000  )

     number of k points= 22736  Marzari-Vanderbilt smearing, width (Ry)=  0.0200

     Number of k-points >= 100: set verbosity='high' to print them.

     Dense  grid:    22831 G-vectors     FFT dimensions: (  40,  40,  40)

     Smooth grid:     8007 G-vectors     FFT dimensions: (  27,  27,  27)

     Largest allocated arrays     est. size (Mb)     dimensions
        Kohn-Sham Wavefunctions         0.10 Mb     (    1046,    6)
        NL pseudopotentials             0.14 Mb     (    1046,    9)
        Each V/rho on FFT grid          0.98 Mb     (   64000)
        Each G-vector array             0.17 Mb     (   22831)
        G-vector shells                 0.00 Mb     (     227)
     Largest temporary arrays     est. size (Mb)     dimensions
        Auxiliary wavefunctions         0.38 Mb     (    1046,   24)
        Each subspace H/S matrix        0.01 Mb     (      24,   24)
        Each <psi_i|beta_j> matrix      0.00 Mb     (       9,    6)

     The potential is recalculated from file :
     ./tmp/_ph0/li-bcc.save/charge-density.dat

     Starting wfc are    5 atomic +    1 random wfc

     Band Structure Calculation
     Davidson diagonalization with overlap

     ethr =  3.33E-10,  avg # of iterations = 17.2

     total cpu time spent up to now is       48.6 secs

     End of band structure calculation

     Number of k-points >= 100: set verbosity='high' to print the bands.

     the Fermi energy is     1.1626 ev

                                                                                

     bravais-lattice index     =            3
     lattice parameter (alat)  =       6.3528  a.u.
     unit-cell volume          =     128.1952 (a.u.)^3
     number of atoms/cell      =            1
     number of atomic types    =            1
     kinetic-energy cut-off    =      60.0000  Ry
     charge density cut-off    =     480.0000  Ry
     convergence threshold     =      1.0E-16
     beta                      =       0.7000
     number of iterations used =            4
     Exchange-correlation      =  SLA  PW   PBX  PBC ( 1  4  3  4 0 0)


     celldm(1)=    6.35283  celldm(2)=    0.00000  celldm(3)=    0.00000
     celldm(4)=    0.00000  celldm(5)=    0.00000  celldm(6)=    0.00000

     crystal axes: (cart. coord. in units of alat)
               a(1) = (  0.5000  0.5000  0.5000 )  
               a(2) = ( -0.5000  0.5000  0.5000 )  
               a(3) = ( -0.5000 -0.5000  0.5000 )  

     reciprocal axes: (cart. coord. in units 2 pi/alat)
               b(1) = (  1.0000  0.0000  1.0000 )  
               b(2) = ( -1.0000  1.0000  0.0000 )  
               b(3) = (  0.0000 -1.0000  1.0000 )  


     Atoms inside the unit cell: 

     Cartesian axes

     site n.  atom      mass           positions (alat units)
        1     Li   6.9410   tau(    1) = (    0.00000    0.00000    0.00000  )

     Computing dynamical matrix for 
                    q = (  -0.1000000  -0.1000000   0.2000000 )
 
      2 Sym.Ops. (no q -> -q+G )


     G cutoff =  490.7001  (  22831 G-vectors)     FFT grid: ( 40, 40, 40)
     G cutoff =  245.3500  (   8007 G-vectors)  smooth grid: ( 27, 27, 27)

     number of k points= 22736  Marzari-Vanderbilt smearing, width (Ry)=  0.0200

     PseudoPot. # 1 for Li read from file:
     ../Li.pbe-s-gbrv14.UPF
     MD5 check sum: 7ca33c4f951f001da2db5c8738379802
     Pseudo is Ultrasoft, Zval =  3.0
     Generated by new atomic code, or converted to UPF format
     Using radial grid of  751 points,  5 beta functions with: 
                l(1) =   0
                l(2) =   0
                l(3) =   0
                l(4) =   1
                l(5) =   1
     Q(r) pseudized with 10 coefficients,  rinner =    1.150   1.150   1.150


     Mode symmetry, C_s (m)     point group:


     Atomic displacements:
     There are   3 irreducible representations

     Representation     1      1 modes -A'  To be done

     Representation     2      1 modes -A'  To be done

     Representation     3      1 modes -A''  To be done



     Alpha used in Ewald sum =   2.8000
     PHONON       :  6m52.87s CPU     9m 5.11s WALL



     Representation #  1 mode #   1

     Self-consistent Calculation

      iter #   1 total cpu time :   546.0 secs   av.it.:   6.0
      thresh= 1.000E-02 alpha_mix =  0.700 |ddv_scf|^2 =  9.374E-04

      iter #   2 total cpu time :   550.3 secs   av.it.:   7.4
      thresh= 3.062E-03 alpha_mix =  0.700 |ddv_scf|^2 =  1.743E-01

      iter #   3 total cpu time :   553.4 secs   av.it.:   6.1
      thresh= 1.000E-02 alpha_mix =  0.700 |ddv_scf|^2 =  1.545E-07

      iter #   4 total cpu time :   566.1 secs   av.it.:   8.8
      thresh= 3.930E-05 alpha_mix =  0.700 |ddv_scf|^2 =  4.722E-09

      iter #   5 total cpu time :   568.1 secs   av.it.:   8.9
      thresh= 6.872E-06 alpha_mix =  0.700 |ddv_scf|^2 =  5.613E-11

      iter #   6 total cpu time :   570.3 secs   av.it.:   8.5
      thresh= 7.492E-07 alpha_mix =  0.700 |ddv_scf|^2 =  2.567E-11

      iter #   7 total cpu time :   573.1 secs   av.it.:   5.5
      thresh= 5.067E-07 alpha_mix =  0.700 |ddv_scf|^2 =  3.175E-11

      iter #   8 total cpu time :   574.9 secs   av.it.:   6.0
      thresh= 5.635E-07 alpha_mix =  0.700 |ddv_scf|^2 =  7.879E-14

      iter #   9 total cpu time :   577.0 secs   av.it.:   7.1
      thresh= 2.807E-08 alpha_mix =  0.700 |ddv_scf|^2 =  3.276E-15

      iter #  10 total cpu time :   589.9 secs   av.it.:   7.7
      thresh= 5.724E-09 alpha_mix =  0.700 |ddv_scf|^2 =  3.782E-18

     End of self-consistent calculation

     Convergence has been achieved 


     Representation #  2 mode #   2

     Self-consistent Calculation

      iter #   1 total cpu time :   593.0 secs   av.it.:   6.3
      thresh= 1.000E-02 alpha_mix =  0.700 |ddv_scf|^2 =  8.486E-03

      iter #   2 total cpu time :   604.6 secs   av.it.:   7.2
      thresh= 9.212E-03 alpha_mix =  0.700 |ddv_scf|^2 =  1.579E+00

      iter #   3 total cpu time :   606.4 secs   av.it.:   7.0
      thresh= 1.000E-02 alpha_mix =  0.700 |ddv_scf|^2 =  1.081E-06

      iter #   4 total cpu time :   608.0 secs   av.it.:   8.0
      thresh= 1.040E-04 alpha_mix =  0.700 |ddv_scf|^2 =  1.890E-08

      iter #   5 total cpu time :   613.7 secs   av.it.:   8.6
      thresh= 1.375E-05 alpha_mix =  0.700 |ddv_scf|^2 =  2.625E-10

[...]
        1     Li   6.9410   tau(    1) = (    0.00000    0.00000    0.00000  )

     Computing dynamical matrix for 
                    q = (   0.0000000   0.9000000  -0.1000000 )
 
      4 Sym.Ops. (no q -> -q+G )


     G cutoff =  490.7001  (  22831 G-vectors)     FFT grid: ( 40, 40, 40)
     G cutoff =  245.3500  (   8007 G-vectors)  smooth grid: ( 27, 27, 27)

     number of k points= 11760  Marzari-Vanderbilt smearing, width (Ry)=  0.0200

     PseudoPot. # 1 for Li read from file:
     ../Li.pbe-s-gbrv14.UPF
     MD5 check sum: 7ca33c4f951f001da2db5c8738379802
     Pseudo is Ultrasoft, Zval =  3.0
     Generated by new atomic code, or converted to UPF format
     Using radial grid of  751 points,  5 beta functions with: 
                l(1) =   0
                l(2) =   0
                l(3) =   0
                l(4) =   1
                l(5) =   1
     Q(r) pseudized with 10 coefficients,  rinner =    1.150   1.150   1.150


     Mode symmetry, C_2v (mm2)  point group:


     Atomic displacements:
     There are   3 irreducible representations

     Representation     1      1 modes -A_1  D_1  S_1  To be done

     Representation     2      1 modes -B_1  D_3  S_3  To be done

     Representation     3      1 modes -B_2  D_4  S_4  To be done



     Alpha used in Ewald sum =   2.8000
     PHONON       : 33m 4.06s CPU    39m58.80s WALL



     Representation #  1 mode #   1

     Self-consistent Calculation

      iter #   1 total cpu time :  2399.4 secs   av.it.:   6.2
      thresh= 1.000E-02 alpha_mix =  0.700 |ddv_scf|^2 =  2.224E-06

      iter #   2 total cpu time :  2402.9 secs   av.it.:   8.8
      thresh= 1.491E-04 alpha_mix =  0.700 |ddv_scf|^2 =  9.421E-08

      iter #   3 total cpu time :  2405.7 secs   av.it.:   8.7
      thresh= 3.069E-05 alpha_mix =  0.700 |ddv_scf|^2 =  6.428E-09

      iter #   4 total cpu time :  2407.9 secs   av.it.:   8.7
      thresh= 8.018E-06 alpha_mix =  0.700 |ddv_scf|^2 =  6.422E-11

      iter #   5 total cpu time :  2410.1 secs   av.it.:   8.9
      thresh= 8.014E-07 alpha_mix =  0.700 |ddv_scf|^2 =  2.115E-13

      iter #   6 total cpu time :  2419.6 secs   av.it.:   9.5
      thresh= 4.599E-08 alpha_mix =  0.700 |ddv_scf|^2 =  2.331E-15

      iter #   7 total cpu time :  2436.8 secs   av.it.:   9.4
      thresh= 4.828E-09 alpha_mix =  0.700 |ddv_scf|^2 =  1.203E-16

      iter #   8 total cpu time :  2446.8 secs   av.it.:   9.3
      thresh= 1.097E-09 alpha_mix =  0.700 |ddv_scf|^2 =  2.738E-19

     End of self-consistent calculation

     Convergence has been achieved 


     Representation #  2 mode #   2

     Self-consistent Calculation

      iter #   1 total cpu time :  2449.2 secs   av.it.:   6.1
      thresh= 1.000E-02 alpha_mix =  0.700 |ddv_scf|^2 =  2.665E-06

      iter #   2 total cpu time :  2449.8 secs   av.it.:   8.7
      thresh= 1.633E-04 alpha_mix =  0.700 |ddv_scf|^2 =  1.059E-07

      iter #   3 total cpu time :  2450.7 secs   av.it.:   8.5
      thresh= 3.254E-05 alpha_mix =  0.700 |ddv_scf|^2 =  7.289E-09

      iter #   4 total cpu time :  2451.4 secs   av.it.:   8.5
      thresh= 8.537E-06 alpha_mix =  0.700 |ddv_scf|^2 =  7.577E-11

      iter #   5 total cpu time :  2452.0 secs   av.it.:   8.6
      thresh= 8.705E-07 alpha_mix =  0.700 |ddv_scf|^2 =  6.191E-14

      iter #   6 total cpu time :  2453.4 secs   av.it.:   8.4
      thresh= 2.488E-08 alpha_mix =  0.700 |ddv_scf|^2 =  6.768E-16

      iter #   7 total cpu time :  2456.5 secs   av.it.:   8.3
      thresh= 2.602E-09 alpha_mix =  0.700 |ddv_scf|^2 =  7.486E-18

     End of self-consistent calculation

     Convergence has been achieved 


     Representation #  3 mode #   3

     Self-consistent Calculation

      iter #   1 total cpu time :  2458.7 secs   av.it.:   6.0
      thresh= 1.000E-02 alpha_mix =  0.700 |ddv_scf|^2 =  1.972E-06

      iter #   2 total cpu time :  2460.2 secs   av.it.:   8.6
      thresh= 1.404E-04 alpha_mix =  0.700 |ddv_scf|^2 =  7.558E-08

      iter #   3 total cpu time :  2463.3 secs   av.it.:   8.5
      thresh= 2.749E-05 alpha_mix =  0.700 |ddv_scf|^2 =  5.094E-09

      iter #   4 total cpu time :  2466.0 secs   av.it.:   8.0
      thresh= 7.137E-06 alpha_mix =  0.700 |ddv_scf|^2 =  1.329E-12

      iter #   5 total cpu time :  2468.6 secs   av.it.:   8.4
      thresh= 1.153E-07 alpha_mix =  0.700 |ddv_scf|^2 =  1.348E-14

      iter #   6 total cpu time :  2472.2 secs   av.it.:   8.2
      thresh= 1.161E-08 alpha_mix =  0.700 |ddv_scf|^2 =  2.254E-16

      iter #   7 total cpu time :  2474.0 secs   av.it.:   8.3
      thresh= 1.501E-09 alpha_mix =  0.700 |ddv_scf|^2 =  1.888E-19

     End of self-consistent calculation

     Convergence has been achieved 
 
     Number of q in the star =   12
     List of q in the star:
          1   0.000000000   0.900000000  -0.100000000
          2  -0.900000000   0.000000000  -0.100000000
          3   0.000000000  -0.900000000  -0.100000000
          4   0.900000000   0.000000000  -0.100000000
          5  -0.100000000  -0.900000000   0.000000000
          6   0.100000000  -0.900000000   0.000000000
          7  -0.100000000   0.900000000   0.000000000
          8   0.100000000   0.900000000   0.000000000
          9   0.900000000   0.000000000   0.100000000
         10   0.000000000   0.100000000  -0.900000000
         11   0.000000000  -0.100000000  -0.900000000
         12   0.100000000   0.000000000  -0.900000000

     Diagonalizing the dynamical matrix

     q = (    0.000000000   0.900000000  -0.100000000 ) 

 **************************************************************************
     freq (    1) =       9.730731 [THz] =     324.582264 [cm-1]
     freq (    2) =      10.221216 [THz] =     340.943083 [cm-1]
     freq (    3) =      10.221769 [THz] =     340.961523 [cm-1]
 **************************************************************************

     Mode symmetry, C_2v (mm2)  point group:

     freq (  1 -  1) =        324.6  [cm-1]   --> A_1  D_1  S_1      
     freq (  2 -  2) =        340.9  [cm-1]   --> B_1  D_3  S_3      
     freq (  3 -  3) =        341.0  [cm-1]   --> B_2  D_4  S_4      

     Calculation of q =    0.0000000   0.0000000  -1.0000000
 
     G-vector sticks info
     --------------------
     sticks:   dense  smooth     PW     G-vecs:    dense   smooth      PW
     Sum        1097     541    205                22831     8007    1865
 


     bravais-lattice index     =            3
     lattice parameter (alat)  =       6.3528  a.u.
     unit-cell volume          =     128.1952 (a.u.)^3
     number of atoms/cell      =            1
     number of atomic types    =            1
     number of electrons       =         3.00
     number of Kohn-Sham states=            6
     kinetic-energy cutoff     =      60.0000  Ry
     charge density cutoff     =     480.0000  Ry
     Exchange-correlation      =  SLA  PW   PBX  PBC ( 1  4  3  4 0 0)

     celldm(1)=   6.352831  celldm(2)=   0.000000  celldm(3)=   0.000000
     celldm(4)=   0.000000  celldm(5)=   0.000000  celldm(6)=   0.000000

     crystal axes: (cart. coord. in units of alat)
               a(1) = (   0.500000   0.500000   0.500000 )  
               a(2) = (  -0.500000   0.500000   0.500000 )  
               a(3) = (  -0.500000  -0.500000   0.500000 )  

     reciprocal axes: (cart. coord. in units 2 pi/alat)
               b(1) = (  1.000000  0.000000  1.000000 )  
               b(2) = ( -1.000000  1.000000  0.000000 )  
               b(3) = (  0.000000 -1.000000  1.000000 )  


     PseudoPot. # 1 for Li read from file:
     ../Li.pbe-s-gbrv14.UPF
     MD5 check sum: 7ca33c4f951f001da2db5c8738379802
     Pseudo is Ultrasoft, Zval =  3.0
     Generated by new atomic code, or converted to UPF format
     Using radial grid of  751 points,  5 beta functions with: 
                l(1) =   0
                l(2) =   0
                l(3) =   0
                l(4) =   1
                l(5) =   1
     Q(r) pseudized with 10 coefficients,  rinner =    1.150   1.150   1.150


     atomic species   valence    mass     pseudopotential
        Li             3.00     6.94100     Li( 1.00)

     48 Sym. Ops., with inversion, found



   Cartesian axes

     site n.     atom                  positions (alat units)
         1           Li  tau(   1) = (   0.0000000   0.0000000   0.0000000  )

     number of k points=  1232  Marzari-Vanderbilt smearing, width (Ry)=  0.0200

     Number of k-points >= 100: set verbosity='high' to print them.

     Dense  grid:    22831 G-vectors     FFT dimensions: (  40,  40,  40)

     Smooth grid:     8007 G-vectors     FFT dimensions: (  27,  27,  27)

     Largest allocated arrays     est. size (Mb)     dimensions
        Kohn-Sham Wavefunctions         0.09 Mb     (    1032,    6)
        NL pseudopotentials             0.14 Mb     (    1032,    9)
        Each V/rho on FFT grid          0.98 Mb     (   64000)
        Each G-vector array             0.17 Mb     (   22831)
        G-vector shells                 0.00 Mb     (     227)
     Largest temporary arrays     est. size (Mb)     dimensions
        Auxiliary wavefunctions         0.38 Mb     (    1032,   24)
        Each subspace H/S matrix        0.01 Mb     (      24,   24)
        Each <psi_i|beta_j> matrix      0.00 Mb     (       9,    6)

     The potential is recalculated from file :
     ./tmp/_ph0/li-bcc.save/charge-density.dat

     Starting wfc are    5 atomic +    1 random wfc

     Band Structure Calculation
     Davidson diagonalization with overlap

     ethr =  3.33E-10,  avg # of iterations = 17.2

     total cpu time spent up to now is      270.3 secs

     End of band structure calculation

     Number of k-points >= 100: set verbosity='high' to print the bands.

     the Fermi energy is     1.1626 ev

                                                                                

     bravais-lattice index     =            3
     lattice parameter (alat)  =       6.3528  a.u.
     unit-cell volume          =     128.1952 (a.u.)^3
     number of atoms/cell      =            1
     number of atomic types    =            1
     kinetic-energy cut-off    =      60.0000  Ry
     charge density cut-off    =     480.0000  Ry
     convergence threshold     =      1.0E-16
     beta                      =       0.7000
     number of iterations used =            4
     Exchange-correlation      =  SLA  PW   PBX  PBC ( 1  4  3  4 0 0)


     celldm(1)=    6.35283  celldm(2)=    0.00000  celldm(3)=    0.00000
     celldm(4)=    0.00000  celldm(5)=    0.00000  celldm(6)=    0.00000

     crystal axes: (cart. coord. in units of alat)
               a(1) = (  0.5000  0.5000  0.5000 )  
               a(2) = ( -0.5000  0.5000  0.5000 )  
               a(3) = ( -0.5000 -0.5000  0.5000 )  

     reciprocal axes: (cart. coord. in units 2 pi/alat)
               b(1) = (  1.0000  0.0000  1.0000 )  
               b(2) = ( -1.0000  1.0000  0.0000 )  
               b(3) = (  0.0000 -1.0000  1.0000 )  


     Atoms inside the unit cell: 

     Cartesian axes

     site n.  atom      mass           positions (alat units)
        1     Li   6.9410   tau(    1) = (    0.00000    0.00000    0.00000  )

     Computing dynamical matrix for 
                    q = (   0.0000000   0.0000000  -1.0000000 )
 
     49 Sym.Ops. (with q -> -q+G )


     G cutoff =  490.7001  (  22831 G-vectors)     FFT grid: ( 40, 40, 40)
     G cutoff =  245.3500  (   8007 G-vectors)  smooth grid: ( 27, 27, 27)

     number of k points=  1232  Marzari-Vanderbilt smearing, width (Ry)=  0.0200

     PseudoPot. # 1 for Li read from file:
     ../Li.pbe-s-gbrv14.UPF
     MD5 check sum: 7ca33c4f951f001da2db5c8738379802
     Pseudo is Ultrasoft, Zval =  3.0
     Generated by new atomic code, or converted to UPF format
     Using radial grid of  751 points,  5 beta functions with: 
                l(1) =   0
                l(2) =   0
                l(3) =   0
                l(4) =   1
                l(5) =   1
     Q(r) pseudized with 10 coefficients,  rinner =    1.150   1.150   1.150


     Mode symmetry, O_h (m-3m)  point group:


     Atomic displacements:
     There are   1 irreducible representations

     Representation     1      3 modes -T_1u G_15  G_4-  To be done



     Alpha used in Ewald sum =   2.8000
     PHONON       : 34m 7.38s CPU    41m24.10s WALL



     Representation #  1 modes #   1  2  3

     Self-consistent Calculation

      iter #   1 total cpu time :  2484.9 secs   av.it.:   6.1
      thresh= 1.000E-02 alpha_mix =  0.700 |ddv_scf|^2 =  2.302E-07

      iter #   2 total cpu time :  2487.0 secs   av.it.:   9.5
      thresh= 4.798E-05 alpha_mix =  0.700 |ddv_scf|^2 =  8.511E-09

      iter #   3 total cpu time :  2490.7 secs   av.it.:   9.5
      thresh= 9.226E-06 alpha_mix =  0.700 |ddv_scf|^2 =  6.082E-10

      iter #   4 total cpu time :  2502.0 secs   av.it.:   8.9
      thresh= 2.466E-06 alpha_mix =  0.700 |ddv_scf|^2 =  1.352E-13

      iter #   5 total cpu time :  2515.7 secs   av.it.:   9.2
      thresh= 3.676E-08 alpha_mix =  0.700 |ddv_scf|^2 =  1.277E-15

      iter #   6 total cpu time :  2533.7 secs   av.it.:   9.1
      thresh= 3.573E-09 alpha_mix =  0.700 |ddv_scf|^2 =  2.147E-17

     End of self-consistent calculation

     Convergence has been achieved 
 
     Number of q in the star =    1
     List of q in the star:
          1   0.000000000   0.000000000  -1.000000000

     Diagonalizing the dynamical matrix

     q = (    0.000000000   0.000000000  -1.000000000 ) 

 **************************************************************************
     freq (    1) =      10.492508 [THz] =     349.992379 [cm-1]
     freq (    2) =      10.492508 [THz] =     349.992379 [cm-1]
     freq (    3) =      10.492508 [THz] =     349.992379 [cm-1]
 **************************************************************************

     Mode symmetry, O_h (m-3m)  point group:

     freq (  1 -  3) =        350.0  [cm-1]   --> T_1u G_15  G_4-    
 
     init_run     :     49.50s CPU     61.73s WALL (      20 calls)
     electrons    :    142.22s CPU    144.09s WALL (      20 calls)

     Called by init_run:
     wfcinit      :      0.02s CPU      0.57s WALL (      20 calls)
     potinit      :     45.60s CPU     46.17s WALL (      20 calls)

     Called by electrons:
     c_bands      :    142.14s CPU    144.02s WALL (      20 calls)
     v_of_rho     :      0.86s CPU      0.88s WALL (      21 calls)
     newd         :      0.29s CPU      0.40s WALL (      21 calls)

     Called by c_bands:
     init_us_2    :      3.20s CPU      3.46s WALL (   18557 calls)
     cegterg      :     76.46s CPU     76.92s WALL (    1529 calls)

     Called by sum_band:

     Called by *egterg:
     h_psi        :     72.98s CPU     73.56s WALL (   24583 calls)
     s_psi        :      5.09s CPU      4.93s WALL (  302589 calls)
     g_psi        :      0.57s CPU      0.53s WALL (   21894 calls)
     cdiaghg      :      3.17s CPU      3.14s WALL (   23054 calls)

     Called by h_psi:
     add_vuspsi   :      2.96s CPU      2.96s WALL (  156601 calls)

     General routines
     calbec       :      6.35s CPU      6.60s WALL (  333379 calls)
     fft          :     12.61s CPU     12.77s WALL (    7316 calls)
     ffts         :      1.65s CPU      1.67s WALL (    2966 calls)
     fftw         :    286.29s CPU    289.05s WALL (  788282 calls)
     interpolate  :      0.10s CPU      0.10s WALL (      40 calls)
     davcio       :      0.14s CPU      1.45s WALL (    3480 calls)
 
     Parallel routines
     fft_scatter  :     17.13s CPU     17.01s WALL (  798564 calls)
 
     PHONON       : 35m 2.12s CPU    42m25.46s WALL

     INITIALIZATION: 
     phq_setup    :      2.07s CPU      5.00s WALL (      20 calls)
     phq_init     :     95.03s CPU    110.49s WALL (      20 calls)
 
     phq_init     :     95.03s CPU    110.49s WALL (      20 calls)
     init_vloc    :      0.03s CPU      0.03s WALL (      21 calls)
     init_us_1    :      2.71s CPU      2.73s WALL (      21 calls)
     newd         :      0.29s CPU      0.40s WALL (      21 calls)
     dvanqq       :      2.10s CPU      2.12s WALL (      20 calls)
     drho         :     89.62s CPU     89.99s WALL (      20 calls)
 
     DYNAMICAL MATRIX:
     dynmat0      :      0.56s CPU      3.03s WALL (      20 calls)
     phqscf       :   1674.30s CPU   2050.99s WALL (      20 calls)
     dynmatrix    :     61.30s CPU     66.79s WALL (      20 calls)
 
     phqscf       :   1674.30s CPU   2050.99s WALL (      20 calls)
     solve_linter :   1673.17s CPU   2024.19s WALL (      52 calls)
     drhodv       :      0.93s CPU      1.00s WALL (      52 calls)
 
     dynmat0      :      0.56s CPU      3.03s WALL (      20 calls)
     dynmat_us    :      0.45s CPU      0.47s WALL (      20 calls)
     d2ionq       :      0.06s CPU      0.07s WALL (      20 calls)
 
     dynmat_us    :      0.45s CPU      0.47s WALL (      20 calls)
     addusdynmat  :      0.00s CPU      0.00s WALL (      20 calls)
 
     phqscf       :   1674.30s CPU   2050.99s WALL (      20 calls)
     solve_linter :   1673.17s CPU   2024.19s WALL (      52 calls)
 
     solve_linter :   1673.17s CPU   2024.19s WALL (      52 calls)
     dvqpsi_us    :      9.60s CPU      9.82s WALL (    1740 calls)
     ortho        :      1.72s CPU      1.73s WALL (   13970 calls)
     cgsolve      :    216.35s CPU    218.61s WALL (   13970 calls)
     incdrhoscf   :     24.37s CPU     24.61s WALL (   13970 calls)
     addusddens   :     10.34s CPU     10.34s WALL (     456 calls)
     vpsifft      :     19.70s CPU     20.09s WALL (   12230 calls)
     dv_of_drho   :     17.38s CPU     17.60s WALL (     455 calls)
     mix_pot      :      2.36s CPU      2.40s WALL (     404 calls)
     psymdvscf    :      7.71s CPU      7.71s WALL (     352 calls)
     newdq        :      9.77s CPU      9.73s WALL (     404 calls)
     adddvscf     :      0.74s CPU      0.68s WALL (   12230 calls)
     drhodvus     :      0.12s CPU      0.11s WALL (      52 calls)
 
     dvqpsi_us    :      9.60s CPU      9.82s WALL (    1740 calls)
     dvqpsi_us_on :      0.51s CPU      0.50s WALL (    1740 calls)
 
     cgsolve      :    216.35s CPU    218.61s WALL (   13970 calls)
     ch_psi       :    213.73s CPU    215.78s WALL (  132018 calls)
 
     ch_psi       :    213.73s CPU    215.78s WALL (  132018 calls)
     h_psiq       :    206.26s CPU    208.23s WALL (  132018 calls)
     last         :      6.62s CPU      6.68s WALL (  132018 calls)
 
     h_psiq       :    206.26s CPU    208.23s WALL (  132018 calls)
     firstfft     :    104.05s CPU    105.34s WALL (  241569 calls)
     secondfft    :     87.78s CPU     88.50s WALL (  241569 calls)
     add_vuspsi   :      2.96s CPU      2.96s WALL (  156601 calls)
 
     incdrhoscf   :     24.37s CPU     24.61s WALL (   13970 calls)
     addusdbec    :      0.75s CPU      0.75s WALL (   15710 calls)
 
     drhodvus     :      0.12s CPU      0.11s WALL (      52 calls)
 
      General routines
     calbec       :      6.35s CPU      6.60s WALL (  333379 calls)
     fft          :     12.61s CPU     12.77s WALL (    7316 calls)
     ffts         :      1.65s CPU      1.67s WALL (    2966 calls)
     fftw         :    286.29s CPU    289.05s WALL (  788282 calls)
     cinterpolate :      2.44s CPU      2.50s WALL (     970 calls)
     davcio       :      0.14s CPU      1.45s WALL (    3480 calls)
     write_rec    :      1.11s CPU    367.62s WALL (     456 calls)
 
 
     PHONON       : 35m 2.12s CPU    42m25.46s WALL

 
   This run was terminated on:  15:17:21   3Jun2016            

=------------------------------------------------------------------------------=
   JOB DONE.
=------------------------------------------------------------------------------=
Application 21909303 resources: utime ~661080s, stime ~3322s, Rss ~114284, inblocks ~146884782, outblocks ~469054105
