
     Program PWSCF v.5.2.0 starts on 31May2016 at 22:34:20 

     This program is part of the open-source Quantum ESPRESSO suite
     for quantum simulation of materials; please cite
         "P. Giannozzi et al., J. Phys.:Condens. Matter 21 395502 (2009);
          URL http://www.quantum-espresso.org", 
     in publications or presentations arising from this work. More details at
     http://www.quantum-espresso.org/quote

     Parallel version (MPI), running on   288 processors
     K-points division:     npool     =     288
     Waiting for input...
     Reading input from standard input
     Message from routine read_cards :
     DEPRECATED: no units specified in ATOMIC_POSITIONS card
     Message from routine read_cards :
     ATOMIC_POSITIONS: units set to alat

     Current dimensions of program PWSCF are:
     Max number of different atomic species (ntypx) = 10
     Max number of k-points (npk) = 400000
     Max angular momentum in pseudopotentials (lmaxx) =  3

     Subspace diagonalization in iterative solution of the eigenvalue problem:
     a serial algorithm will be used

 
     G-vector sticks info
     --------------------
     sticks:   dense  smooth     PW     G-vecs:    dense   smooth      PW
     Sum        1097     541    173                22831     8007    1433
 


     bravais-lattice index     =            3
     lattice parameter (alat)  =       6.3528  a.u.
     unit-cell volume          =     128.1952 (a.u.)^3
     number of atoms/cell      =            1
     number of atomic types    =            1
     number of electrons       =         3.00
     number of Kohn-Sham states=            6
     kinetic-energy cutoff     =      60.0000  Ry
     charge density cutoff     =     480.0000  Ry
     convergence threshold     =      1.0E-11
     mixing beta               =       0.7000
     number of iterations used =            8  plain     mixing
     Exchange-correlation      =  SLA  PW   PBX  PBC ( 1  4  3  4 0 0)

     celldm(1)=   6.352831  celldm(2)=   0.000000  celldm(3)=   0.000000
     celldm(4)=   0.000000  celldm(5)=   0.000000  celldm(6)=   0.000000

     crystal axes: (cart. coord. in units of alat)
               a(1) = (   0.500000   0.500000   0.500000 )  
               a(2) = (  -0.500000   0.500000   0.500000 )  
               a(3) = (  -0.500000  -0.500000   0.500000 )  

     reciprocal axes: (cart. coord. in units 2 pi/alat)
               b(1) = (  1.000000  0.000000  1.000000 )  
               b(2) = ( -1.000000  1.000000  0.000000 )  
               b(3) = (  0.000000 -1.000000  1.000000 )  


     PseudoPot. # 1 for Li read from file:
     ../Li.pbe-s-gbrv14.UPF
     MD5 check sum: 7ca33c4f951f001da2db5c8738379802
     Pseudo is Ultrasoft, Zval =  3.0
     Generated by new atomic code, or converted to UPF format
     Using radial grid of  751 points,  5 beta functions with: 
                l(1) =   0
                l(2) =   0
                l(3) =   0
                l(4) =   1
                l(5) =   1
     Q(r) pseudized with 10 coefficients,  rinner =    1.150   1.150   1.150


     atomic species   valence    mass     pseudopotential
        Li             3.00     6.94100     Li( 1.00)

     48 Sym. Ops., with inversion, found



   Cartesian axes

     site n.     atom                  positions (alat units)
         1           Li  tau(   1) = (   0.0000000   0.0000000   0.0000000  )

     number of k points=   616  Marzari-Vanderbilt smearing, width (Ry)=  0.0200

     Number of k-points >= 100: set verbosity='high' to print them.

     Dense  grid:    22831 G-vectors     FFT dimensions: (  40,  40,  40)

     Smooth grid:     8007 G-vectors     FFT dimensions: (  27,  27,  27)

     Largest allocated arrays     est. size (Mb)     dimensions
        Kohn-Sham Wavefunctions         0.09 Mb     (    1032,    6)
        NL pseudopotentials             0.14 Mb     (    1032,    9)
        Each V/rho on FFT grid          0.98 Mb     (   64000)
        Each G-vector array             0.17 Mb     (   22831)
        G-vector shells                 0.00 Mb     (     227)
     Largest temporary arrays     est. size (Mb)     dimensions
        Auxiliary wavefunctions         0.38 Mb     (    1032,   24)
        Each subspace H/S matrix        0.01 Mb     (      24,   24)
        Each <psi_i|beta_j> matrix      0.00 Mb     (       9,    6)
        Arrays for rho mixing           7.81 Mb     (   64000,    8)

     Initial potential from superposition of free atoms

     starting charge    2.54926, renormalised to    3.00000
     Starting wfc are    5 randomized atomic wfcs +    1 random wfc

     total cpu time spent up to now is        1.9 secs

     per-process dynamical memory:    20.0 Mb

     Self-consistent Calculation

     iteration #  1     ecut=    60.00 Ry     beta=0.70
     Davidson diagonalization with overlap
     ethr =  1.00E-02,  avg # of iterations =  5.3

     total cpu time spent up to now is        2.2 secs

     total energy              =     -14.46664821 Ry
     Harris-Foulkes estimate   =     -14.58389712 Ry
     estimated scf accuracy    <       0.16221578 Ry

     iteration #  2     ecut=    60.00 Ry     beta=0.70
     Davidson diagonalization with overlap
     ethr =  5.41E-03,  avg # of iterations =  1.0

     total cpu time spent up to now is        2.4 secs

     total energy              =     -14.47003094 Ry
     Harris-Foulkes estimate   =     -14.47556225 Ry
     estimated scf accuracy    <       0.00738455 Ry

     iteration #  3     ecut=    60.00 Ry     beta=0.70
     Davidson diagonalization with overlap
     ethr =  2.46E-04,  avg # of iterations =  2.2

     total cpu time spent up to now is        2.6 secs

     total energy              =     -14.47177492 Ry
     Harris-Foulkes estimate   =     -14.47177143 Ry
     estimated scf accuracy    <       0.00003927 Ry

     iteration #  4     ecut=    60.00 Ry     beta=0.70
     Davidson diagonalization with overlap
     ethr =  1.31E-06,  avg # of iterations =  4.2

     total cpu time spent up to now is        2.8 secs

     total energy              =     -14.47178377 Ry
     Harris-Foulkes estimate   =     -14.47178410 Ry
     estimated scf accuracy    <       0.00000103 Ry

     iteration #  5     ecut=    60.00 Ry     beta=0.70
     Davidson diagonalization with overlap
     ethr =  3.45E-08,  avg # of iterations =  2.0

     total cpu time spent up to now is        3.0 secs

     total energy              =     -14.47178409 Ry
     Harris-Foulkes estimate   =     -14.47178409 Ry
     estimated scf accuracy    <       0.00000001 Ry

     iteration #  6     ecut=    60.00 Ry     beta=0.70
     Davidson diagonalization with overlap
     ethr =  4.01E-10,  avg # of iterations =  2.3

     total cpu time spent up to now is        3.1 secs

     total energy              =     -14.47178410 Ry
     Harris-Foulkes estimate   =     -14.47178410 Ry
     estimated scf accuracy    <          2.5E-09 Ry

     iteration #  7     ecut=    60.00 Ry     beta=0.70
     Davidson diagonalization with overlap
     ethr =  8.22E-11,  avg # of iterations =  1.0

     total cpu time spent up to now is        3.3 secs

     End of self-consistent calculation

     Number of k-points >= 100: set verbosity='high' to print the bands.

     the Fermi energy is     1.1626 ev

!    total energy              =     -14.47178410 Ry
     Harris-Foulkes estimate   =     -14.47178410 Ry
     estimated scf accuracy    <          3.7E-13 Ry

     The total energy is the sum of the following terms:

     one-electron contribution =      -9.54312186 Ry
     hartree contribution      =       3.61363910 Ry
     xc contribution           =      -3.38653058 Ry
     ewald contribution        =      -5.15567013 Ry
     smearing contrib. (-TS)   =      -0.00010062 Ry

     convergence has been achieved in   7 iterations


     entering subroutine stress ...

          total   stress  (Ry/bohr**3)                   (kbar)     P=    9.99
   0.00006792   0.00000000   0.00000000          9.99      0.00      0.00
   0.00000000   0.00006792   0.00000000          0.00      9.99      0.00
   0.00000000   0.00000000   0.00006792          0.00      0.00      9.99


     Writing output data file li-bcc.save
 
     init_run     :      1.31s CPU      1.37s WALL (       1 calls)
     electrons    :      1.35s CPU      1.43s WALL (       1 calls)
     stress       :      0.12s CPU      0.12s WALL (       1 calls)

     Called by init_run:
     wfcinit      :      0.02s CPU      0.03s WALL (       1 calls)
     potinit      :      1.10s CPU      1.12s WALL (       1 calls)

     Called by electrons:
     c_bands      :      0.38s CPU      0.39s WALL (       7 calls)
     sum_band     :      0.30s CPU      0.31s WALL (       7 calls)
     v_of_rho     :      0.33s CPU      0.34s WALL (       8 calls)
     newd         :      0.13s CPU      0.15s WALL (       8 calls)
     mix_rho      :      0.04s CPU      0.04s WALL (       7 calls)

     Called by c_bands:
     init_us_2    :      0.01s CPU      0.01s WALL (      48 calls)
     cegterg      :      0.31s CPU      0.32s WALL (      21 calls)

     Called by sum_band:
     sum_band:bec :      0.00s CPU      0.00s WALL (      21 calls)
     addusdens    :      0.14s CPU      0.15s WALL (       7 calls)

     Called by *egterg:
     h_psi        :      0.28s CPU      0.29s WALL (      98 calls)
     s_psi        :      0.00s CPU      0.00s WALL (      98 calls)
     g_psi        :      0.00s CPU      0.00s WALL (      74 calls)
     cdiaghg      :      0.01s CPU      0.01s WALL (      95 calls)

     Called by h_psi:
     add_vuspsi   :      0.00s CPU      0.00s WALL (      98 calls)

     General routines
     calbec       :      0.00s CPU      0.00s WALL (     122 calls)
     fft          :      0.22s CPU      0.23s WALL (     129 calls)
     ffts         :      0.01s CPU      0.01s WALL (      15 calls)
     fftw         :      0.29s CPU      0.29s WALL (     862 calls)
     interpolate  :      0.04s CPU      0.04s WALL (      15 calls)
     davcio       :      0.00s CPU      0.00s WALL (       3 calls)
 
     Parallel routines
     fft_scatter  :      0.05s CPU      0.04s WALL (    1006 calls)
 
     PWSCF        :  0m 4.76s CPU     1m18.45s WALL

 
   This run was terminated on:  22:35:39  31May2016            

=------------------------------------------------------------------------------=
   JOB DONE.
=------------------------------------------------------------------------------=
Application 21880409 resources: utime ~22404s, stime ~109s, Rss ~49580, inblocks ~1625834, outblocks ~1270665

     Program PWSCF v.5.2.0 starts on  2Jun2016 at 13: 7: 1 

     This program is part of the open-source Quantum ESPRESSO suite
     for quantum simulation of materials; please cite
         "P. Giannozzi et al., J. Phys.:Condens. Matter 21 395502 (2009);
          URL http://www.quantum-espresso.org", 
     in publications or presentations arising from this work. More details at
     http://www.quantum-espresso.org/quote

     Parallel version (MPI), running on   288 processors
     K-points division:     npool     =     288
     Waiting for input...
     Reading input from standard input
     Message from routine read_cards :
     DEPRECATED: no units specified in ATOMIC_POSITIONS card
     Message from routine read_cards :
     ATOMIC_POSITIONS: units set to alat

     Current dimensions of program PWSCF are:
     Max number of different atomic species (ntypx) = 10
     Max number of k-points (npk) = 400000
     Max angular momentum in pseudopotentials (lmaxx) =  3

     Subspace diagonalization in iterative solution of the eigenvalue problem:
     a serial algorithm will be used

 
     G-vector sticks info
     --------------------
     sticks:   dense  smooth     PW     G-vecs:    dense   smooth      PW
     Sum        1097     541    173                22831     8007    1433
 


     bravais-lattice index     =            3
     lattice parameter (alat)  =       6.3528  a.u.
     unit-cell volume          =     128.1952 (a.u.)^3
     number of atoms/cell      =            1
     number of atomic types    =            1
     number of electrons       =         3.00
     number of Kohn-Sham states=            6
     kinetic-energy cutoff     =      60.0000  Ry
     charge density cutoff     =     480.0000  Ry
     convergence threshold     =      1.0E-11
     mixing beta               =       0.7000
     number of iterations used =            8  plain     mixing
     Exchange-correlation      =  SLA  PW   PBX  PBC ( 1  4  3  4 0 0)

     celldm(1)=   6.352831  celldm(2)=   0.000000  celldm(3)=   0.000000
     celldm(4)=   0.000000  celldm(5)=   0.000000  celldm(6)=   0.000000

     crystal axes: (cart. coord. in units of alat)
               a(1) = (   0.500000   0.500000   0.500000 )  
               a(2) = (  -0.500000   0.500000   0.500000 )  
               a(3) = (  -0.500000  -0.500000   0.500000 )  

     reciprocal axes: (cart. coord. in units 2 pi/alat)
               b(1) = (  1.000000  0.000000  1.000000 )  
               b(2) = ( -1.000000  1.000000  0.000000 )  
               b(3) = (  0.000000 -1.000000  1.000000 )  


     PseudoPot. # 1 for Li read from file:
     ../Li.pbe-s-gbrv14.UPF
     MD5 check sum: 7ca33c4f951f001da2db5c8738379802
     Pseudo is Ultrasoft, Zval =  3.0
     Generated by new atomic code, or converted to UPF format
     Using radial grid of  751 points,  5 beta functions with: 
                l(1) =   0
                l(2) =   0
                l(3) =   0
                l(4) =   1
                l(5) =   1
     Q(r) pseudized with 10 coefficients,  rinner =    1.150   1.150   1.150


     atomic species   valence    mass     pseudopotential
        Li             3.00     6.94100     Li( 1.00)

     48 Sym. Ops., with inversion, found



   Cartesian axes

     site n.     atom                  positions (alat units)
         1           Li  tau(   1) = (   0.0000000   0.0000000   0.0000000  )

     number of k points=   616  Marzari-Vanderbilt smearing, width (Ry)=  0.0200

     Number of k-points >= 100: set verbosity='high' to print them.

     Dense  grid:    22831 G-vectors     FFT dimensions: (  40,  40,  40)

     Smooth grid:     8007 G-vectors     FFT dimensions: (  27,  27,  27)

     Largest allocated arrays     est. size (Mb)     dimensions
        Kohn-Sham Wavefunctions         0.09 Mb     (    1032,    6)
        NL pseudopotentials             0.14 Mb     (    1032,    9)
        Each V/rho on FFT grid          0.98 Mb     (   64000)
        Each G-vector array             0.17 Mb     (   22831)
        G-vector shells                 0.00 Mb     (     227)
     Largest temporary arrays     est. size (Mb)     dimensions
        Auxiliary wavefunctions         0.38 Mb     (    1032,   24)
        Each subspace H/S matrix        0.01 Mb     (      24,   24)
        Each <psi_i|beta_j> matrix      0.00 Mb     (       9,    6)
        Arrays for rho mixing           7.81 Mb     (   64000,    8)

     Initial potential from superposition of free atoms

     starting charge    2.54926, renormalised to    3.00000
     Starting wfc are    5 randomized atomic wfcs +    1 random wfc

     total cpu time spent up to now is        1.4 secs

     per-process dynamical memory:    20.0 Mb

     Self-consistent Calculation

     iteration #  1     ecut=    60.00 Ry     beta=0.70
     Davidson diagonalization with overlap
     ethr =  1.00E-02,  avg # of iterations =  5.3

     total cpu time spent up to now is        2.0 secs

     total energy              =     -14.46664821 Ry
     Harris-Foulkes estimate   =     -14.58389712 Ry
     estimated scf accuracy    <       0.16221578 Ry

     iteration #  2     ecut=    60.00 Ry     beta=0.70
     Davidson diagonalization with overlap
     ethr =  5.41E-03,  avg # of iterations =  1.0

     total cpu time spent up to now is        2.1 secs

     total energy              =     -14.47003094 Ry
     Harris-Foulkes estimate   =     -14.47556225 Ry
     estimated scf accuracy    <       0.00738455 Ry

     iteration #  3     ecut=    60.00 Ry     beta=0.70
     Davidson diagonalization with overlap
     ethr =  2.46E-04,  avg # of iterations =  2.2

     total cpu time spent up to now is        2.3 secs

     total energy              =     -14.47177492 Ry
     Harris-Foulkes estimate   =     -14.47177143 Ry
     estimated scf accuracy    <       0.00003927 Ry

     iteration #  4     ecut=    60.00 Ry     beta=0.70
     Davidson diagonalization with overlap
     ethr =  1.31E-06,  avg # of iterations =  4.2

     total cpu time spent up to now is        2.5 secs

     total energy              =     -14.47178377 Ry
     Harris-Foulkes estimate   =     -14.47178410 Ry
     estimated scf accuracy    <       0.00000103 Ry

     iteration #  5     ecut=    60.00 Ry     beta=0.70
     Davidson diagonalization with overlap
     ethr =  3.45E-08,  avg # of iterations =  2.0

     total cpu time spent up to now is        2.7 secs

     total energy              =     -14.47178409 Ry
     Harris-Foulkes estimate   =     -14.47178409 Ry
     estimated scf accuracy    <       0.00000001 Ry

     iteration #  6     ecut=    60.00 Ry     beta=0.70
     Davidson diagonalization with overlap
     ethr =  4.01E-10,  avg # of iterations =  2.3

     total cpu time spent up to now is        2.9 secs

     total energy              =     -14.47178410 Ry
     Harris-Foulkes estimate   =     -14.47178410 Ry
     estimated scf accuracy    <          2.5E-09 Ry

     iteration #  7     ecut=    60.00 Ry     beta=0.70
     Davidson diagonalization with overlap
     ethr =  8.22E-11,  avg # of iterations =  1.0

     total cpu time spent up to now is        3.0 secs

     End of self-consistent calculation

     Number of k-points >= 100: set verbosity='high' to print the bands.

     the Fermi energy is     1.1626 ev

!    total energy              =     -14.47178410 Ry
     Harris-Foulkes estimate   =     -14.47178410 Ry
     estimated scf accuracy    <          3.7E-13 Ry

     The total energy is the sum of the following terms:

     one-electron contribution =      -9.54312186 Ry
     hartree contribution      =       3.61363910 Ry
     xc contribution           =      -3.38653058 Ry
     ewald contribution        =      -5.15567013 Ry
     smearing contrib. (-TS)   =      -0.00010062 Ry

     convergence has been achieved in   7 iterations


     entering subroutine stress ...

          total   stress  (Ry/bohr**3)                   (kbar)     P=    9.99
   0.00006792   0.00000000  -0.00000000          9.99      0.00     -0.00
   0.00000000   0.00006792   0.00000000          0.00      9.99      0.00
  -0.00000000   0.00000000   0.00006792         -0.00      0.00      9.99


     Writing output data file li-bcc.save
 
     init_run     :      1.06s CPU      1.11s WALL (       1 calls)
     electrons    :      1.60s CPU      1.67s WALL (       1 calls)
     stress       :      0.12s CPU      0.12s WALL (       1 calls)

     Called by init_run:
     wfcinit      :      0.01s CPU      0.02s WALL (       1 calls)
     potinit      :      0.86s CPU      0.87s WALL (       1 calls)

     Called by electrons:
     c_bands      :      0.38s CPU      0.40s WALL (       7 calls)
     sum_band     :      0.32s CPU      0.33s WALL (       7 calls)
     v_of_rho     :      0.33s CPU      0.34s WALL (       8 calls)
     newd         :      0.14s CPU      0.15s WALL (       8 calls)
     mix_rho      :      0.04s CPU      0.04s WALL (       7 calls)

     Called by c_bands:
     init_us_2    :      0.00s CPU      0.01s WALL (      48 calls)
     cegterg      :      0.30s CPU      0.30s WALL (      21 calls)

     Called by sum_band:
     sum_band:bec :      0.00s CPU      0.00s WALL (      21 calls)
     addusdens    :      0.14s CPU      0.15s WALL (       7 calls)

     Called by *egterg:
     h_psi        :      0.28s CPU      0.28s WALL (      98 calls)
     s_psi        :      0.00s CPU      0.00s WALL (      98 calls)
     g_psi        :      0.00s CPU      0.00s WALL (      74 calls)
     cdiaghg      :      0.01s CPU      0.01s WALL (      95 calls)

     Called by h_psi:
     add_vuspsi   :      0.01s CPU      0.00s WALL (      98 calls)

     General routines
     calbec       :      0.00s CPU      0.00s WALL (     122 calls)
     fft          :      0.23s CPU      0.22s WALL (     129 calls)
     ffts         :      0.01s CPU      0.01s WALL (      15 calls)
     fftw         :      0.26s CPU      0.28s WALL (     862 calls)
     interpolate  :      0.04s CPU      0.04s WALL (      15 calls)
     davcio       :      0.00s CPU      0.00s WALL (       3 calls)
 
     Parallel routines
     fft_scatter  :      0.04s CPU      0.04s WALL (    1006 calls)
 
     PWSCF        :  0m 6.01s CPU     1m 6.83s WALL

 
   This run was terminated on:  13: 8: 8   2Jun2016            

=------------------------------------------------------------------------------=
   JOB DONE.
=------------------------------------------------------------------------------=
Application 21898946 resources: utime ~19101s, stime ~93s, Rss ~49308, inblocks ~1629134, outblocks ~1270665

     Program PWSCF v.5.2.0 starts on  3Jun2016 at 14:33:11 

     This program is part of the open-source Quantum ESPRESSO suite
     for quantum simulation of materials; please cite
         "P. Giannozzi et al., J. Phys.:Condens. Matter 21 395502 (2009);
          URL http://www.quantum-espresso.org", 
     in publications or presentations arising from this work. More details at
     http://www.quantum-espresso.org/quote

     Parallel version (MPI), running on   288 processors
     K-points division:     npool     =     288
     Waiting for input...
     Reading input from standard input
     Message from routine read_cards :
     DEPRECATED: no units specified in ATOMIC_POSITIONS card
     Message from routine read_cards :
     ATOMIC_POSITIONS: units set to alat

     Current dimensions of program PWSCF are:
     Max number of different atomic species (ntypx) = 10
     Max number of k-points (npk) = 400000
     Max angular momentum in pseudopotentials (lmaxx) =  3

     Subspace diagonalization in iterative solution of the eigenvalue problem:
     a serial algorithm will be used

 
     G-vector sticks info
     --------------------
     sticks:   dense  smooth     PW     G-vecs:    dense   smooth      PW
     Sum        1097     541    173                22831     8007    1433
 


     bravais-lattice index     =            3
     lattice parameter (alat)  =       6.3528  a.u.
     unit-cell volume          =     128.1952 (a.u.)^3
     number of atoms/cell      =            1
     number of atomic types    =            1
     number of electrons       =         3.00
     number of Kohn-Sham states=            6
     kinetic-energy cutoff     =      60.0000  Ry
     charge density cutoff     =     480.0000  Ry
     convergence threshold     =      1.0E-11
     mixing beta               =       0.7000
     number of iterations used =            8  plain     mixing
     Exchange-correlation      =  SLA  PW   PBX  PBC ( 1  4  3  4 0 0)

     celldm(1)=   6.352831  celldm(2)=   0.000000  celldm(3)=   0.000000
     celldm(4)=   0.000000  celldm(5)=   0.000000  celldm(6)=   0.000000

     crystal axes: (cart. coord. in units of alat)
               a(1) = (   0.500000   0.500000   0.500000 )  
               a(2) = (  -0.500000   0.500000   0.500000 )  
               a(3) = (  -0.500000  -0.500000   0.500000 )  

     reciprocal axes: (cart. coord. in units 2 pi/alat)
               b(1) = (  1.000000  0.000000  1.000000 )  
               b(2) = ( -1.000000  1.000000  0.000000 )  
               b(3) = (  0.000000 -1.000000  1.000000 )  


     PseudoPot. # 1 for Li read from file:
     ../Li.pbe-s-gbrv14.UPF
     MD5 check sum: 7ca33c4f951f001da2db5c8738379802
     Pseudo is Ultrasoft, Zval =  3.0
     Generated by new atomic code, or converted to UPF format
     Using radial grid of  751 points,  5 beta functions with: 
                l(1) =   0
                l(2) =   0
                l(3) =   0
                l(4) =   1
                l(5) =   1
     Q(r) pseudized with 10 coefficients,  rinner =    1.150   1.150   1.150


     atomic species   valence    mass     pseudopotential
        Li             3.00     6.94100     Li( 1.00)

     48 Sym. Ops., with inversion, found



   Cartesian axes

     site n.     atom                  positions (alat units)
         1           Li  tau(   1) = (   0.0000000   0.0000000   0.0000000  )

     number of k points=   616  Marzari-Vanderbilt smearing, width (Ry)=  0.0200

     Number of k-points >= 100: set verbosity='high' to print them.

     Dense  grid:    22831 G-vectors     FFT dimensions: (  40,  40,  40)

     Smooth grid:     8007 G-vectors     FFT dimensions: (  27,  27,  27)

     Largest allocated arrays     est. size (Mb)     dimensions
        Kohn-Sham Wavefunctions         0.09 Mb     (    1032,    6)
        NL pseudopotentials             0.14 Mb     (    1032,    9)
        Each V/rho on FFT grid          0.98 Mb     (   64000)
        Each G-vector array             0.17 Mb     (   22831)
        G-vector shells                 0.00 Mb     (     227)
     Largest temporary arrays     est. size (Mb)     dimensions
        Auxiliary wavefunctions         0.38 Mb     (    1032,   24)
        Each subspace H/S matrix        0.01 Mb     (      24,   24)
        Each <psi_i|beta_j> matrix      0.00 Mb     (       9,    6)
        Arrays for rho mixing           7.81 Mb     (   64000,    8)

     Initial potential from superposition of free atoms

     starting charge    2.54926, renormalised to    3.00000
     Starting wfc are    5 randomized atomic wfcs +    1 random wfc

     total cpu time spent up to now is        1.9 secs

     per-process dynamical memory:    20.0 Mb

     Self-consistent Calculation

     iteration #  1     ecut=    60.00 Ry     beta=0.70
     Davidson diagonalization with overlap
     ethr =  1.00E-02,  avg # of iterations =  5.3

     total cpu time spent up to now is        2.4 secs

     total energy              =     -14.46664821 Ry
     Harris-Foulkes estimate   =     -14.58389712 Ry
     estimated scf accuracy    <       0.16221578 Ry

     iteration #  2     ecut=    60.00 Ry     beta=0.70
     Davidson diagonalization with overlap
     ethr =  5.41E-03,  avg # of iterations =  1.0

     total cpu time spent up to now is        2.5 secs

     total energy              =     -14.47003094 Ry
     Harris-Foulkes estimate   =     -14.47556225 Ry
     estimated scf accuracy    <       0.00738455 Ry

     iteration #  3     ecut=    60.00 Ry     beta=0.70
     Davidson diagonalization with overlap
     ethr =  2.46E-04,  avg # of iterations =  2.2

     total cpu time spent up to now is        2.7 secs

     total energy              =     -14.47177492 Ry
     Harris-Foulkes estimate   =     -14.47177143 Ry
     estimated scf accuracy    <       0.00003927 Ry

     iteration #  4     ecut=    60.00 Ry     beta=0.70
     Davidson diagonalization with overlap
     ethr =  1.31E-06,  avg # of iterations =  4.2

     total cpu time spent up to now is        2.9 secs

     total energy              =     -14.47178377 Ry
     Harris-Foulkes estimate   =     -14.47178410 Ry
     estimated scf accuracy    <       0.00000103 Ry

     iteration #  5     ecut=    60.00 Ry     beta=0.70
     Davidson diagonalization with overlap
     ethr =  3.45E-08,  avg # of iterations =  2.0

     total cpu time spent up to now is        3.1 secs

     total energy              =     -14.47178409 Ry
     Harris-Foulkes estimate   =     -14.47178409 Ry
     estimated scf accuracy    <       0.00000001 Ry

     iteration #  6     ecut=    60.00 Ry     beta=0.70
     Davidson diagonalization with overlap
     ethr =  4.01E-10,  avg # of iterations =  2.3

     total cpu time spent up to now is        3.3 secs

     total energy              =     -14.47178410 Ry
     Harris-Foulkes estimate   =     -14.47178410 Ry
     estimated scf accuracy    <          2.5E-09 Ry

     iteration #  7     ecut=    60.00 Ry     beta=0.70
     Davidson diagonalization with overlap
     ethr =  8.22E-11,  avg # of iterations =  1.0

     total cpu time spent up to now is        3.4 secs

     End of self-consistent calculation

     Number of k-points >= 100: set verbosity='high' to print the bands.

     the Fermi energy is     1.1626 ev

!    total energy              =     -14.47178410 Ry
     Harris-Foulkes estimate   =     -14.47178410 Ry
     estimated scf accuracy    <          3.7E-13 Ry

     The total energy is the sum of the following terms:

     one-electron contribution =      -9.54312186 Ry
     hartree contribution      =       3.61363910 Ry
     xc contribution           =      -3.38653058 Ry
     ewald contribution        =      -5.15567013 Ry
     smearing contrib. (-TS)   =      -0.00010062 Ry

     convergence has been achieved in   7 iterations


     entering subroutine stress ...

          total   stress  (Ry/bohr**3)                   (kbar)     P=    9.99
   0.00006792   0.00000000  -0.00000000          9.99      0.00     -0.00
   0.00000000   0.00006792   0.00000000          0.00      9.99      0.00
  -0.00000000   0.00000000   0.00006792         -0.00      0.00      9.99


     Writing output data file li-bcc.save
 
     init_run     :      0.97s CPU      1.04s WALL (       1 calls)
     electrons    :      1.45s CPU      1.54s WALL (       1 calls)
     stress       :      0.12s CPU      0.12s WALL (       1 calls)

     Called by init_run:
     wfcinit      :      0.02s CPU      0.04s WALL (       1 calls)
     potinit      :      0.77s CPU      0.78s WALL (       1 calls)

     Called by electrons:
     c_bands      :      0.38s CPU      0.39s WALL (       7 calls)
     sum_band     :      0.29s CPU      0.31s WALL (       7 calls)
     v_of_rho     :      0.34s CPU      0.35s WALL (       8 calls)
     newd         :      0.14s CPU      0.15s WALL (       8 calls)
     mix_rho      :      0.04s CPU      0.04s WALL (       7 calls)

     Called by c_bands:
     init_us_2    :      0.02s CPU      0.01s WALL (      48 calls)
     cegterg      :      0.31s CPU      0.32s WALL (      21 calls)

     Called by sum_band:
     sum_band:bec :      0.00s CPU      0.00s WALL (      21 calls)
     addusdens    :      0.15s CPU      0.16s WALL (       7 calls)

     Called by *egterg:
     h_psi        :      0.30s CPU      0.30s WALL (      98 calls)
     s_psi        :      0.00s CPU      0.00s WALL (      98 calls)
     g_psi        :      0.00s CPU      0.00s WALL (      74 calls)
     cdiaghg      :      0.01s CPU      0.01s WALL (      95 calls)

     Called by h_psi:
     add_vuspsi   :      0.00s CPU      0.00s WALL (      98 calls)

     General routines
     calbec       :      0.00s CPU      0.00s WALL (     122 calls)
     fft          :      0.25s CPU      0.23s WALL (     129 calls)
     ffts         :      0.01s CPU      0.01s WALL (      15 calls)
     fftw         :      0.28s CPU      0.29s WALL (     862 calls)
     interpolate  :      0.04s CPU      0.04s WALL (      15 calls)
     davcio       :      0.00s CPU      0.00s WALL (       3 calls)
 
     Parallel routines
     fft_scatter  :      0.06s CPU      0.04s WALL (    1006 calls)
 
     PWSCF        :  0m 4.51s CPU     1m33.75s WALL

 
   This run was terminated on:  14:34:45   3Jun2016            

=------------------------------------------------------------------------------=
   JOB DONE.
=------------------------------------------------------------------------------=
Application 21909283 resources: utime ~26769s, stime ~120s, Rss ~49568, inblocks ~1623370, outblocks ~1270665
