
     Program PWSCF v.6.1 (svn rev. 13369) starts on 21Dec2017 at 11:49:39 

     This program is part of the open-source Quantum ESPRESSO suite
     for quantum simulation of materials; please cite
         "P. Giannozzi et al., J. Phys.:Condens. Matter 21 395502 (2009);
          URL http://www.quantum-espresso.org", 
     in publications or presentations arising from this work. More details at
     http://www.quantum-espresso.org/quote

     Parallel version (MPI), running on     4 processors
     R & G space division:  proc/nbgrp/npool/nimage =       4
     Waiting for input...
     Reading input from standard input

     Current dimensions of program PWSCF are:
     Max number of different atomic species (ntypx) = 10
     Max number of k-points (npk) =  40000
     Max angular momentum in pseudopotentials (lmaxx) =  3

     Subspace diagonalization in iterative solution of the eigenvalue problem:
     a serial algorithm will be used


     Parallelization info
     --------------------
     sticks:   dense  smooth     PW     G-vecs:    dense   smooth      PW
     Min         210     103     34                 3920     1367     263
     Max         211     104     35                 3923     1369     265
     Sum         841     415    137                15683     5473    1055



     bravais-lattice index     =            3
     lattice parameter (alat)  =       6.8761  a.u.
     unit-cell volume          =     162.5518 (a.u.)^3
     number of atoms/cell      =            1
     number of atomic types    =            1
     number of electrons       =         9.00
     number of Kohn-Sham states=            9
     kinetic-energy cutoff     =      40.0000  Ry
     charge density cutoff     =     320.0000  Ry
     convergence threshold     =      1.0E-08
     mixing beta               =       0.7000
     number of iterations used =            8  plain     mixing
     Exchange-correlation      = SLA  PW   PBE  PBE ( 1  4  3  4 0 0)

     celldm(1)=   6.876075  celldm(2)=   0.000000  celldm(3)=   0.000000
     celldm(4)=   0.000000  celldm(5)=   0.000000  celldm(6)=   0.000000

     crystal axes: (cart. coord. in units of alat)
               a(1) = (   0.500000   0.500000   0.500000 )  
               a(2) = (  -0.500000   0.500000   0.500000 )  
               a(3) = (  -0.500000  -0.500000   0.500000 )  

     reciprocal axes: (cart. coord. in units 2 pi/alat)
               b(1) = (  1.000000  0.000000  1.000000 )  
               b(2) = ( -1.000000  1.000000  0.000000 )  
               b(3) = (  0.000000 -1.000000  1.000000 )  


     PseudoPot. # 1 for Na read from file:
     /home/s1333534/quantum_espresso/qe-6.1/pseudo/Na_pbe_v1.uspp.F.UPF
     MD5 check sum: 76a99c7e9422403d3e93cbc85ab7bccb
     Pseudo is Ultrasoft, Zval =  9.0
     Generated by new atomic code, or converted to UPF format
     Using radial grid of  819 points,  5 beta functions with: 
                l(1) =   0
                l(2) =   0
                l(3) =   1
                l(4) =   1
                l(5) =   2
     Q(r) pseudized with  8 coefficients,  rinner =    1.250   1.250   1.250
                                                       1.250   1.250

     atomic species   valence    mass     pseudopotential
        Na             9.00    22.99000     Na( 1.00)

     48 Sym. Ops., with inversion, found



   Cartesian axes

     site n.     atom                  positions (alat units)
         1           Na  tau(   1) = (   0.0000000   0.0000000   0.0000000  )

     number of k points=   100  Marzari-Vanderbilt smearing, width (Ry)=  0.0200

     Number of k-points >= 100: set verbosity='high' to print them.

     Dense  grid:    15683 G-vectors     FFT dimensions: (  36,  36,  36)

     Smooth grid:     5473 G-vectors     FFT dimensions: (  24,  24,  24)

     Estimated max dynamical RAM per process >       5.02MB

     Estimated total allocated dynamical RAM >      20.07MB

     Initial potential from superposition of free atoms

     starting charge    8.99371, renormalised to    9.00000
     Starting wfc are    5 randomized atomic wfcs +    4 random wfc

     total cpu time spent up to now is        0.4 secs

     per-process dynamical memory:     9.6 Mb

     Self-consistent Calculation

     iteration #  1     ecut=    40.00 Ry     beta=0.70
     Davidson diagonalization with overlap
     ethr =  1.00E-02,  avg # of iterations =  5.5

     Threshold (ethr) on eigenvalues was too large:
     Diagonalizing with lowered threshold

     Davidson diagonalization with overlap
     ethr =  1.54E-05,  avg # of iterations =  3.4

     total cpu time spent up to now is        1.5 secs

     total energy              =     -95.09088614 Ry
     Harris-Foulkes estimate   =     -95.09140001 Ry
     estimated scf accuracy    <       0.00138602 Ry

     iteration #  2     ecut=    40.00 Ry     beta=0.70
     Davidson diagonalization with overlap
     ethr =  1.54E-05,  avg # of iterations =  2.0

     total cpu time spent up to now is        1.8 secs

     total energy              =     -95.09107206 Ry
     Harris-Foulkes estimate   =     -95.09111306 Ry
     estimated scf accuracy    <       0.00015813 Ry

     iteration #  3     ecut=    40.00 Ry     beta=0.70
     Davidson diagonalization with overlap
     ethr =  1.76E-06,  avg # of iterations =  2.1

     total cpu time spent up to now is        2.2 secs

     total energy              =     -95.09109141 Ry
     Harris-Foulkes estimate   =     -95.09109258 Ry
     estimated scf accuracy    <       0.00000933 Ry

     iteration #  4     ecut=    40.00 Ry     beta=0.70
     Davidson diagonalization with overlap
     ethr =  1.04E-07,  avg # of iterations =  1.0

     total cpu time spent up to now is        2.6 secs

     total energy              =     -95.09109222 Ry
     Harris-Foulkes estimate   =     -95.09109217 Ry
     estimated scf accuracy    <       0.00000001 Ry

     iteration #  5     ecut=    40.00 Ry     beta=0.70
     Davidson diagonalization with overlap
     ethr =  1.39E-10,  avg # of iterations =  3.0

     total cpu time spent up to now is        3.0 secs

     End of self-consistent calculation

     Number of k-points >= 100: set verbosity='high' to print the bands.

     the Fermi energy is     3.9091 ev

!    total energy              =     -95.09109226 Ry
     Harris-Foulkes estimate   =     -95.09109225 Ry
     estimated scf accuracy    <          1.7E-09 Ry

     The total energy is the sum of the following terms:

     one-electron contribution =     -78.13487319 Ry
     hartree contribution      =      40.24639769 Ry
     xc contribution           =     -14.33247189 Ry
     ewald contribution        =     -42.87008457 Ry
     smearing contrib. (-TS)   =      -0.00006030 Ry

     convergence has been achieved in   5 iterations


     Computing stress (Cartesian axis) and pressure

          total   stress  (Ry/bohr**3)                   (kbar)     P=   69.60
   0.00047313  -0.00000000   0.00000000         69.60     -0.00      0.00
  -0.00000000   0.00047313  -0.00000000         -0.00     69.60     -0.00
   0.00000000  -0.00000000   0.00047313          0.00     -0.00     69.60


     Writing output data file na.bcc.save

     init_run     :      0.29s CPU      0.33s WALL (       1 calls)
     electrons    :      2.55s CPU      2.63s WALL (       1 calls)
     stress       :      0.19s CPU      0.20s WALL (       1 calls)

     Called by init_run:
     wfcinit      :      0.12s CPU      0.14s WALL (       1 calls)
     potinit      :      0.05s CPU      0.05s WALL (       1 calls)

     Called by electrons:
     c_bands      :      2.03s CPU      2.10s WALL (       6 calls)
     sum_band     :      0.42s CPU      0.43s WALL (       6 calls)
     v_of_rho     :      0.08s CPU      0.08s WALL (       6 calls)
     newd         :      0.05s CPU      0.07s WALL (       6 calls)
     mix_rho      :      0.00s CPU      0.00s WALL (       6 calls)

     Called by c_bands:
     init_us_2    :      0.12s CPU      0.11s WALL (    1400 calls)
     cegterg      :      1.92s CPU      1.99s WALL (     600 calls)

     Called by sum_band:
     sum_band:bec :      0.00s CPU      0.00s WALL (     600 calls)
     addusdens    :      0.07s CPU      0.07s WALL (       6 calls)

     Called by *egterg:
     h_psi        :      1.47s CPU      1.53s WALL (    2402 calls)
     s_psi        :      0.03s CPU      0.02s WALL (    2402 calls)
     g_psi        :      0.01s CPU      0.01s WALL (    1702 calls)
     cdiaghg      :      0.34s CPU      0.35s WALL (    2202 calls)

     Called by h_psi:
     h_psi:pot    :      1.47s CPU      1.52s WALL (    2402 calls)
     h_psi:calbec :      0.04s CPU      0.04s WALL (    2402 calls)
     vloc_psi     :      1.40s CPU      1.45s WALL (    2402 calls)
     add_vuspsi   :      0.02s CPU      0.03s WALL (    2402 calls)

     General routines
     calbec       :      0.06s CPU      0.06s WALL (    3102 calls)
     fft          :      0.02s CPU      0.03s WALL (     101 calls)
     ffts         :      0.00s CPU      0.00s WALL (      12 calls)
     fftw         :      1.54s CPU      1.48s WALL (   35164 calls)
     interpolate  :      0.01s CPU      0.01s WALL (      12 calls)
     davcio       :      0.00s CPU      0.00s WALL (     100 calls)

     Parallel routines
     fft_scatter  :      0.26s CPU      0.30s WALL (   35277 calls)

     PWSCF        :     3.19s CPU         3.34s WALL


   This run was terminated on:  11:49:43  21Dec2017            

=------------------------------------------------------------------------------=
   JOB DONE.
=------------------------------------------------------------------------------=
