
     Program PHONON v.6.1 (svn rev. 13369) starts on 21Dec2017 at 11:49:43 

     This program is part of the open-source Quantum ESPRESSO suite
     for quantum simulation of materials; please cite
         "P. Giannozzi et al., J. Phys.:Condens. Matter 21 395502 (2009);
          URL http://www.quantum-espresso.org", 
     in publications or presentations arising from this work. More details at
     http://www.quantum-espresso.org/quote

     Parallel version (MPI), running on     4 processors
     R & G space division:  proc/nbgrp/npool/nimage =       4

     Reading data from directory:
     ./na.bcc.save

   Info: using nr1, nr2, nr3 values from input

   Info: using nr1, nr2, nr3 values from input

     IMPORTANT: XC functional enforced from input :
     Exchange-correlation      = SLA  PW   PBE  PBE ( 1  4  3  4 0 0)
     Any further DFT definition will be discarded
     Please, verify this is what you really want


     Parallelization info
     --------------------
     sticks:   dense  smooth     PW     G-vecs:    dense   smooth      PW
     Min         210     103     34                 3920     1367     263
     Max         211     104     35                 3923     1369     265
     Sum         841     415    137                15683     5473    1055



     Dynamical matrices for ( 8, 8, 8)  uniform grid of q-points
     (  29q-points):
       N         xq(1)         xq(2)         xq(3) 
       1   0.000000000   0.000000000   0.000000000
       2   0.000000000  -0.125000000   0.125000000
       3   0.000000000  -0.250000000   0.250000000
       4   0.000000000  -0.375000000   0.375000000
       5   0.000000000   0.500000000  -0.500000000
       6  -0.125000000  -0.125000000   0.250000000
       7  -0.125000000  -0.250000000   0.375000000
       8  -0.125000000   0.625000000  -0.500000000
       9  -0.250000000   0.750000000  -0.500000000
      10  -0.250000000   0.625000000  -0.375000000
      11   0.000000000   0.000000000   0.250000000
      12   0.000000000  -0.125000000   0.375000000
      13   0.000000000  -0.250000000   0.500000000
      14   0.000000000   0.625000000  -0.375000000
      15  -0.125000000  -0.125000000   0.500000000
      16  -0.125000000   0.750000000  -0.375000000
      17  -0.250000000   0.250000000   0.250000000
      18  -0.250000000   0.750000000  -0.250000000
      19   0.625000000  -0.625000000   0.250000000
      20   0.500000000  -0.500000000   0.250000000
      21   0.500000000  -0.625000000   0.375000000
      22   0.000000000   0.000000000   0.500000000
      23   0.000000000  -0.125000000   0.625000000
      24   0.000000000   0.750000000  -0.250000000
      25  -0.125000000   0.875000000  -0.250000000
      26   0.500000000  -0.500000000   0.500000000
      27   0.000000000   0.000000000   0.750000000
      28   0.000000000   0.875000000  -0.125000000
      29   0.000000000   0.000000000  -1.000000000

     Calculation of q =    0.0000000   0.0000000   0.0000000

                                                                                

     bravais-lattice index     =            3
     lattice parameter (alat)  =       6.8761  a.u.
     unit-cell volume          =     162.5518 (a.u.)^3
     number of atoms/cell      =            1
     number of atomic types    =            1
     kinetic-energy cut-off    =      40.0000  Ry
     charge density cut-off    =     320.0000  Ry
     convergence threshold     =      1.0E-12
     beta                      =       0.7000
     number of iterations used =            4
     Exchange-correlation      = SLA  PW   PBE  PBE ( 1  4  3  4 0 0)


     celldm(1)=    6.87607  celldm(2)=    0.00000  celldm(3)=    0.00000
     celldm(4)=    0.00000  celldm(5)=    0.00000  celldm(6)=    0.00000

     crystal axes: (cart. coord. in units of alat)
               a(1) = (  0.5000  0.5000  0.5000 )  
               a(2) = ( -0.5000  0.5000  0.5000 )  
               a(3) = ( -0.5000 -0.5000  0.5000 )  

     reciprocal axes: (cart. coord. in units 2 pi/alat)
               b(1) = (  1.0000  0.0000  1.0000 )  
               b(2) = ( -1.0000  1.0000  0.0000 )  
               b(3) = (  0.0000 -1.0000  1.0000 )  


     Atoms inside the unit cell: 

     Cartesian axes

     site n.  atom      mass           positions (alat units)
        1     Na  22.9900   tau(    1) = (    0.00000    0.00000    0.00000  )

     Computing dynamical matrix for 
                    q = (   0.0000000   0.0000000   0.0000000 )

     49 Sym.Ops. (with q -> -q+G )


     G cutoff =  383.2405  (   3920 G-vectors)     FFT grid: ( 36, 36, 36)
     G cutoff =  191.6203  (   1368 G-vectors)  smooth grid: ( 24, 24, 24)

     number of k points=   100  Marzari-Vanderbilt smearing, width (Ry)=  0.0200

     PseudoPot. # 1 for Na read from file:
     /home/s1333534/quantum_espresso/qe-6.1/pseudo/Na_pbe_v1.uspp.F.UPF
     MD5 check sum: 76a99c7e9422403d3e93cbc85ab7bccb
     Pseudo is Ultrasoft, Zval =  9.0
     Generated by new atomic code, or converted to UPF format
     Using radial grid of  819 points,  5 beta functions with: 
                l(1) =   0
                l(2) =   0
                l(3) =   1
                l(4) =   1
                l(5) =   2
     Q(r) pseudized with  8 coefficients,  rinner =    1.250   1.250   1.250
                                                       1.250   1.250

     Mode symmetry, O_h (m-3m)  point group:


     Atomic displacements:
     There are   1 irreducible representations

     Representation     1      3 modes -T_1u G_15  G_4-  To be done



     Alpha used in Ewald sum =   2.8000
     PHONON       :     0.95s CPU         0.99s WALL



     Representation #  1 modes #   1  2  3

     Self-consistent Calculation

     Pert. #  1: Fermi energy shift (Ry) =     4.1359E-25    -1.5673E-38
     Pert. #  2: Fermi energy shift (Ry) =     6.8932E-25    -1.8024E-37
     Pert. #  3: Fermi energy shift (Ry) =     6.8932E-26    -9.4040E-38

      iter #   1 total cpu time :     2.8 secs   av.it.:   5.4
      thresh= 1.000E-02 alpha_mix =  0.700 |ddv_scf|^2 =  2.618E-06

     Pert. #  1: Fermi energy shift (Ry) =     8.2718E-25     1.5918E-39
     Pert. #  2: Fermi energy shift (Ry) =    -1.3786E-25     7.3468E-40
     Pert. #  3: Fermi energy shift (Ry) =    -1.3786E-25    -9.7958E-40

      iter #   2 total cpu time :     4.9 secs   av.it.:   8.3
      thresh= 1.618E-04 alpha_mix =  0.700 |ddv_scf|^2 =  5.202E-08

     Pert. #  1: Fermi energy shift (Ry) =    -1.1029E-24    -4.2857E-40
     Pert. #  2: Fermi energy shift (Ry) =    -4.1359E-25     3.3673E-40
     Pert. #  3: Fermi energy shift (Ry) =     5.5145E-25    -3.9795E-40

      iter #   3 total cpu time :     7.0 secs   av.it.:   8.5
      thresh= 2.281E-05 alpha_mix =  0.700 |ddv_scf|^2 =  5.213E-10

     Pert. #  1: Fermi energy shift (Ry) =     8.2718E-25    -1.5306E-40
     Pert. #  2: Fermi energy shift (Ry) =     4.1359E-25     1.3010E-40
     Pert. #  3: Fermi energy shift (Ry) =    -8.2718E-25    -1.5306E-40

      iter #   4 total cpu time :     9.0 secs   av.it.:   8.0
      thresh= 2.283E-06 alpha_mix =  0.700 |ddv_scf|^2 =  1.758E-12

     Pert. #  1: Fermi energy shift (Ry) =    -1.3786E-25     3.0612E-41
     Pert. #  2: Fermi energy shift (Ry) =     2.2058E-24     1.9132E-40
     Pert. #  3: Fermi energy shift (Ry) =    -2.7573E-25    -8.4183E-41

      iter #   5 total cpu time :    11.0 secs   av.it.:   8.2
      thresh= 1.326E-07 alpha_mix =  0.700 |ddv_scf|^2 =  8.746E-15

     End of self-consistent calculation

     Convergence has been achieved 

     Number of q in the star =    1
     List of q in the star:
          1   0.000000000   0.000000000   0.000000000

     Diagonalizing the dynamical matrix

     q = (    0.000000000   0.000000000   0.000000000 ) 

 **************************************************************************
     freq (    1) =       0.167267 [THz] =       5.579418 [cm-1]
     freq (    2) =       0.167267 [THz] =       5.579418 [cm-1]
     freq (    3) =       0.167267 [THz] =       5.579418 [cm-1]
 **************************************************************************

     Mode symmetry, O_h (m-3m)  point group:

     freq (  1 -  3) =          5.6  [cm-1]   --> T_1u G_15  G_4- I  

     Calculation of q =    0.0000000  -0.1250000   0.1250000

   Info: using nr1, nr2, nr3 values from input

   Info: using nr1, nr2, nr3 values from input

     Parallelization info
     --------------------
     sticks:   dense  smooth     PW     G-vecs:    dense   smooth      PW
     Min         210     103     34                 3920     1367     265
     Max         211     104     35                 3923     1369     266
     Sum         841     415    139                15683     5473    1061



     bravais-lattice index     =            3
     lattice parameter (alat)  =       6.8761  a.u.
     unit-cell volume          =     162.5518 (a.u.)^3
     number of atoms/cell      =            1
     number of atomic types    =            1
     number of electrons       =         9.00
     number of Kohn-Sham states=            9
     kinetic-energy cutoff     =      40.0000  Ry
     charge density cutoff     =     320.0000  Ry
     Exchange-correlation      = SLA  PW   PBE  PBE ( 1  4  3  4 0 0)

     celldm(1)=   6.876075  celldm(2)=   0.000000  celldm(3)=   0.000000
     celldm(4)=   0.000000  celldm(5)=   0.000000  celldm(6)=   0.000000

     crystal axes: (cart. coord. in units of alat)
               a(1) = (   0.500000   0.500000   0.500000 )  
               a(2) = (  -0.500000   0.500000   0.500000 )  
               a(3) = (  -0.500000  -0.500000   0.500000 )  

     reciprocal axes: (cart. coord. in units 2 pi/alat)
               b(1) = (  1.000000  0.000000  1.000000 )  
               b(2) = ( -1.000000  1.000000  0.000000 )  
               b(3) = (  0.000000 -1.000000  1.000000 )  


     PseudoPot. # 1 for Na read from file:
     /home/s1333534/quantum_espresso/qe-6.1/pseudo/Na_pbe_v1.uspp.F.UPF
     MD5 check sum: 76a99c7e9422403d3e93cbc85ab7bccb
     Pseudo is Ultrasoft, Zval =  9.0
     Generated by new atomic code, or converted to UPF format
     Using radial grid of  819 points,  5 beta functions with: 
                l(1) =   0
                l(2) =   0
                l(3) =   1
                l(4) =   1
                l(5) =   2
     Q(r) pseudized with  8 coefficients,  rinner =    1.250   1.250   1.250
                                                       1.250   1.250

     atomic species   valence    mass     pseudopotential
        Na             9.00    22.99000     Na( 1.00)

     48 Sym. Ops., with inversion, found



   Cartesian axes

     site n.     atom                  positions (alat units)
         1           Na  tau(   1) = (   0.0000000   0.0000000   0.0000000  )

     number of k points=  1568  Marzari-Vanderbilt smearing, width (Ry)=  0.0200

     Number of k-points >= 100: set verbosity='high' to print them.

     Dense  grid:    15683 G-vectors     FFT dimensions: (  36,  36,  36)

     Smooth grid:     5473 G-vectors     FFT dimensions: (  24,  24,  24)

     Estimated max dynamical RAM per process >       1.54MB

     Estimated total allocated dynamical RAM >       6.14MB

     The potential is recalculated from file :
     ./_ph0/na.bcc.save/charge-density.dat

     Starting wfc are    5 atomic +    4 random wfc

     Band Structure Calculation
     Davidson diagonalization with overlap

     ethr =  1.11E-10,  avg # of iterations = 18.2

     total cpu time spent up to now is       26.8 secs

     End of band structure calculation

     Number of k-points >= 100: set verbosity='high' to print the bands.

     the Fermi energy is     3.9090 ev

     Writing output data file na.bcc.save

                                                                                

     bravais-lattice index     =            3
     lattice parameter (alat)  =       6.8761  a.u.
     unit-cell volume          =     162.5518 (a.u.)^3
     number of atoms/cell      =            1
     number of atomic types    =            1
     kinetic-energy cut-off    =      40.0000  Ry
     charge density cut-off    =     320.0000  Ry
     convergence threshold     =      1.0E-12
     beta                      =       0.7000
     number of iterations used =            4
     Exchange-correlation      = SLA  PW   PBE  PBE ( 1  4  3  4 0 0)


     celldm(1)=    6.87607  celldm(2)=    0.00000  celldm(3)=    0.00000
     celldm(4)=    0.00000  celldm(5)=    0.00000  celldm(6)=    0.00000

     crystal axes: (cart. coord. in units of alat)
               a(1) = (  0.5000  0.5000  0.5000 )  
               a(2) = ( -0.5000  0.5000  0.5000 )  
               a(3) = ( -0.5000 -0.5000  0.5000 )  

     reciprocal axes: (cart. coord. in units 2 pi/alat)
               b(1) = (  1.0000  0.0000  1.0000 )  
               b(2) = ( -1.0000  1.0000  0.0000 )  
               b(3) = (  0.0000 -1.0000  1.0000 )  


     Atoms inside the unit cell: 

     Cartesian axes

     site n.  atom      mass           positions (alat units)
        1     Na  22.9900   tau(    1) = (    0.00000    0.00000    0.00000  )

     Computing dynamical matrix for 
                    q = (   0.0000000  -0.1250000   0.1250000 )

      4 Sym.Ops. (no q -> -q+G )


     G cutoff =  383.2405  (   3920 G-vectors)     FFT grid: ( 36, 36, 36)
     G cutoff =  191.6203  (   1368 G-vectors)  smooth grid: ( 24, 24, 24)

     number of k points=  1568  Marzari-Vanderbilt smearing, width (Ry)=  0.0200

     PseudoPot. # 1 for Na read from file:
     /home/s1333534/quantum_espresso/qe-6.1/pseudo/Na_pbe_v1.uspp.F.UPF
     MD5 check sum: 76a99c7e9422403d3e93cbc85ab7bccb
     Pseudo is Ultrasoft, Zval =  9.0
     Generated by new atomic code, or converted to UPF format
     Using radial grid of  819 points,  5 beta functions with: 
                l(1) =   0
                l(2) =   0
                l(3) =   1
                l(4) =   1
                l(5) =   2
     Q(r) pseudized with  8 coefficients,  rinner =    1.250   1.250   1.250
                                                       1.250   1.250

     Mode symmetry, C_2v (mm2)  point group:


     Atomic displacements:
     There are   3 irreducible representations

     Representation     1      1 modes -A_1  D_1  S_1  To be done

     Representation     2      1 modes -B_1  D_3  S_3  To be done

     Representation     3      1 modes -B_2  D_4  S_4  To be done



     Alpha used in Ewald sum =   2.8000
     PHONON       :    39.74s CPU        41.26s WALL



     Representation #  1 mode #   1

     Self-consistent Calculation

      iter #   1 total cpu time :    45.5 secs   av.it.:   5.7
      thresh= 1.000E-02 alpha_mix =  0.700 |ddv_scf|^2 =  3.378E-01

      iter #   2 total cpu time :    49.8 secs   av.it.:   7.1
      thresh= 1.000E-02 alpha_mix =  0.700 |ddv_scf|^2 =  1.274E+02

      iter #   3 total cpu time :    54.1 secs   av.it.:   7.1
      thresh= 1.000E-02 alpha_mix =  0.700 |ddv_scf|^2 =  2.397E-04

      iter #   4 total cpu time :    57.6 secs   av.it.:   5.3
      thresh= 1.548E-03 alpha_mix =  0.700 |ddv_scf|^2 =  5.762E-07

      iter #   5 total cpu time :    61.8 secs   av.it.:   6.9
      thresh= 7.590E-05 alpha_mix =  0.700 |ddv_scf|^2 =  2.865E-08

      iter #   6 total cpu time :    65.3 secs   av.it.:   5.5
      thresh= 1.693E-05 alpha_mix =  0.700 |ddv_scf|^2 =  3.897E-07

      iter #   7 total cpu time :    68.7 secs   av.it.:   5.1
      thresh= 6.242E-05 alpha_mix =  0.700 |ddv_scf|^2 =  6.234E-11

      iter #   8 total cpu time :    73.3 secs   av.it.:   7.8
      thresh= 7.896E-07 alpha_mix =  0.700 |ddv_scf|^2 =  3.150E-11

      iter #   9 total cpu time :    77.7 secs   av.it.:   6.8
      thresh= 5.613E-07 alpha_mix =  0.700 |ddv_scf|^2 =  1.205E-13

     End of self-consistent calculation

     Convergence has been achieved 


     Representation #  2 mode #   2

     Self-consistent Calculation

      iter #   1 total cpu time :    81.9 secs   av.it.:   5.4
      thresh= 1.000E-02 alpha_mix =  0.700 |ddv_scf|^2 =  2.372E-05

      iter #   2 total cpu time :    86.3 secs   av.it.:   7.3
      thresh= 4.870E-04 alpha_mix =  0.700 |ddv_scf|^2 =  4.647E-07

      iter #   3 total cpu time :    90.7 secs   av.it.:   7.5
      thresh= 6.817E-05 alpha_mix =  0.700 |ddv_scf|^2 =  5.006E-09

      iter #   4 total cpu time :    95.0 secs   av.it.:   7.2
      thresh= 7.075E-06 alpha_mix =  0.700 |ddv_scf|^2 =  1.669E-11

      iter #   5 total cpu time :    99.4 secs   av.it.:   7.3
      thresh= 4.086E-07 alpha_mix =  0.700 |ddv_scf|^2 =  7.500E-14

     End of self-consistent calculation

     Convergence has been achieved 


     Representation #  3 mode #   3

     Self-consistent Calculation

      iter #   1 total cpu time :   103.6 secs   av.it.:   5.4
      thresh= 1.000E-02 alpha_mix =  0.700 |ddv_scf|^2 =  2.424E-05

      iter #   2 total cpu time :   108.0 secs   av.it.:   7.3
      thresh= 4.923E-04 alpha_mix =  0.700 |ddv_scf|^2 =  4.620E-07

      iter #   3 total cpu time :   112.5 secs   av.it.:   7.5
      thresh= 6.797E-05 alpha_mix =  0.700 |ddv_scf|^2 =  5.949E-09

      iter #   4 total cpu time :   116.8 secs   av.it.:   7.2
      thresh= 7.713E-06 alpha_mix =  0.700 |ddv_scf|^2 =  2.015E-11

      iter #   5 total cpu time :   121.2 secs   av.it.:   7.3
      thresh= 4.488E-07 alpha_mix =  0.700 |ddv_scf|^2 =  7.424E-14

     End of self-consistent calculation

     Convergence has been achieved 

     Number of q in the star =   12
     List of q in the star:
          1   0.000000000  -0.125000000   0.125000000
          2   0.125000000   0.000000000   0.125000000
          3  -0.125000000   0.000000000   0.125000000
          4   0.000000000   0.125000000   0.125000000
          5   0.125000000  -0.125000000   0.000000000
          6  -0.125000000   0.000000000  -0.125000000
          7   0.125000000   0.000000000  -0.125000000
          8   0.000000000  -0.125000000  -0.125000000
          9  -0.125000000  -0.125000000   0.000000000
         10  -0.125000000   0.125000000   0.000000000
         11   0.125000000   0.125000000   0.000000000
         12   0.000000000   0.125000000  -0.125000000

     Diagonalizing the dynamical matrix

     q = (    0.000000000  -0.125000000   0.125000000 ) 

 **************************************************************************
     freq (    1) =       1.154093 [THz] =      38.496408 [cm-1]
     freq (    2) =       1.570623 [THz] =      52.390343 [cm-1]
     freq (    3) =       2.830084 [THz] =      94.401434 [cm-1]
 **************************************************************************

     Mode symmetry, C_2v (mm2)  point group:

     freq (  1 -  1) =         38.5  [cm-1]   --> B_1  D_3  S_3      
     freq (  2 -  2) =         52.4  [cm-1]   --> B_2  D_4  S_4      
     freq (  3 -  3) =         94.4  [cm-1]   --> A_1  D_1  S_1      

     Calculation of q =    0.0000000  -0.2500000   0.2500000

   Info: using nr1, nr2, nr3 values from input

   Info: using nr1, nr2, nr3 values from input

     Parallelization info
     --------------------
     sticks:   dense  smooth     PW     G-vecs:    dense   smooth      PW
     Min         210     103     37                 3920     1367     289
     Max         211     104     38                 3923     1369     290
     Sum         841     415    151                15683     5473    1157



     bravais-lattice index     =            3
     lattice parameter (alat)  =       6.8761  a.u.
     unit-cell volume          =     162.5518 (a.u.)^3
     number of atoms/cell      =            1
     number of atomic types    =            1
     number of electrons       =         9.00
     number of Kohn-Sham states=            9
     kinetic-energy cutoff     =      40.0000  Ry
     charge density cutoff     =     320.0000  Ry
     Exchange-correlation      = SLA  PW   PBE  PBE ( 1  4  3  4 0 0)

     celldm(1)=   6.876075  celldm(2)=   0.000000  celldm(3)=   0.000000
     celldm(4)=   0.000000  celldm(5)=   0.000000  celldm(6)=   0.000000

     crystal axes: (cart. coord. in units of alat)
               a(1) = (   0.500000   0.500000   0.500000 )  
               a(2) = (  -0.500000   0.500000   0.500000 )  
               a(3) = (  -0.500000  -0.500000   0.500000 )  

     reciprocal axes: (cart. coord. in units 2 pi/alat)
               b(1) = (  1.000000  0.000000  1.000000 )  
               b(2) = ( -1.000000  1.000000  0.000000 )  
               b(3) = (  0.000000 -1.000000  1.000000 )  


     PseudoPot. # 1 for Na read from file:
     /home/s1333534/quantum_espresso/qe-6.1/pseudo/Na_pbe_v1.uspp.F.UPF
     MD5 check sum: 76a99c7e9422403d3e93cbc85ab7bccb
     Pseudo is Ultrasoft, Zval =  9.0
     Generated by new atomic code, or converted to UPF format
     Using radial grid of  819 points,  5 beta functions with: 
                l(1) =   0
                l(2) =   0
                l(3) =   1
                l(4) =   1
                l(5) =   2
     Q(r) pseudized with  8 coefficients,  rinner =    1.250   1.250   1.250
                                                       1.250   1.250

     atomic species   valence    mass     pseudopotential
        Na             9.00    22.99000     Na( 1.00)

     48 Sym. Ops., with inversion, found



   Cartesian axes

     site n.     atom                  positions (alat units)
         1           Na  tau(   1) = (   0.0000000   0.0000000   0.0000000  )

     number of k points=  1568  Marzari-Vanderbilt smearing, width (Ry)=  0.0200

     Number of k-points >= 100: set verbosity='high' to print them.

     Dense  grid:    15683 G-vectors     FFT dimensions: (  36,  36,  36)

     Smooth grid:     5473 G-vectors     FFT dimensions: (  24,  24,  24)

     Estimated max dynamical RAM per process >       1.54MB

     Estimated total allocated dynamical RAM >       6.14MB

     The potential is recalculated from file :
     ./_ph0/na.bcc.save/charge-density.dat

     Starting wfc are    5 atomic +    4 random wfc

     Band Structure Calculation
     Davidson diagonalization with overlap

     ethr =  1.11E-10,  avg # of iterations = 18.2

     total cpu time spent up to now is       54.9 secs

     End of band structure calculation

     Number of k-points >= 100: set verbosity='high' to print the bands.

     the Fermi energy is     3.9090 ev

     Writing output data file na.bcc.save

                                                                                

     bravais-lattice index     =            3
     lattice parameter (alat)  =       6.8761  a.u.
     unit-cell volume          =     162.5518 (a.u.)^3
     number of atoms/cell      =            1
     number of atomic types    =            1
     kinetic-energy cut-off    =      40.0000  Ry
     charge density cut-off    =     320.0000  Ry
     convergence threshold     =      1.0E-12
     beta                      =       0.7000
     number of iterations used =            4
     Exchange-correlation      = SLA  PW   PBE  PBE ( 1  4  3  4 0 0)


     celldm(1)=    6.87607  celldm(2)=    0.00000  celldm(3)=    0.00000
     celldm(4)=    0.00000  celldm(5)=    0.00000  celldm(6)=    0.00000

     crystal axes: (cart. coord. in units of alat)
               a(1) = (  0.5000  0.5000  0.5000 )  
               a(2) = ( -0.5000  0.5000  0.5000 )  
               a(3) = ( -0.5000 -0.5000  0.5000 )  

     reciprocal axes: (cart. coord. in units 2 pi/alat)
               b(1) = (  1.0000  0.0000  1.0000 )  
               b(2) = ( -1.0000  1.0000  0.0000 )  
               b(3) = (  0.0000 -1.0000  1.0000 )  


     Atoms inside the unit cell: 

     Cartesian axes

     site n.  atom      mass           positions (alat units)
        1     Na  22.9900   tau(    1) = (    0.00000    0.00000    0.00000  )

     Computing dynamical matrix for 
                    q = (   0.0000000  -0.2500000   0.2500000 )

      4 Sym.Ops. (no q -> -q+G )


     G cutoff =  383.2405  (   3920 G-vectors)     FFT grid: ( 36, 36, 36)
     G cutoff =  191.6203  (   1368 G-vectors)  smooth grid: ( 24, 24, 24)

     number of k points=  1568  Marzari-Vanderbilt smearing, width (Ry)=  0.0200

     PseudoPot. # 1 for Na read from file:
     /home/s1333534/quantum_espresso/qe-6.1/pseudo/Na_pbe_v1.uspp.F.UPF
     MD5 check sum: 76a99c7e9422403d3e93cbc85ab7bccb
     Pseudo is Ultrasoft, Zval =  9.0
     Generated by new atomic code, or converted to UPF format
     Using radial grid of  819 points,  5 beta functions with: 
                l(1) =   0
                l(2) =   0
                l(3) =   1
                l(4) =   1
                l(5) =   2
     Q(r) pseudized with  8 coefficients,  rinner =    1.250   1.250   1.250
                                                       1.250   1.250

     Mode symmetry, C_2v (mm2)  point group:


     Atomic displacements:
     There are   3 irreducible representations

     Representation     1      1 modes -A_1  D_1  S_1  To be done

     Representation     2      1 modes -B_1  D_3  S_3  To be done

     Representation     3      1 modes -B_2  D_4  S_4  To be done



     Alpha used in Ewald sum =   2.8000
     PHONON       :  2m24.84s CPU     2m31.71s WALL



     Representation #  1 mode #   1

     Self-consistent Calculation

      iter #   1 total cpu time :   155.9 secs   av.it.:   5.7
      thresh= 1.000E-02 alpha_mix =  0.700 |ddv_scf|^2 =  5.535E-03

      iter #   2 total cpu time :   159.9 secs   av.it.:   6.2
      thresh= 7.440E-03 alpha_mix =  0.700 |ddv_scf|^2 =  1.009E-01

      iter #   3 total cpu time :   163.7 secs   av.it.:   5.9
      thresh= 1.000E-02 alpha_mix =  0.700 |ddv_scf|^2 =  4.705E-06

      iter #   4 total cpu time :   168.0 secs   av.it.:   7.2
      thresh= 2.169E-04 alpha_mix =  0.700 |ddv_scf|^2 =  2.253E-08

      iter #   5 total cpu time :   172.7 secs   av.it.:   7.8
      thresh= 1.501E-05 alpha_mix =  0.700 |ddv_scf|^2 =  3.277E-09

      iter #   6 total cpu time :   177.2 secs   av.it.:   7.6
      thresh= 5.725E-06 alpha_mix =  0.700 |ddv_scf|^2 =  4.571E-11

      iter #   7 total cpu time :   181.7 secs   av.it.:   7.6
      thresh= 6.761E-07 alpha_mix =  0.700 |ddv_scf|^2 =  4.161E-12

      iter #   8 total cpu time :   186.1 secs   av.it.:   7.1
      thresh= 2.040E-07 alpha_mix =  0.700 |ddv_scf|^2 =  2.691E-11

      iter #   9 total cpu time :   189.8 secs   av.it.:   5.8
      thresh= 5.188E-07 alpha_mix =  0.700 |ddv_scf|^2 =  9.449E-13

     End of self-consistent calculation

     Convergence has been achieved 


     Representation #  2 mode #   2

     Self-consistent Calculation

      iter #   1 total cpu time :   194.0 secs   av.it.:   5.5
      thresh= 1.000E-02 alpha_mix =  0.700 |ddv_scf|^2 =  2.418E-05

      iter #   2 total cpu time :   198.5 secs   av.it.:   7.3
      thresh= 4.918E-04 alpha_mix =  0.700 |ddv_scf|^2 =  4.529E-07

      iter #   3 total cpu time :   203.0 secs   av.it.:   7.6
      thresh= 6.729E-05 alpha_mix =  0.700 |ddv_scf|^2 =  6.036E-09

      iter #   4 total cpu time :   207.3 secs   av.it.:   7.2
      thresh= 7.769E-06 alpha_mix =  0.700 |ddv_scf|^2 =  1.934E-11

      iter #   5 total cpu time :   211.8 secs   av.it.:   7.4
      thresh= 4.397E-07 alpha_mix =  0.700 |ddv_scf|^2 =  6.506E-14

     End of self-consistent calculation

     Convergence has been achieved 


     Representation #  3 mode #   3

     Self-consistent Calculation

      iter #   1 total cpu time :   216.0 secs   av.it.:   5.4
      thresh= 1.000E-02 alpha_mix =  0.700 |ddv_scf|^2 =  2.599E-05

      iter #   2 total cpu time :   220.5 secs   av.it.:   7.4
      thresh= 5.098E-04 alpha_mix =  0.700 |ddv_scf|^2 =  4.441E-07

      iter #   3 total cpu time :   225.0 secs   av.it.:   7.6
      thresh= 6.664E-05 alpha_mix =  0.700 |ddv_scf|^2 =  9.514E-09

      iter #   4 total cpu time :   229.4 secs   av.it.:   7.3
      thresh= 9.754E-06 alpha_mix =  0.700 |ddv_scf|^2 =  3.280E-11

      iter #   5 total cpu time :   233.8 secs   av.it.:   7.4
      thresh= 5.727E-07 alpha_mix =  0.700 |ddv_scf|^2 =  6.681E-14

     End of self-consistent calculation

     Convergence has been achieved 

     Number of q in the star =   12
     List of q in the star:
          1   0.000000000  -0.250000000   0.250000000
          2   0.250000000   0.000000000   0.250000000
          3  -0.250000000   0.000000000   0.250000000
          4   0.000000000   0.250000000   0.250000000
          5   0.250000000  -0.250000000   0.000000000
          6  -0.250000000   0.000000000  -0.250000000
          7   0.250000000   0.000000000  -0.250000000
          8   0.000000000  -0.250000000  -0.250000000
          9  -0.250000000  -0.250000000   0.000000000
         10  -0.250000000   0.250000000   0.000000000
         11   0.250000000   0.250000000   0.000000000
         12   0.000000000   0.250000000  -0.250000000

     Diagonalizing the dynamical matrix

     q = (    0.000000000  -0.250000000   0.250000000 ) 

 **************************************************************************
     freq (    1) =       1.550330 [THz] =      51.713427 [cm-1]
     freq (    2) =       2.579086 [THz] =      86.029056 [cm-1]
     freq (    3) =       4.923398 [THz] =     164.226883 [cm-1]
 **************************************************************************

     Mode symmetry, C_2v (mm2)  point group:

     freq (  1 -  1) =         51.7  [cm-1]   --> B_1  D_3  S_3      
     freq (  2 -  2) =         86.0  [cm-1]   --> B_2  D_4  S_4      
     freq (  3 -  3) =        164.2  [cm-1]   --> A_1  D_1  S_1      

     Calculation of q =    0.0000000  -0.3750000   0.3750000

   Info: using nr1, nr2, nr3 values from input

   Info: using nr1, nr2, nr3 values from input

     Parallelization info
     --------------------
     sticks:   dense  smooth     PW     G-vecs:    dense   smooth      PW
     Min         210     103     39                 3920     1367     312
     Max         211     104     40                 3923     1369     314
     Sum         841     415    159                15683     5473    1253



     bravais-lattice index     =            3
     lattice parameter (alat)  =       6.8761  a.u.
     unit-cell volume          =     162.5518 (a.u.)^3
     number of atoms/cell      =            1
     number of atomic types    =            1
     number of electrons       =         9.00
     number of Kohn-Sham states=            9
     kinetic-energy cutoff     =      40.0000  Ry
     charge density cutoff     =     320.0000  Ry
     Exchange-correlation      = SLA  PW   PBE  PBE ( 1  4  3  4 0 0)

     celldm(1)=   6.876075  celldm(2)=   0.000000  celldm(3)=   0.000000
     celldm(4)=   0.000000  celldm(5)=   0.000000  celldm(6)=   0.000000

     crystal axes: (cart. coord. in units of alat)
               a(1) = (   0.500000   0.500000   0.500000 )  
               a(2) = (  -0.500000   0.500000   0.500000 )  
               a(3) = (  -0.500000  -0.500000   0.500000 )  

     reciprocal axes: (cart. coord. in units 2 pi/alat)
               b(1) = (  1.000000  0.000000  1.000000 )  
               b(2) = ( -1.000000  1.000000  0.000000 )  
               b(3) = (  0.000000 -1.000000  1.000000 )  


     PseudoPot. # 1 for Na read from file:
     /home/s1333534/quantum_espresso/qe-6.1/pseudo/Na_pbe_v1.uspp.F.UPF
     MD5 check sum: 76a99c7e9422403d3e93cbc85ab7bccb
     Pseudo is Ultrasoft, Zval =  9.0
     Generated by new atomic code, or converted to UPF format
     Using radial grid of  819 points,  5 beta functions with: 
                l(1) =   0
                l(2) =   0
                l(3) =   1
                l(4) =   1
                l(5) =   2
     Q(r) pseudized with  8 coefficients,  rinner =    1.250   1.250   1.250
                                                       1.250   1.250

     atomic species   valence    mass     pseudopotential
        Na             9.00    22.99000     Na( 1.00)

     48 Sym. Ops., with inversion, found



   Cartesian axes

     site n.     atom                  positions (alat units)
         1           Na  tau(   1) = (   0.0000000   0.0000000   0.0000000  )

     number of k points=  1568  Marzari-Vanderbilt smearing, width (Ry)=  0.0200

     Number of k-points >= 100: set verbosity='high' to print them.

     Dense  grid:    15683 G-vectors     FFT dimensions: (  36,  36,  36)

     Smooth grid:     5473 G-vectors     FFT dimensions: (  24,  24,  24)

     Estimated max dynamical RAM per process >       1.54MB

     Estimated total allocated dynamical RAM >       6.14MB

     The potential is recalculated from file :
     ./_ph0/na.bcc.save/charge-density.dat

     Starting wfc are    5 atomic +    4 random wfc

     Band Structure Calculation
     Davidson diagonalization with overlap

     ethr =  1.11E-10,  avg # of iterations = 18.2

     total cpu time spent up to now is       83.0 secs

     End of band structure calculation

     Number of k-points >= 100: set verbosity='high' to print the bands.

     the Fermi energy is     3.9090 ev

     Writing output data file na.bcc.save

                                                                                

     bravais-lattice index     =            3
     lattice parameter (alat)  =       6.8761  a.u.
     unit-cell volume          =     162.5518 (a.u.)^3
     number of atoms/cell      =            1
     number of atomic types    =            1
     kinetic-energy cut-off    =      40.0000  Ry
     charge density cut-off    =     320.0000  Ry
     convergence threshold     =      1.0E-12
     beta                      =       0.7000
     number of iterations used =            4
     Exchange-correlation      = SLA  PW   PBE  PBE ( 1  4  3  4 0 0)


     celldm(1)=    6.87607  celldm(2)=    0.00000  celldm(3)=    0.00000
     celldm(4)=    0.00000  celldm(5)=    0.00000  celldm(6)=    0.00000

     crystal axes: (cart. coord. in units of alat)
               a(1) = (  0.5000  0.5000  0.5000 )  
               a(2) = ( -0.5000  0.5000  0.5000 )  
               a(3) = ( -0.5000 -0.5000  0.5000 )  

     reciprocal axes: (cart. coord. in units 2 pi/alat)
               b(1) = (  1.0000  0.0000  1.0000 )  
               b(2) = ( -1.0000  1.0000  0.0000 )  
               b(3) = (  0.0000 -1.0000  1.0000 )  


     Atoms inside the unit cell: 

     Cartesian axes

     site n.  atom      mass           positions (alat units)
        1     Na  22.9900   tau(    1) = (    0.00000    0.00000    0.00000  )

     Computing dynamical matrix for 
                    q = (   0.0000000  -0.3750000   0.3750000 )

      4 Sym.Ops. (no q -> -q+G )


     G cutoff =  383.2405  (   3920 G-vectors)     FFT grid: ( 36, 36, 36)
     G cutoff =  191.6203  (   1368 G-vectors)  smooth grid: ( 24, 24, 24)

     number of k points=  1568  Marzari-Vanderbilt smearing, width (Ry)=  0.0200

     PseudoPot. # 1 for Na read from file:
     /home/s1333534/quantum_espresso/qe-6.1/pseudo/Na_pbe_v1.uspp.F.UPF
     MD5 check sum: 76a99c7e9422403d3e93cbc85ab7bccb
     Pseudo is Ultrasoft, Zval =  9.0
     Generated by new atomic code, or converted to UPF format
     Using radial grid of  819 points,  5 beta functions with: 
                l(1) =   0
                l(2) =   0
                l(3) =   1
                l(4) =   1
                l(5) =   2
     Q(r) pseudized with  8 coefficients,  rinner =    1.250   1.250   1.250
                                                       1.250   1.250

     Mode symmetry, C_2v (mm2)  point group:


     Atomic displacements:
     There are   3 irreducible representations

     Representation     1      1 modes -A_1  D_1  S_1  To be done

     Representation     2      1 modes -B_1  D_3  S_3  To be done

     Representation     3      1 modes -B_2  D_4  S_4  To be done



     Alpha used in Ewald sum =   2.8000
     PHONON       :  4m11.90s CPU     4m24.23s WALL



     Representation #  1 mode #   1

     Self-consistent Calculation

      iter #   1 total cpu time :   268.5 secs   av.it.:   5.7
      thresh= 1.000E-02 alpha_mix =  0.700 |ddv_scf|^2 =  6.185E-04

      iter #   2 total cpu time :   272.6 secs   av.it.:   6.6
      thresh= 2.487E-03 alpha_mix =  0.700 |ddv_scf|^2 =  1.574E-03

      iter #   3 total cpu time :   276.5 secs   av.it.:   6.1
      thresh= 3.967E-03 alpha_mix =  0.700 |ddv_scf|^2 =  6.110E-07

      iter #   4 total cpu time :   281.1 secs   av.it.:   7.7
      thresh= 7.817E-05 alpha_mix =  0.700 |ddv_scf|^2 =  1.940E-08

      iter #   5 total cpu time :   285.8 secs   av.it.:   8.0
      thresh= 1.393E-05 alpha_mix =  0.700 |ddv_scf|^2 =  1.017E-09

      iter #   6 total cpu time :   290.5 secs   av.it.:   7.8
      thresh= 3.190E-06 alpha_mix =  0.700 |ddv_scf|^2 =  2.508E-11

      iter #   7 total cpu time :   294.9 secs   av.it.:   7.4
      thresh= 5.008E-07 alpha_mix =  0.700 |ddv_scf|^2 =  1.475E-12

      iter #   8 total cpu time :   299.5 secs   av.it.:   7.7
      thresh= 1.215E-07 alpha_mix =  0.700 |ddv_scf|^2 =  6.750E-15

     End of self-consistent calculation

     Convergence has been achieved 


     Representation #  2 mode #   2

     Self-consistent Calculation

      iter #   1 total cpu time :   303.8 secs   av.it.:   5.5
      thresh= 1.000E-02 alpha_mix =  0.700 |ddv_scf|^2 =  2.476E-05

      iter #   2 total cpu time :   308.2 secs   av.it.:   7.4
      thresh= 4.976E-04 alpha_mix =  0.700 |ddv_scf|^2 =  4.370E-07

      iter #   3 total cpu time :   312.8 secs   av.it.:   7.6
      thresh= 6.611E-05 alpha_mix =  0.700 |ddv_scf|^2 =  7.615E-09

      iter #   4 total cpu time :   317.1 secs   av.it.:   7.2
      thresh= 8.726E-06 alpha_mix =  0.700 |ddv_scf|^2 =  2.286E-11

      iter #   5 total cpu time :   321.6 secs   av.it.:   7.4
      thresh= 4.782E-07 alpha_mix =  0.700 |ddv_scf|^2 =  5.313E-14

     End of self-consistent calculation

     Convergence has been achieved 


     Representation #  3 mode #   3

     Self-consistent Calculation

      iter #   1 total cpu time :   325.8 secs   av.it.:   5.5
      thresh= 1.000E-02 alpha_mix =  0.700 |ddv_scf|^2 =  2.792E-05

      iter #   2 total cpu time :   330.3 secs   av.it.:   7.3
      thresh= 5.284E-04 alpha_mix =  0.700 |ddv_scf|^2 =  4.238E-07

      iter #   3 total cpu time :   334.8 secs   av.it.:   7.5
      thresh= 6.510E-05 alpha_mix =  0.700 |ddv_scf|^2 =  1.418E-08

      iter #   4 total cpu time :   339.2 secs   av.it.:   7.3
      thresh= 1.191E-05 alpha_mix =  0.700 |ddv_scf|^2 =  4.988E-11

      iter #   5 total cpu time :   343.6 secs   av.it.:   7.4
      thresh= 7.063E-07 alpha_mix =  0.700 |ddv_scf|^2 =  6.370E-14

     End of self-consistent calculation

     Convergence has been achieved 

     Number of q in the star =   12
     List of q in the star:
          1   0.000000000  -0.375000000   0.375000000
          2   0.375000000   0.000000000   0.375000000
          3  -0.375000000   0.000000000   0.375000000
          4   0.000000000   0.375000000   0.375000000
          5   0.375000000  -0.375000000   0.000000000
          6  -0.375000000   0.000000000  -0.375000000
          7   0.375000000   0.000000000  -0.375000000
          8   0.000000000  -0.375000000  -0.375000000
          9  -0.375000000  -0.375000000   0.000000000
         10  -0.375000000   0.375000000   0.000000000
         11   0.375000000   0.375000000   0.000000000
         12   0.000000000   0.375000000  -0.375000000

     Diagonalizing the dynamical matrix

     q = (    0.000000000  -0.375000000   0.375000000 ) 

 **************************************************************************
     freq (    1) =       1.607340 [THz] =      53.615100 [cm-1]
     freq (    2) =       3.240540 [THz] =     108.092790 [cm-1]
     freq (    3) =       6.321462 [THz] =     210.861272 [cm-1]
 **************************************************************************

     Mode symmetry, C_2v (mm2)  point group:

     freq (  1 -  1) =         53.6  [cm-1]   --> B_1  D_3  S_3      
     freq (  2 -  2) =        108.1  [cm-1]   --> B_2  D_4  S_4      
     freq (  3 -  3) =        210.9  [cm-1]   --> A_1  D_1  S_1      

     Calculation of q =    0.0000000   0.5000000  -0.5000000

   Info: using nr1, nr2, nr3 values from input

   Info: using nr1, nr2, nr3 values from input

     Parallelization info
     --------------------
     sticks:   dense  smooth     PW     G-vecs:    dense   smooth      PW
     Min         210     103     39                 3920     1367     312
     Max         211     104     40                 3923     1369     314
     Sum         841     415    159                15683     5473    1253



     bravais-lattice index     =            3
     lattice parameter (alat)  =       6.8761  a.u.
     unit-cell volume          =     162.5518 (a.u.)^3
     number of atoms/cell      =            1
     number of atomic types    =            1
     number of electrons       =         9.00
     number of Kohn-Sham states=            9
     kinetic-energy cutoff     =      40.0000  Ry
     charge density cutoff     =     320.0000  Ry
     Exchange-correlation      = SLA  PW   PBE  PBE ( 1  4  3  4 0 0)

     celldm(1)=   6.876075  celldm(2)=   0.000000  celldm(3)=   0.000000
     celldm(4)=   0.000000  celldm(5)=   0.000000  celldm(6)=   0.000000

     crystal axes: (cart. coord. in units of alat)
               a(1) = (   0.500000   0.500000   0.500000 )  
               a(2) = (  -0.500000   0.500000   0.500000 )  
               a(3) = (  -0.500000  -0.500000   0.500000 )  

     reciprocal axes: (cart. coord. in units 2 pi/alat)
               b(1) = (  1.000000  0.000000  1.000000 )  
               b(2) = ( -1.000000  1.000000  0.000000 )  
               b(3) = (  0.000000 -1.000000  1.000000 )  


     PseudoPot. # 1 for Na read from file:
     /home/s1333534/quantum_espresso/qe-6.1/pseudo/Na_pbe_v1.uspp.F.UPF
     MD5 check sum: 76a99c7e9422403d3e93cbc85ab7bccb
     Pseudo is Ultrasoft, Zval =  9.0
     Generated by new atomic code, or converted to UPF format
     Using radial grid of  819 points,  5 beta functions with: 
                l(1) =   0
                l(2) =   0
                l(3) =   1
                l(4) =   1
                l(5) =   2
     Q(r) pseudized with  8 coefficients,  rinner =    1.250   1.250   1.250
                                                       1.250   1.250

     atomic species   valence    mass     pseudopotential
        Na             9.00    22.99000     Na( 1.00)

     48 Sym. Ops., with inversion, found



   Cartesian axes

     site n.     atom                  positions (alat units)
         1           Na  tau(   1) = (   0.0000000   0.0000000   0.0000000  )

     number of k points=   840  Marzari-Vanderbilt smearing, width (Ry)=  0.0200

     Number of k-points >= 100: set verbosity='high' to print them.

     Dense  grid:    15683 G-vectors     FFT dimensions: (  36,  36,  36)

     Smooth grid:     5473 G-vectors     FFT dimensions: (  24,  24,  24)

     Estimated max dynamical RAM per process >       1.54MB

     Estimated total allocated dynamical RAM >       6.14MB

     The potential is recalculated from file :
     ./_ph0/na.bcc.save/charge-density.dat

     Starting wfc are    5 atomic +    4 random wfc

     Band Structure Calculation
     Davidson diagonalization with overlap

     ethr =  1.11E-10,  avg # of iterations = 18.3

     total cpu time spent up to now is       98.6 secs

     End of band structure calculation

     Number of k-points >= 100: set verbosity='high' to print the bands.

     the Fermi energy is     3.9090 ev

     Writing output data file na.bcc.save

                                                                                

     bravais-lattice index     =            3
     lattice parameter (alat)  =       6.8761  a.u.
     unit-cell volume          =     162.5518 (a.u.)^3
     number of atoms/cell      =            1
     number of atomic types    =            1
     kinetic-energy cut-off    =      40.0000  Ry
     charge density cut-off    =     320.0000  Ry
     convergence threshold     =      1.0E-12
     beta                      =       0.7000
     number of iterations used =            4
     Exchange-correlation      = SLA  PW   PBE  PBE ( 1  4  3  4 0 0)


     celldm(1)=    6.87607  celldm(2)=    0.00000  celldm(3)=    0.00000
     celldm(4)=    0.00000  celldm(5)=    0.00000  celldm(6)=    0.00000

     crystal axes: (cart. coord. in units of alat)
               a(1) = (  0.5000  0.5000  0.5000 )  
               a(2) = ( -0.5000  0.5000  0.5000 )  
               a(3) = ( -0.5000 -0.5000  0.5000 )  

     reciprocal axes: (cart. coord. in units 2 pi/alat)
               b(1) = (  1.0000  0.0000  1.0000 )  
               b(2) = ( -1.0000  1.0000  0.0000 )  
               b(3) = (  0.0000 -1.0000  1.0000 )  


     Atoms inside the unit cell: 

     Cartesian axes

     site n.  atom      mass           positions (alat units)
        1     Na  22.9900   tau(    1) = (    0.00000    0.00000    0.00000  )

     Computing dynamical matrix for 
                    q = (   0.0000000   0.5000000  -0.5000000 )

      9 Sym.Ops. (with q -> -q+G )


     G cutoff =  383.2405  (   3920 G-vectors)     FFT grid: ( 36, 36, 36)
     G cutoff =  191.6203  (   1368 G-vectors)  smooth grid: ( 24, 24, 24)

     number of k points=   840  Marzari-Vanderbilt smearing, width (Ry)=  0.0200

     PseudoPot. # 1 for Na read from file:
     /home/s1333534/quantum_espresso/qe-6.1/pseudo/Na_pbe_v1.uspp.F.UPF
     MD5 check sum: 76a99c7e9422403d3e93cbc85ab7bccb
     Pseudo is Ultrasoft, Zval =  9.0
     Generated by new atomic code, or converted to UPF format
     Using radial grid of  819 points,  5 beta functions with: 
                l(1) =   0
                l(2) =   0
                l(3) =   1
                l(4) =   1
                l(5) =   2
     Q(r) pseudized with  8 coefficients,  rinner =    1.250   1.250   1.250
                                                       1.250   1.250

     Mode symmetry, D_2h (mmm)  point group:


     Atomic displacements:
     There are   3 irreducible representations

     Representation     1      1 modes -B_1u  To be done

     Representation     2      1 modes -B_2u  To be done

     Representation     3      1 modes -B_3u  To be done



     Alpha used in Ewald sum =   2.8000
     PHONON       :  5m43.12s CPU     6m 0.20s WALL



     Representation #  1 mode #   1

     Self-consistent Calculation

      iter #   1 total cpu time :   362.4 secs   av.it.:   5.5
      thresh= 1.000E-02 alpha_mix =  0.700 |ddv_scf|^2 =  2.877E-05

      iter #   2 total cpu time :   364.8 secs   av.it.:   7.3
      thresh= 5.363E-04 alpha_mix =  0.700 |ddv_scf|^2 =  4.162E-07

      iter #   3 total cpu time :   367.3 secs   av.it.:   7.5
      thresh= 6.451E-05 alpha_mix =  0.700 |ddv_scf|^2 =  1.642E-08

      iter #   4 total cpu time :   369.6 secs   av.it.:   7.0
      thresh= 1.281E-05 alpha_mix =  0.700 |ddv_scf|^2 =  5.788E-11

      iter #   5 total cpu time :   372.0 secs   av.it.:   7.3
      thresh= 7.608E-07 alpha_mix =  0.700 |ddv_scf|^2 =  6.351E-14

     End of self-consistent calculation

     Convergence has been achieved 


     Representation #  2 mode #   2

     Self-consistent Calculation

      iter #   1 total cpu time :   374.3 secs   av.it.:   5.5
      thresh= 1.000E-02 alpha_mix =  0.700 |ddv_scf|^2 =  2.503E-05

      iter #   2 total cpu time :   376.7 secs   av.it.:   7.3
      thresh= 5.003E-04 alpha_mix =  0.700 |ddv_scf|^2 =  4.302E-07

      iter #   3 total cpu time :   379.1 secs   av.it.:   7.5
      thresh= 6.559E-05 alpha_mix =  0.700 |ddv_scf|^2 =  8.436E-09

      iter #   4 total cpu time :   381.4 secs   av.it.:   7.0
      thresh= 9.185E-06 alpha_mix =  0.700 |ddv_scf|^2 =  2.428E-11

      iter #   5 total cpu time :   383.8 secs   av.it.:   7.3
      thresh= 4.927E-07 alpha_mix =  0.700 |ddv_scf|^2 =  4.786E-14

     End of self-consistent calculation

     Convergence has been achieved 


     Representation #  3 mode #   3

     Self-consistent Calculation

      iter #   1 total cpu time :   386.2 secs   av.it.:   5.7
      thresh= 1.000E-02 alpha_mix =  0.700 |ddv_scf|^2 =  2.326E-04

      iter #   2 total cpu time :   388.5 secs   av.it.:   6.6
      thresh= 1.525E-03 alpha_mix =  0.700 |ddv_scf|^2 =  1.026E-04

      iter #   3 total cpu time :   390.7 secs   av.it.:   6.5
      thresh= 1.013E-03 alpha_mix =  0.700 |ddv_scf|^2 =  1.427E-07

      iter #   4 total cpu time :   393.1 secs   av.it.:   7.5
      thresh= 3.778E-05 alpha_mix =  0.700 |ddv_scf|^2 =  4.426E-10

      iter #   5 total cpu time :   395.3 secs   av.it.:   6.2
      thresh= 2.104E-06 alpha_mix =  0.700 |ddv_scf|^2 =  9.810E-12

      iter #   6 total cpu time :   397.5 secs   av.it.:   6.6
      thresh= 3.132E-07 alpha_mix =  0.700 |ddv_scf|^2 =  2.389E-14

     End of self-consistent calculation

     Convergence has been achieved 

     Number of q in the star =    6
     List of q in the star:
          1   0.000000000   0.500000000  -0.500000000
          2  -0.500000000   0.500000000   0.000000000
          3   0.500000000   0.000000000   0.500000000
          4   0.500000000   0.000000000  -0.500000000
          5   0.000000000   0.500000000   0.500000000
          6   0.500000000   0.500000000   0.000000000

     Diagonalizing the dynamical matrix

     q = (    0.000000000   0.500000000  -0.500000000 ) 

 **************************************************************************
     freq (    1) =       1.469684 [THz] =      49.023388 [cm-1]
     freq (    2) =       3.434182 [THz] =     114.551974 [cm-1]
     freq (    3) =       6.855331 [THz] =     228.669244 [cm-1]
 **************************************************************************

     Mode symmetry, D_2h (mmm)  point group:

     freq (  1 -  1) =         49.0  [cm-1]   --> B_2u               
     freq (  2 -  2) =        114.6  [cm-1]   --> B_1u               
     freq (  3 -  3) =        228.7  [cm-1]   --> B_3u               

     Calculation of q =   -0.1250000  -0.1250000   0.2500000

   Info: using nr1, nr2, nr3 values from input

   Info: using nr1, nr2, nr3 values from input

     Parallelization info
     --------------------
     sticks:   dense  smooth     PW     G-vecs:    dense   smooth      PW
     Min         210     103     37                 3920     1367     289
     Max         211     104     38                 3923     1369     290
     Sum         841     415    151                15683     5473    1157



     bravais-lattice index     =            3
     lattice parameter (alat)  =       6.8761  a.u.
     unit-cell volume          =     162.5518 (a.u.)^3
     number of atoms/cell      =            1
     number of atomic types    =            1
     number of electrons       =         9.00
     number of Kohn-Sham states=            9
     kinetic-energy cutoff     =      40.0000  Ry
     charge density cutoff     =     320.0000  Ry
     Exchange-correlation      = SLA  PW   PBE  PBE ( 1  4  3  4 0 0)

     celldm(1)=   6.876075  celldm(2)=   0.000000  celldm(3)=   0.000000
     celldm(4)=   0.000000  celldm(5)=   0.000000  celldm(6)=   0.000000

     crystal axes: (cart. coord. in units of alat)
               a(1) = (   0.500000   0.500000   0.500000 )  
               a(2) = (  -0.500000   0.500000   0.500000 )  
               a(3) = (  -0.500000  -0.500000   0.500000 )  

     reciprocal axes: (cart. coord. in units 2 pi/alat)
               b(1) = (  1.000000  0.000000  1.000000 )  
               b(2) = ( -1.000000  1.000000  0.000000 )  
               b(3) = (  0.000000 -1.000000  1.000000 )  


     PseudoPot. # 1 for Na read from file:
     /home/s1333534/quantum_espresso/qe-6.1/pseudo/Na_pbe_v1.uspp.F.UPF
     MD5 check sum: 76a99c7e9422403d3e93cbc85ab7bccb
     Pseudo is Ultrasoft, Zval =  9.0
     Generated by new atomic code, or converted to UPF format
     Using radial grid of  819 points,  5 beta functions with: 
                l(1) =   0
                l(2) =   0
                l(3) =   1
                l(4) =   1
                l(5) =   2
     Q(r) pseudized with  8 coefficients,  rinner =    1.250   1.250   1.250
                                                       1.250   1.250

     atomic species   valence    mass     pseudopotential
        Na             9.00    22.99000     Na( 1.00)

     48 Sym. Ops., with inversion, found



   Cartesian axes

     site n.     atom                  positions (alat units)
         1           Na  tau(   1) = (   0.0000000   0.0000000   0.0000000  )

     number of k points=  2940  Marzari-Vanderbilt smearing, width (Ry)=  0.0200

     Number of k-points >= 100: set verbosity='high' to print them.

     Dense  grid:    15683 G-vectors     FFT dimensions: (  36,  36,  36)

     Smooth grid:     5473 G-vectors     FFT dimensions: (  24,  24,  24)

     Estimated max dynamical RAM per process >       1.54MB

     Estimated total allocated dynamical RAM >       6.14MB

     The potential is recalculated from file :
     ./_ph0/na.bcc.save/charge-density.dat

     Starting wfc are    5 atomic +    4 random wfc

     Band Structure Calculation
     Davidson diagonalization with overlap

     ethr =  1.11E-10,  avg # of iterations = 18.2

     total cpu time spent up to now is      149.8 secs

     End of band structure calculation

     Number of k-points >= 100: set verbosity='high' to print the bands.

     the Fermi energy is     3.9090 ev

     Writing output data file na.bcc.save

                                                                                

     bravais-lattice index     =            3
     lattice parameter (alat)  =       6.8761  a.u.
     unit-cell volume          =     162.5518 (a.u.)^3
     number of atoms/cell      =            1
     number of atomic types    =            1
     kinetic-energy cut-off    =      40.0000  Ry
     charge density cut-off    =     320.0000  Ry
     convergence threshold     =      1.0E-12
     beta                      =       0.7000
     number of iterations used =            4
     Exchange-correlation      = SLA  PW   PBE  PBE ( 1  4  3  4 0 0)


     celldm(1)=    6.87607  celldm(2)=    0.00000  celldm(3)=    0.00000
     celldm(4)=    0.00000  celldm(5)=    0.00000  celldm(6)=    0.00000

     crystal axes: (cart. coord. in units of alat)
               a(1) = (  0.5000  0.5000  0.5000 )  
               a(2) = ( -0.5000  0.5000  0.5000 )  
               a(3) = ( -0.5000 -0.5000  0.5000 )  

     reciprocal axes: (cart. coord. in units 2 pi/alat)
               b(1) = (  1.0000  0.0000  1.0000 )  
               b(2) = ( -1.0000  1.0000  0.0000 )  
               b(3) = (  0.0000 -1.0000  1.0000 )  


     Atoms inside the unit cell: 

     Cartesian axes

     site n.  atom      mass           positions (alat units)
        1     Na  22.9900   tau(    1) = (    0.00000    0.00000    0.00000  )

     Computing dynamical matrix for 
                    q = (  -0.1250000  -0.1250000   0.2500000 )

      2 Sym.Ops. (no q -> -q+G )


     G cutoff =  383.2405  (   3920 G-vectors)     FFT grid: ( 36, 36, 36)
     G cutoff =  191.6203  (   1368 G-vectors)  smooth grid: ( 24, 24, 24)

     number of k points=  2940  Marzari-Vanderbilt smearing, width (Ry)=  0.0200

     PseudoPot. # 1 for Na read from file:
     /home/s1333534/quantum_espresso/qe-6.1/pseudo/Na_pbe_v1.uspp.F.UPF
     MD5 check sum: 76a99c7e9422403d3e93cbc85ab7bccb
     Pseudo is Ultrasoft, Zval =  9.0
     Generated by new atomic code, or converted to UPF format
     Using radial grid of  819 points,  5 beta functions with: 
                l(1) =   0
                l(2) =   0
                l(3) =   1
                l(4) =   1
                l(5) =   2
     Q(r) pseudized with  8 coefficients,  rinner =    1.250   1.250   1.250
                                                       1.250   1.250

     Mode symmetry, C_s (m)     point group:


     Atomic displacements:
     There are   3 irreducible representations

     Representation     1      1 modes -A'  To be done

     Representation     2      1 modes -A'  To be done

     Representation     3      1 modes -A''  To be done



     Alpha used in Ewald sum =   2.8000
     PHONON       :  7m12.98s CPU     7m34.23s WALL



     Representation #  1 mode #   1

     Self-consistent Calculation

      iter #   1 total cpu time :   462.1 secs   av.it.:   5.6
      thresh= 1.000E-02 alpha_mix =  0.700 |ddv_scf|^2 =  1.374E-03

      iter #   2 total cpu time :   469.7 secs   av.it.:   6.6
      thresh= 3.707E-03 alpha_mix =  0.700 |ddv_scf|^2 =  5.053E-02

      iter #   3 total cpu time :   476.0 secs   av.it.:   5.1
      thresh= 1.000E-02 alpha_mix =  0.700 |ddv_scf|^2 =  6.484E-07

      iter #   4 total cpu time :   484.6 secs   av.it.:   7.7
      thresh= 8.052E-05 alpha_mix =  0.700 |ddv_scf|^2 =  8.138E-09

      iter #   5 total cpu time :   493.2 secs   av.it.:   7.7
      thresh= 9.021E-06 alpha_mix =  0.700 |ddv_scf|^2 =  1.008E-09

      iter #   6 total cpu time :   501.6 secs   av.it.:   7.6
      thresh= 3.174E-06 alpha_mix =  0.700 |ddv_scf|^2 =  1.110E-09

      iter #   7 total cpu time :   508.5 secs   av.it.:   5.7
      thresh= 3.332E-06 alpha_mix =  0.700 |ddv_scf|^2 =  5.921E-10

      iter #   8 total cpu time :   516.0 secs   av.it.:   6.6
      thresh= 2.433E-06 alpha_mix =  0.700 |ddv_scf|^2 =  2.414E-11

      iter #   9 total cpu time :   523.9 secs   av.it.:   7.0
      thresh= 4.913E-07 alpha_mix =  0.700 |ddv_scf|^2 =  1.144E-11

      iter #  10 total cpu time :   531.7 secs   av.it.:   6.9
      thresh= 3.383E-07 alpha_mix =  0.700 |ddv_scf|^2 =  3.871E-14

     End of self-consistent calculation

     Convergence has been achieved 


     Representation #  2 mode #   2

     Self-consistent Calculation

      iter #   1 total cpu time :   539.9 secs   av.it.:   5.8
      thresh= 1.000E-02 alpha_mix =  0.700 |ddv_scf|^2 =  1.218E-02

      iter #   2 total cpu time :   547.2 secs   av.it.:   6.2
      thresh= 1.000E-02 alpha_mix =  0.700 |ddv_scf|^2 =  4.547E-01

      iter #   3 total cpu time :   554.5 secs   av.it.:   6.2
      thresh= 1.000E-02 alpha_mix =  0.700 |ddv_scf|^2 =  6.480E-06

      iter #   4 total cpu time :   562.6 secs   av.it.:   7.3
      thresh= 2.546E-04 alpha_mix =  0.700 |ddv_scf|^2 =  7.247E-08

      iter #   5 total cpu time :   571.0 secs   av.it.:   7.6
      thresh= 2.692E-05 alpha_mix =  0.700 |ddv_scf|^2 =  4.226E-09

      iter #   6 total cpu time :   579.4 secs   av.it.:   7.6
      thresh= 6.501E-06 alpha_mix =  0.700 |ddv_scf|^2 =  6.920E-10

      iter #   7 total cpu time :   587.3 secs   av.it.:   7.0
      thresh= 2.631E-06 alpha_mix =  0.700 |ddv_scf|^2 =  7.042E-09

      iter #   8 total cpu time :   594.1 secs   av.it.:   5.6
      thresh= 8.392E-06 alpha_mix =  0.700 |ddv_scf|^2 =  5.185E-12

      iter #   9 total cpu time :   601.8 secs   av.it.:   6.8
      thresh= 2.277E-07 alpha_mix =  0.700 |ddv_scf|^2 =  6.985E-14

     End of self-consistent calculation

     Convergence has been achieved 


     Representation #  3 mode #   3

     Self-consistent Calculation

      iter #   1 total cpu time :   609.7 secs   av.it.:   5.5
      thresh= 1.000E-02 alpha_mix =  0.700 |ddv_scf|^2 =  2.597E-05

      iter #   2 total cpu time :   618.0 secs   av.it.:   7.4
      thresh= 5.096E-04 alpha_mix =  0.700 |ddv_scf|^2 =  4.299E-07

      iter #   3 total cpu time :   626.5 secs   av.it.:   7.6
      thresh= 6.557E-05 alpha_mix =  0.700 |ddv_scf|^2 =  1.013E-08

      iter #   4 total cpu time :   634.7 secs   av.it.:   7.4
      thresh= 1.006E-05 alpha_mix =  0.700 |ddv_scf|^2 =  4.912E-11

      iter #   5 total cpu time :   643.1 secs   av.it.:   7.4
      thresh= 7.008E-07 alpha_mix =  0.700 |ddv_scf|^2 =  6.623E-14

     End of self-consistent calculation

     Convergence has been achieved 

     Number of q in the star =   24
     List of q in the star:
          1  -0.125000000  -0.125000000   0.250000000
          2  -0.125000000  -0.250000000   0.125000000
          3   0.125000000  -0.250000000   0.125000000
          4  -0.125000000   0.125000000  -0.250000000
          5  -0.125000000   0.250000000  -0.125000000
          6   0.125000000   0.125000000  -0.250000000
          7   0.125000000   0.250000000  -0.125000000
          8   0.125000000  -0.250000000  -0.125000000
          9  -0.250000000   0.125000000  -0.125000000
         10   0.250000000   0.125000000   0.125000000
         11   0.125000000   0.125000000   0.250000000
         12  -0.250000000  -0.125000000   0.125000000
         13   0.250000000  -0.125000000  -0.125000000
         14   0.125000000  -0.125000000  -0.250000000
         15   0.125000000  -0.125000000   0.250000000
         16   0.125000000   0.250000000   0.125000000
         17  -0.125000000  -0.125000000  -0.250000000
         18  -0.125000000   0.125000000   0.250000000
         19  -0.125000000   0.250000000   0.125000000
         20  -0.125000000  -0.250000000  -0.125000000
         21   0.250000000   0.125000000  -0.125000000
         22  -0.250000000   0.125000000   0.125000000
         23   0.250000000  -0.125000000   0.125000000
         24  -0.250000000  -0.125000000  -0.125000000

     Diagonalizing the dynamical matrix

     q = (   -0.125000000  -0.125000000   0.250000000 ) 

 **************************************************************************
     freq (    1) =       1.913614 [THz] =      63.831288 [cm-1]
     freq (    2) =       2.307907 [THz] =      76.983506 [cm-1]
     freq (    3) =       4.329708 [THz] =     144.423529 [cm-1]
 **************************************************************************

     Mode symmetry, C_s (m)     point group:

     freq (  1 -  1) =         63.8  [cm-1]   --> A'                 
     freq (  2 -  2) =         77.0  [cm-1]   --> A''                
     freq (  3 -  3) =        144.4  [cm-1]   --> A'                 

     Calculation of q =   -0.1250000  -0.2500000   0.3750000

   Info: using nr1, nr2, nr3 values from input

   Info: using nr1, nr2, nr3 values from input

     Parallelization info
     --------------------
     sticks:   dense  smooth     PW     G-vecs:    dense   smooth      PW
     Min         210     103     38                 3920     1367     301
     Max         211     104     39                 3923     1369     302
     Sum         841     415    155                15683     5473    1205



     bravais-lattice index     =            3
     lattice parameter (alat)  =       6.8761  a.u.
     unit-cell volume          =     162.5518 (a.u.)^3
     number of atoms/cell      =            1
     number of atomic types    =            1
     number of electrons       =         9.00
     number of Kohn-Sham states=            9
     kinetic-energy cutoff     =      40.0000  Ry
     charge density cutoff     =     320.0000  Ry
     Exchange-correlation      = SLA  PW   PBE  PBE ( 1  4  3  4 0 0)

     celldm(1)=   6.876075  celldm(2)=   0.000000  celldm(3)=   0.000000
     celldm(4)=   0.000000  celldm(5)=   0.000000  celldm(6)=   0.000000

     crystal axes: (cart. coord. in units of alat)
               a(1) = (   0.500000   0.500000   0.500000 )  
               a(2) = (  -0.500000   0.500000   0.500000 )  
               a(3) = (  -0.500000  -0.500000   0.500000 )  

     reciprocal axes: (cart. coord. in units 2 pi/alat)
               b(1) = (  1.000000  0.000000  1.000000 )  
               b(2) = ( -1.000000  1.000000  0.000000 )  
               b(3) = (  0.000000 -1.000000  1.000000 )  


     PseudoPot. # 1 for Na read from file:
     /home/s1333534/quantum_espresso/qe-6.1/pseudo/Na_pbe_v1.uspp.F.UPF
     MD5 check sum: 76a99c7e9422403d3e93cbc85ab7bccb
     Pseudo is Ultrasoft, Zval =  9.0
     Generated by new atomic code, or converted to UPF format
     Using radial grid of  819 points,  5 beta functions with: 
                l(1) =   0
                l(2) =   0
                l(3) =   1
                l(4) =   1
                l(5) =   2
     Q(r) pseudized with  8 coefficients,  rinner =    1.250   1.250   1.250
                                                       1.250   1.250

     atomic species   valence    mass     pseudopotential
        Na             9.00    22.99000     Na( 1.00)

     48 Sym. Ops., with inversion, found



   Cartesian axes

     site n.     atom                  positions (alat units)
         1           Na  tau(   1) = (   0.0000000   0.0000000   0.0000000  )

     number of k points=  5488  Marzari-Vanderbilt smearing, width (Ry)=  0.0200

     Number of k-points >= 100: set verbosity='high' to print them.

     Dense  grid:    15683 G-vectors     FFT dimensions: (  36,  36,  36)

     Smooth grid:     5473 G-vectors     FFT dimensions: (  24,  24,  24)

     Estimated max dynamical RAM per process >       1.54MB

     Estimated total allocated dynamical RAM >       6.14MB

     The potential is recalculated from file :
     ./_ph0/na.bcc.save/charge-density.dat

     Starting wfc are    5 atomic +    4 random wfc

     Band Structure Calculation
     Davidson diagonalization with overlap

     ethr =  1.11E-10,  avg # of iterations = 18.1

     total cpu time spent up to now is      246.1 secs

     End of band structure calculation

     Number of k-points >= 100: set verbosity='high' to print the bands.

     the Fermi energy is     3.9090 ev

     Writing output data file na.bcc.save

                                                                                

     bravais-lattice index     =            3
     lattice parameter (alat)  =       6.8761  a.u.
     unit-cell volume          =     162.5518 (a.u.)^3
     number of atoms/cell      =            1
     number of atomic types    =            1
     kinetic-energy cut-off    =      40.0000  Ry
     charge density cut-off    =     320.0000  Ry
     convergence threshold     =      1.0E-12
     beta                      =       0.7000
     number of iterations used =            4
     Exchange-correlation      = SLA  PW   PBE  PBE ( 1  4  3  4 0 0)


     celldm(1)=    6.87607  celldm(2)=    0.00000  celldm(3)=    0.00000
     celldm(4)=    0.00000  celldm(5)=    0.00000  celldm(6)=    0.00000

     crystal axes: (cart. coord. in units of alat)
               a(1) = (  0.5000  0.5000  0.5000 )  
               a(2) = ( -0.5000  0.5000  0.5000 )  
               a(3) = ( -0.5000 -0.5000  0.5000 )  

     reciprocal axes: (cart. coord. in units 2 pi/alat)
               b(1) = (  1.0000  0.0000  1.0000 )  
               b(2) = ( -1.0000  1.0000  0.0000 )  
               b(3) = (  0.0000 -1.0000  1.0000 )  


     Atoms inside the unit cell: 

     Cartesian axes

     site n.  atom      mass           positions (alat units)
        1     Na  22.9900   tau(    1) = (    0.00000    0.00000    0.00000  )

     Computing dynamical matrix for 
                    q = (  -0.1250000  -0.2500000   0.3750000 )

     No symmetry!

     G cutoff =  383.2405  (   3920 G-vectors)     FFT grid: ( 36, 36, 36)
     G cutoff =  191.6203  (   1368 G-vectors)  smooth grid: ( 24, 24, 24)

     number of k points=  5488  Marzari-Vanderbilt smearing, width (Ry)=  0.0200

     PseudoPot. # 1 for Na read from file:
     /home/s1333534/quantum_espresso/qe-6.1/pseudo/Na_pbe_v1.uspp.F.UPF
     MD5 check sum: 76a99c7e9422403d3e93cbc85ab7bccb
     Pseudo is Ultrasoft, Zval =  9.0
     Generated by new atomic code, or converted to UPF format
     Using radial grid of  819 points,  5 beta functions with: 
                l(1) =   0
                l(2) =   0
                l(3) =   1
                l(4) =   1
                l(5) =   2
     Q(r) pseudized with  8 coefficients,  rinner =    1.250   1.250   1.250
                                                       1.250   1.250

     Mode symmetry, C_1 (1)     point group:


     Atomic displacements:
     There are   3 irreducible representations

     Representation     1      1 modes -A  To be done

     Representation     2      1 modes -A  To be done

     Representation     3      1 modes -A  To be done



     Alpha used in Ewald sum =   2.8000
     PHONON       : 11m54.35s CPU    12m29.69s WALL



     Representation #  1 mode #   1

     Self-consistent Calculation

      iter #   1 total cpu time :   764.4 secs   av.it.:   5.7
      thresh= 1.000E-02 alpha_mix =  0.700 |ddv_scf|^2 =  4.082E-05

      iter #   2 total cpu time :   780.3 secs   av.it.:   7.7
      thresh= 6.389E-04 alpha_mix =  0.700 |ddv_scf|^2 =  7.369E-05

      iter #   3 total cpu time :   794.7 secs   av.it.:   6.2
      thresh= 8.584E-04 alpha_mix =  0.700 |ddv_scf|^2 =  6.011E-06

      iter #   4 total cpu time :   809.7 secs   av.it.:   7.2
      thresh= 2.452E-04 alpha_mix =  0.700 |ddv_scf|^2 =  6.422E-09

      iter #   5 total cpu time :   826.2 secs   av.it.:   7.8
      thresh= 8.014E-06 alpha_mix =  0.700 |ddv_scf|^2 =  2.074E-10

      iter #   6 total cpu time :   842.4 secs   av.it.:   7.9
      thresh= 1.440E-06 alpha_mix =  0.700 |ddv_scf|^2 =  9.772E-12

      iter #   7 total cpu time :   858.9 secs   av.it.:   8.1
      thresh= 3.126E-07 alpha_mix =  0.700 |ddv_scf|^2 =  6.607E-13

     End of self-consistent calculation

     Convergence has been achieved 


     Representation #  2 mode #   2

     Self-consistent Calculation

      iter #   1 total cpu time :   874.2 secs   av.it.:   5.8
      thresh= 1.000E-02 alpha_mix =  0.700 |ddv_scf|^2 =  5.949E-04

      iter #   2 total cpu time :   889.3 secs   av.it.:   7.0
      thresh= 2.439E-03 alpha_mix =  0.700 |ddv_scf|^2 =  2.806E-03

      iter #   3 total cpu time :   902.2 secs   av.it.:   5.8
      thresh= 5.297E-03 alpha_mix =  0.700 |ddv_scf|^2 =  4.967E-07

      iter #   4 total cpu time :   918.4 secs   av.it.:   7.8
      thresh= 7.048E-05 alpha_mix =  0.700 |ddv_scf|^2 =  9.255E-09

      iter #   5 total cpu time :   935.0 secs   av.it.:   8.1
      thresh= 9.620E-06 alpha_mix =  0.700 |ddv_scf|^2 =  1.274E-09

      iter #   6 total cpu time :   951.4 secs   av.it.:   7.8
      thresh= 3.569E-06 alpha_mix =  0.700 |ddv_scf|^2 =  2.135E-11

      iter #   7 total cpu time :   967.3 secs   av.it.:   7.8
      thresh= 4.620E-07 alpha_mix =  0.700 |ddv_scf|^2 =  2.071E-12

      iter #   8 total cpu time :   983.1 secs   av.it.:   7.6
      thresh= 1.439E-07 alpha_mix =  0.700 |ddv_scf|^2 =  3.035E-12

      iter #   9 total cpu time :   996.9 secs   av.it.:   6.3
      thresh= 1.742E-07 alpha_mix =  0.700 |ddv_scf|^2 =  3.376E-14

     End of self-consistent calculation

     Convergence has been achieved 


     Representation #  3 mode #   3

     Self-consistent Calculation

      iter #   1 total cpu time :  1012.2 secs   av.it.:   5.8
      thresh= 1.000E-02 alpha_mix =  0.700 |ddv_scf|^2 =  5.764E-04

      iter #   2 total cpu time :  1027.8 secs   av.it.:   7.0
      thresh= 2.401E-03 alpha_mix =  0.700 |ddv_scf|^2 =  2.685E-03

      iter #   3 total cpu time :  1040.8 secs   av.it.:   5.8
      thresh= 5.181E-03 alpha_mix =  0.700 |ddv_scf|^2 =  3.548E-07

      iter #   4 total cpu time :  1057.5 secs   av.it.:   7.9
      thresh= 5.957E-05 alpha_mix =  0.700 |ddv_scf|^2 =  1.192E-08

      iter #   5 total cpu time :  1074.0 secs   av.it.:   8.2
      thresh= 1.092E-05 alpha_mix =  0.700 |ddv_scf|^2 =  8.638E-10

      iter #   6 total cpu time :  1090.4 secs   av.it.:   8.0
      thresh= 2.939E-06 alpha_mix =  0.700 |ddv_scf|^2 =  2.780E-11

      iter #   7 total cpu time :  1106.2 secs   av.it.:   7.7
      thresh= 5.273E-07 alpha_mix =  0.700 |ddv_scf|^2 =  1.420E-12

      iter #   8 total cpu time :  1121.8 secs   av.it.:   7.4
      thresh= 1.192E-07 alpha_mix =  0.700 |ddv_scf|^2 =  1.389E-12

      iter #   9 total cpu time :  1135.9 secs   av.it.:   6.5
      thresh= 1.179E-07 alpha_mix =  0.700 |ddv_scf|^2 =  2.090E-13

     End of self-consistent calculation

     Convergence has been achieved 

     Number of q in the star =   48
     List of q in the star:
          1  -0.125000000  -0.250000000   0.375000000
          2  -0.250000000  -0.125000000   0.375000000
          3  -0.125000000  -0.375000000   0.250000000
          4   0.125000000  -0.375000000   0.250000000
          5  -0.125000000   0.250000000  -0.375000000
          6  -0.125000000   0.375000000  -0.250000000
          7   0.125000000   0.250000000  -0.375000000
          8   0.125000000   0.375000000  -0.250000000
          9   0.250000000  -0.375000000  -0.125000000
         10  -0.375000000   0.125000000  -0.250000000
         11   0.375000000   0.125000000   0.250000000
         12   0.250000000   0.125000000   0.375000000
         13  -0.375000000  -0.125000000   0.250000000
         14   0.375000000  -0.125000000  -0.250000000
         15   0.125000000  -0.250000000  -0.375000000
         16   0.250000000  -0.125000000  -0.375000000
         17  -0.250000000   0.125000000  -0.375000000
         18  -0.375000000  -0.250000000   0.125000000
         19  -0.375000000   0.250000000  -0.125000000
         20   0.375000000   0.250000000   0.125000000
         21   0.250000000  -0.125000000   0.375000000
         22  -0.250000000   0.375000000  -0.125000000
         23   0.125000000  -0.375000000  -0.250000000
         24   0.125000000   0.375000000   0.250000000
         25   0.250000000   0.125000000  -0.375000000
         26  -0.125000000  -0.250000000  -0.375000000
         27  -0.250000000   0.125000000   0.375000000
         28  -0.125000000   0.375000000   0.250000000
         29  -0.125000000   0.250000000   0.375000000
         30   0.125000000  -0.250000000   0.375000000
         31  -0.125000000  -0.375000000  -0.250000000
         32   0.125000000   0.250000000   0.375000000
         33   0.375000000  -0.250000000  -0.125000000
         34   0.250000000   0.375000000   0.125000000
         35  -0.250000000  -0.375000000   0.125000000
         36   0.375000000   0.250000000  -0.125000000
         37  -0.375000000   0.250000000   0.125000000
         38   0.375000000  -0.250000000   0.125000000
         39  -0.375000000  -0.250000000  -0.125000000
         40  -0.250000000  -0.125000000  -0.375000000
         41   0.250000000  -0.375000000   0.125000000
         42  -0.250000000  -0.375000000  -0.125000000
         43   0.250000000   0.375000000  -0.125000000
         44  -0.250000000   0.375000000   0.125000000
         45  -0.375000000   0.125000000   0.250000000
         46  -0.375000000  -0.125000000  -0.250000000
         47   0.375000000  -0.125000000   0.250000000
         48   0.375000000   0.125000000  -0.250000000

     Diagonalizing the dynamical matrix

     q = (   -0.125000000  -0.250000000   0.375000000 ) 

 **************************************************************************
     freq (    1) =       2.417015 [THz] =      80.622940 [cm-1]
     freq (    2) =       3.390399 [THz] =     113.091541 [cm-1]
     freq (    3) =       5.695436 [THz] =     189.979306 [cm-1]
 **************************************************************************

     Mode symmetry, C_1 (1)     point group:

     freq (  1 -  1) =         80.6  [cm-1]   --> A                  
     freq (  2 -  2) =        113.1  [cm-1]   --> A                  
     freq (  3 -  3) =        190.0  [cm-1]   --> A                  

     Calculation of q =   -0.1250000   0.6250000  -0.5000000

   Info: using nr1, nr2, nr3 values from input

   Info: using nr1, nr2, nr3 values from input

     Parallelization info
     --------------------
     sticks:   dense  smooth     PW     G-vecs:    dense   smooth      PW
     Min         210     103     42                 3920     1367     352
     Max         211     104     43                 3923     1369     353
     Sum         841     415    169                15683     5473    1409



     bravais-lattice index     =            3
     lattice parameter (alat)  =       6.8761  a.u.
     unit-cell volume          =     162.5518 (a.u.)^3
     number of atoms/cell      =            1
     number of atomic types    =            1
     number of electrons       =         9.00
     number of Kohn-Sham states=            9
     kinetic-energy cutoff     =      40.0000  Ry
     charge density cutoff     =     320.0000  Ry
     Exchange-correlation      = SLA  PW   PBE  PBE ( 1  4  3  4 0 0)

     celldm(1)=   6.876075  celldm(2)=   0.000000  celldm(3)=   0.000000
     celldm(4)=   0.000000  celldm(5)=   0.000000  celldm(6)=   0.000000

     crystal axes: (cart. coord. in units of alat)
               a(1) = (   0.500000   0.500000   0.500000 )  
               a(2) = (  -0.500000   0.500000   0.500000 )  
               a(3) = (  -0.500000  -0.500000   0.500000 )  

     reciprocal axes: (cart. coord. in units 2 pi/alat)
               b(1) = (  1.000000  0.000000  1.000000 )  
               b(2) = ( -1.000000  1.000000  0.000000 )  
               b(3) = (  0.000000 -1.000000  1.000000 )  


     PseudoPot. # 1 for Na read from file:
     /home/s1333534/quantum_espresso/qe-6.1/pseudo/Na_pbe_v1.uspp.F.UPF
     MD5 check sum: 76a99c7e9422403d3e93cbc85ab7bccb
     Pseudo is Ultrasoft, Zval =  9.0
     Generated by new atomic code, or converted to UPF format
     Using radial grid of  819 points,  5 beta functions with: 
                l(1) =   0
                l(2) =   0
                l(3) =   1
                l(4) =   1
                l(5) =   2
     Q(r) pseudized with  8 coefficients,  rinner =    1.250   1.250   1.250
                                                       1.250   1.250

     atomic species   valence    mass     pseudopotential
        Na             9.00    22.99000     Na( 1.00)

     48 Sym. Ops., with inversion, found



   Cartesian axes

     site n.     atom                  positions (alat units)
         1           Na  tau(   1) = (   0.0000000   0.0000000   0.0000000  )

     number of k points=  5488  Marzari-Vanderbilt smearing, width (Ry)=  0.0200

     Number of k-points >= 100: set verbosity='high' to print them.

     Dense  grid:    15683 G-vectors     FFT dimensions: (  36,  36,  36)

     Smooth grid:     5473 G-vectors     FFT dimensions: (  24,  24,  24)

     Estimated max dynamical RAM per process >       1.54MB

     Estimated total allocated dynamical RAM >       6.14MB

     The potential is recalculated from file :
     ./_ph0/na.bcc.save/charge-density.dat

     Starting wfc are    5 atomic +    4 random wfc

     Band Structure Calculation
     Davidson diagonalization with overlap

     ethr =  1.11E-10,  avg # of iterations = 18.1

     total cpu time spent up to now is      349.4 secs

     End of band structure calculation

     Number of k-points >= 100: set verbosity='high' to print the bands.

     the Fermi energy is     3.9090 ev

     Writing output data file na.bcc.save

                                                                                

     bravais-lattice index     =            3
     lattice parameter (alat)  =       6.8761  a.u.
     unit-cell volume          =     162.5518 (a.u.)^3
     number of atoms/cell      =            1
     number of atomic types    =            1
     kinetic-energy cut-off    =      40.0000  Ry
     charge density cut-off    =     320.0000  Ry
     convergence threshold     =      1.0E-12
     beta                      =       0.7000
     number of iterations used =            4
     Exchange-correlation      = SLA  PW   PBE  PBE ( 1  4  3  4 0 0)


     celldm(1)=    6.87607  celldm(2)=    0.00000  celldm(3)=    0.00000
     celldm(4)=    0.00000  celldm(5)=    0.00000  celldm(6)=    0.00000

     crystal axes: (cart. coord. in units of alat)
               a(1) = (  0.5000  0.5000  0.5000 )  
               a(2) = ( -0.5000  0.5000  0.5000 )  
               a(3) = ( -0.5000 -0.5000  0.5000 )  

[...]
     celldm(4)=    0.00000  celldm(5)=    0.00000  celldm(6)=    0.00000

     crystal axes: (cart. coord. in units of alat)
               a(1) = (  0.5000  0.5000  0.5000 )  
               a(2) = ( -0.5000  0.5000  0.5000 )  
               a(3) = ( -0.5000 -0.5000  0.5000 )  

     reciprocal axes: (cart. coord. in units 2 pi/alat)
               b(1) = (  1.0000  0.0000  1.0000 )  
               b(2) = ( -1.0000  1.0000  0.0000 )  
               b(3) = (  0.0000 -1.0000  1.0000 )  


     Atoms inside the unit cell: 

     Cartesian axes

     site n.  atom      mass           positions (alat units)
        1     Na  22.9900   tau(    1) = (    0.00000    0.00000    0.00000  )

     Computing dynamical matrix for 
                    q = (   0.0000000   0.8750000  -0.1250000 )

      4 Sym.Ops. (no q -> -q+G )


     G cutoff =  383.2405  (   3920 G-vectors)     FFT grid: ( 36, 36, 36)
     G cutoff =  191.6203  (   1369 G-vectors)  smooth grid: ( 24, 24, 24)

     number of k points=  1568  Marzari-Vanderbilt smearing, width (Ry)=  0.0200

     PseudoPot. # 1 for Na read from file:
     /home/s1333534/quantum_espresso/qe-6.1/pseudo/Na_pbe_v1.uspp.F.UPF
     MD5 check sum: 76a99c7e9422403d3e93cbc85ab7bccb
     Pseudo is Ultrasoft, Zval =  9.0
     Generated by new atomic code, or converted to UPF format
     Using radial grid of  819 points,  5 beta functions with: 
                l(1) =   0
                l(2) =   0
                l(3) =   1
                l(4) =   1
                l(5) =   2
     Q(r) pseudized with  8 coefficients,  rinner =    1.250   1.250   1.250
                                                       1.250   1.250

     Mode symmetry, C_2v (mm2)  point group:


     Atomic displacements:
     There are   3 irreducible representations

     Representation     1      1 modes -A_1  D_1  S_1  To be done

     Representation     2      1 modes -B_1  D_3  S_3  To be done

     Representation     3      1 modes -B_2  D_4  S_4  To be done



     Alpha used in Ewald sum =   2.8000
     PHONON       :     1h16m CPU        1h22m WALL



     Representation #  1 mode #   1

     Self-consistent Calculation

      iter #   1 total cpu time :  4966.8 secs   av.it.:   5.6
      thresh= 1.000E-02 alpha_mix =  0.700 |ddv_scf|^2 =  4.824E-05

      iter #   2 total cpu time :  4971.7 secs   av.it.:   7.4
      thresh= 6.945E-04 alpha_mix =  0.700 |ddv_scf|^2 =  1.222E-06

      iter #   3 total cpu time :  4976.6 secs   av.it.:   7.6
      thresh= 1.105E-04 alpha_mix =  0.700 |ddv_scf|^2 =  4.065E-08

      iter #   4 total cpu time :  4981.7 secs   av.it.:   7.9
      thresh= 2.016E-05 alpha_mix =  0.700 |ddv_scf|^2 =  2.328E-09

      iter #   5 total cpu time :  4986.7 secs   av.it.:   7.8
      thresh= 4.824E-06 alpha_mix =  0.700 |ddv_scf|^2 =  1.802E-10

      iter #   6 total cpu time :  4991.6 secs   av.it.:   7.6
      thresh= 1.342E-06 alpha_mix =  0.700 |ddv_scf|^2 =  1.097E-12

      iter #   7 total cpu time :  4996.7 secs   av.it.:   7.7
      thresh= 1.047E-07 alpha_mix =  0.700 |ddv_scf|^2 =  4.653E-14

     End of self-consistent calculation

     Convergence has been achieved 


     Representation #  2 mode #   2

     Self-consistent Calculation

      iter #   1 total cpu time :  5001.3 secs   av.it.:   5.5
      thresh= 1.000E-02 alpha_mix =  0.700 |ddv_scf|^2 =  4.357E-05

      iter #   2 total cpu time :  5006.1 secs   av.it.:   7.3
      thresh= 6.601E-04 alpha_mix =  0.700 |ddv_scf|^2 =  4.181E-07

      iter #   3 total cpu time :  5010.8 secs   av.it.:   7.3
      thresh= 6.466E-05 alpha_mix =  0.700 |ddv_scf|^2 =  3.800E-08

      iter #   4 total cpu time :  5015.6 secs   av.it.:   7.4
      thresh= 1.949E-05 alpha_mix =  0.700 |ddv_scf|^2 =  1.723E-10

      iter #   5 total cpu time :  5020.4 secs   av.it.:   7.3
      thresh= 1.313E-06 alpha_mix =  0.700 |ddv_scf|^2 =  5.722E-14

     End of self-consistent calculation

     Convergence has been achieved 


     Representation #  3 mode #   3

     Self-consistent Calculation

      iter #   1 total cpu time :  5025.1 secs   av.it.:   5.6
      thresh= 1.000E-02 alpha_mix =  0.700 |ddv_scf|^2 =  6.085E-05

      iter #   2 total cpu time :  5029.9 secs   av.it.:   7.2
      thresh= 7.801E-04 alpha_mix =  0.700 |ddv_scf|^2 =  2.209E-06

      iter #   3 total cpu time :  5034.7 secs   av.it.:   7.2
      thresh= 1.486E-04 alpha_mix =  0.700 |ddv_scf|^2 =  4.960E-08

      iter #   4 total cpu time :  5039.6 secs   av.it.:   7.5
      thresh= 2.227E-05 alpha_mix =  0.700 |ddv_scf|^2 =  1.644E-09

      iter #   5 total cpu time :  5044.3 secs   av.it.:   7.2
      thresh= 4.055E-06 alpha_mix =  0.700 |ddv_scf|^2 =  5.061E-12

      iter #   6 total cpu time :  5049.2 secs   av.it.:   7.6
      thresh= 2.250E-07 alpha_mix =  0.700 |ddv_scf|^2 =  5.560E-15

     End of self-consistent calculation

     Convergence has been achieved 

     Number of q in the star =   12
     List of q in the star:
          1   0.000000000   0.875000000  -0.125000000
          2   0.000000000  -0.875000000  -0.125000000
          3   0.875000000   0.000000000  -0.125000000
          4  -0.875000000   0.000000000  -0.125000000
          5   0.125000000   0.000000000  -0.875000000
          6   0.125000000   0.875000000   0.000000000
          7   0.000000000   0.875000000   0.125000000
          8   0.875000000   0.000000000   0.125000000
          9   0.125000000  -0.875000000   0.000000000
         10  -0.125000000  -0.875000000   0.000000000
         11   0.875000000  -0.125000000   0.000000000
         12   0.000000000  -0.875000000   0.125000000

     Diagonalizing the dynamical matrix

     q = (    0.000000000   0.875000000  -0.125000000 ) 

 **************************************************************************
     freq (    1) =       5.301877 [THz] =     176.851583 [cm-1]
     freq (    2) =       5.405737 [THz] =     180.315978 [cm-1]
     freq (    3) =       5.898929 [THz] =     196.767094 [cm-1]
 **************************************************************************

     Mode symmetry, C_2v (mm2)  point group:

     freq (  1 -  1) =        176.9  [cm-1]   --> A_1  D_1  S_1      
     freq (  2 -  2) =        180.3  [cm-1]   --> B_1  D_3  S_3      
     freq (  3 -  3) =        196.8  [cm-1]   --> B_2  D_4  S_4      

     Calculation of q =    0.0000000   0.0000000  -1.0000000

   Info: using nr1, nr2, nr3 values from input

   Info: using nr1, nr2, nr3 values from input

     Parallelization info
     --------------------
     sticks:   dense  smooth     PW     G-vecs:    dense   smooth      PW
     Min         210     103     41                 3920     1367     322
     Max         211     104     42                 3923     1369     323
     Sum         841     415    165                15683     5473    1289



     bravais-lattice index     =            3
     lattice parameter (alat)  =       6.8761  a.u.
     unit-cell volume          =     162.5518 (a.u.)^3
     number of atoms/cell      =            1
     number of atomic types    =            1
     number of electrons       =         9.00
     number of Kohn-Sham states=            9
     kinetic-energy cutoff     =      40.0000  Ry
     charge density cutoff     =     320.0000  Ry
     Exchange-correlation      = SLA  PW   PBE  PBE ( 1  4  3  4 0 0)

     celldm(1)=   6.876075  celldm(2)=   0.000000  celldm(3)=   0.000000
     celldm(4)=   0.000000  celldm(5)=   0.000000  celldm(6)=   0.000000

     crystal axes: (cart. coord. in units of alat)
               a(1) = (   0.500000   0.500000   0.500000 )  
               a(2) = (  -0.500000   0.500000   0.500000 )  
               a(3) = (  -0.500000  -0.500000   0.500000 )  

     reciprocal axes: (cart. coord. in units 2 pi/alat)
               b(1) = (  1.000000  0.000000  1.000000 )  
               b(2) = ( -1.000000  1.000000  0.000000 )  
               b(3) = (  0.000000 -1.000000  1.000000 )  


     PseudoPot. # 1 for Na read from file:
     /home/s1333534/quantum_espresso/qe-6.1/pseudo/Na_pbe_v1.uspp.F.UPF
     MD5 check sum: 76a99c7e9422403d3e93cbc85ab7bccb
     Pseudo is Ultrasoft, Zval =  9.0
     Generated by new atomic code, or converted to UPF format
     Using radial grid of  819 points,  5 beta functions with: 
                l(1) =   0
                l(2) =   0
                l(3) =   1
                l(4) =   1
                l(5) =   2
     Q(r) pseudized with  8 coefficients,  rinner =    1.250   1.250   1.250
                                                       1.250   1.250

     atomic species   valence    mass     pseudopotential
        Na             9.00    22.99000     Na( 1.00)

     48 Sym. Ops., with inversion, found



   Cartesian axes

     site n.     atom                  positions (alat units)
         1           Na  tau(   1) = (   0.0000000   0.0000000   0.0000000  )

     number of k points=   200  Marzari-Vanderbilt smearing, width (Ry)=  0.0200

     Number of k-points >= 100: set verbosity='high' to print them.

     Dense  grid:    15683 G-vectors     FFT dimensions: (  36,  36,  36)

     Smooth grid:     5473 G-vectors     FFT dimensions: (  24,  24,  24)

     Estimated max dynamical RAM per process >       1.54MB

     Estimated total allocated dynamical RAM >       6.14MB

     The potential is recalculated from file :
     ./_ph0/na.bcc.save/charge-density.dat

     Starting wfc are    5 atomic +    4 random wfc

     Band Structure Calculation
     Davidson diagonalization with overlap

     ethr =  1.11E-10,  avg # of iterations = 18.4

     total cpu time spent up to now is     1156.3 secs

     End of band structure calculation

     Number of k-points >= 100: set verbosity='high' to print the bands.

     the Fermi energy is     3.9090 ev

     Writing output data file na.bcc.save

                                                                                

     bravais-lattice index     =            3
     lattice parameter (alat)  =       6.8761  a.u.
     unit-cell volume          =     162.5518 (a.u.)^3
     number of atoms/cell      =            1
     number of atomic types    =            1
     kinetic-energy cut-off    =      40.0000  Ry
     charge density cut-off    =     320.0000  Ry
     convergence threshold     =      1.0E-12
     beta                      =       0.7000
     number of iterations used =            4
     Exchange-correlation      = SLA  PW   PBE  PBE ( 1  4  3  4 0 0)


     celldm(1)=    6.87607  celldm(2)=    0.00000  celldm(3)=    0.00000
     celldm(4)=    0.00000  celldm(5)=    0.00000  celldm(6)=    0.00000

     crystal axes: (cart. coord. in units of alat)
               a(1) = (  0.5000  0.5000  0.5000 )  
               a(2) = ( -0.5000  0.5000  0.5000 )  
               a(3) = ( -0.5000 -0.5000  0.5000 )  

     reciprocal axes: (cart. coord. in units 2 pi/alat)
               b(1) = (  1.0000  0.0000  1.0000 )  
               b(2) = ( -1.0000  1.0000  0.0000 )  
               b(3) = (  0.0000 -1.0000  1.0000 )  


     Atoms inside the unit cell: 

     Cartesian axes

     site n.  atom      mass           positions (alat units)
        1     Na  22.9900   tau(    1) = (    0.00000    0.00000    0.00000  )

     Computing dynamical matrix for 
                    q = (   0.0000000   0.0000000  -1.0000000 )

     49 Sym.Ops. (with q -> -q+G )


     G cutoff =  383.2405  (   3920 G-vectors)     FFT grid: ( 36, 36, 36)
     G cutoff =  191.6203  (   1368 G-vectors)  smooth grid: ( 24, 24, 24)

     number of k points=   200  Marzari-Vanderbilt smearing, width (Ry)=  0.0200

     PseudoPot. # 1 for Na read from file:
     /home/s1333534/quantum_espresso/qe-6.1/pseudo/Na_pbe_v1.uspp.F.UPF
     MD5 check sum: 76a99c7e9422403d3e93cbc85ab7bccb
     Pseudo is Ultrasoft, Zval =  9.0
     Generated by new atomic code, or converted to UPF format
     Using radial grid of  819 points,  5 beta functions with: 
                l(1) =   0
                l(2) =   0
                l(3) =   1
                l(4) =   1
                l(5) =   2
     Q(r) pseudized with  8 coefficients,  rinner =    1.250   1.250   1.250
                                                       1.250   1.250

     Mode symmetry, O_h (m-3m)  point group:


     Atomic displacements:
     There are   1 irreducible representations

     Representation     1      3 modes -T_1u G_15  G_4-  To be done



     Alpha used in Ewald sum =   2.8000
     PHONON       :     1h18m CPU        1h24m WALL



     Representation #  1 modes #   1  2  3

     Self-consistent Calculation

      iter #   1 total cpu time :  5055.4 secs   av.it.:   5.7
      thresh= 1.000E-02 alpha_mix =  0.700 |ddv_scf|^2 =  5.167E-06

      iter #   2 total cpu time :  5057.5 secs   av.it.:   8.3
      thresh= 2.273E-04 alpha_mix =  0.700 |ddv_scf|^2 =  5.248E-08

      iter #   3 total cpu time :  5059.6 secs   av.it.:   8.2
      thresh= 2.291E-05 alpha_mix =  0.700 |ddv_scf|^2 =  4.567E-09

      iter #   4 total cpu time :  5061.7 secs   av.it.:   8.3
      thresh= 6.758E-06 alpha_mix =  0.700 |ddv_scf|^2 =  2.017E-11

      iter #   5 total cpu time :  5063.7 secs   av.it.:   8.2
      thresh= 4.492E-07 alpha_mix =  0.700 |ddv_scf|^2 =  5.665E-15

     End of self-consistent calculation

     Convergence has been achieved 

     Number of q in the star =    1
     List of q in the star:
          1   0.000000000   0.000000000  -1.000000000

     Diagonalizing the dynamical matrix

     q = (    0.000000000   0.000000000  -1.000000000 ) 

 **************************************************************************
     freq (    1) =       5.628660 [THz] =     187.751887 [cm-1]
     freq (    2) =       5.628660 [THz] =     187.751887 [cm-1]
     freq (    3) =       5.628660 [THz] =     187.751887 [cm-1]
 **************************************************************************

     Mode symmetry, O_h (m-3m)  point group:

     freq (  1 -  3) =        187.8  [cm-1]   --> T_1u G_15  G_4-    

     init_run     :      4.50s CPU      4.54s WALL (      28 calls)
     electrons    :   1048.15s CPU   1106.85s WALL (      28 calls)

     Called by init_run:
     wfcinit      :      0.00s CPU      0.00s WALL (      28 calls)
     potinit      :      0.29s CPU      0.30s WALL (      28 calls)

     Called by electrons:
     c_bands      :   1047.86s CPU   1106.55s WALL (      28 calls)
     v_of_rho     :      0.23s CPU      0.23s WALL (      29 calls)
     newd         :      0.26s CPU      0.27s WALL (      29 calls)

     Called by c_bands:
     init_us_2    :     71.07s CPU     66.61s WALL (  911373 calls)
     cegterg      :    964.57s CPU   1017.60s WALL (   74774 calls)

     Called by sum_band:

     Called by *egterg:
     h_psi        :   3006.18s CPU   3238.23s WALL ( 7502941 calls)
     s_psi        :    119.87s CPU    114.25s WALL (14366123 calls)
     g_psi        :      6.45s CPU      8.08s WALL ( 1147493 calls)
     cdiaghg      :    246.31s CPU    250.76s WALL ( 1210659 calls)

     Called by h_psi:
     h_psi:pot    :   2989.80s CPU   3214.73s WALL ( 7502941 calls)
     h_psi:calbec :     89.11s CPU     94.67s WALL ( 7502941 calls)
     vloc_psi     :   2838.21s CPU   3029.99s WALL ( 7502941 calls)
     add_vuspsi   :     47.62s CPU     68.56s WALL ( 7502941 calls)

     General routines
     calbec       :    180.13s CPU    185.72s WALL (15930304 calls)
     fft          :      2.16s CPU      2.29s WALL (    8992 calls)
     ffts         :      5.91s CPU      6.00s WALL (   97075 calls)
     fftw         :   3130.18s CPU   3245.87s WALL (72541175 calls)
     interpolate  :      0.34s CPU      0.42s WALL (    1247 calls)
     davcio       :     25.60s CPU     46.67s WALL ( 3453788 calls)

     Parallel routines
     fft_scatter  :    645.47s CPU    747.07s WALL (72647242 calls)

     PHONON       :     1h18m CPU        1h24m WALL

     INITIALIZATION: 
     phq_setup    :      0.78s CPU      0.79s WALL (      29 calls)
     phq_init     :     84.49s CPU     88.66s WALL (      29 calls)

     phq_init     :     84.49s CPU     88.66s WALL (      29 calls)
     init_vloc    :      0.07s CPU      0.07s WALL (      29 calls)
     init_us_1    :      2.58s CPU      2.60s WALL (      29 calls)
     newd         :      0.26s CPU      0.27s WALL (      29 calls)
     dvanqq       :      1.08s CPU      1.10s WALL (      29 calls)
     drho         :     66.06s CPU     69.33s WALL (      29 calls)

     DYNAMICAL MATRIX:
     dynmat0      :     10.79s CPU     11.18s WALL (      29 calls)
     phqscf       :   3525.08s CPU   3815.16s WALL (      29 calls)
     dynmatrix    :      0.03s CPU      0.04s WALL (      29 calls)

     phqscf       :   3525.08s CPU   3815.16s WALL (      29 calls)
     solve_linter :   3507.15s CPU   3796.33s WALL (      76 calls)
     drhodv       :     17.84s CPU     18.72s WALL (      76 calls)

     dynmat0      :     10.79s CPU     11.18s WALL (      29 calls)
     dynmat_us    :     10.75s CPU     11.14s WALL (      29 calls)
     d2ionq       :      0.02s CPU      0.02s WALL (      29 calls)

     dynmat_us    :     10.75s CPU     11.14s WALL (      29 calls)
     addusdynmat  :      0.00s CPU      0.00s WALL (      29 calls)

     phqscf       :   3525.08s CPU   3815.16s WALL (      29 calls)
     solve_linter :   3507.15s CPU   3796.33s WALL (      76 calls)

     solve_linter :   3507.15s CPU   3796.33s WALL (      76 calls)
     dvqpsi_us    :    103.83s CPU    111.24s WALL (   95049 calls)
     ortho        :     34.52s CPU     37.97s WALL (  645674 calls)
     cgsolve      :   2711.65s CPU   2915.60s WALL (  645674 calls)
     incdrhoscf   :    300.32s CPU    328.24s WALL (  645674 calls)
     addusddens   :      8.65s CPU      8.70s WALL (     572 calls)
     vpsifft      :    235.44s CPU    256.24s WALL (  550625 calls)
     dv_of_drho   :      2.45s CPU      2.54s WALL (     551 calls)
     mix_pot      :      0.35s CPU      1.01s WALL (     496 calls)
     ef_shift     :      0.01s CPU      0.01s WALL (       6 calls)
     localdos     :      0.05s CPU      0.05s WALL (       1 calls)
     psymdvscf    :      5.72s CPU      5.78s WALL (     427 calls)
     newdq        :      7.77s CPU      7.85s WALL (     496 calls)
     adddvscf     :     13.27s CPU     14.16s WALL (  550625 calls)
     drhodvus     :      0.02s CPU      0.02s WALL (      76 calls)

     dvqpsi_us    :    103.83s CPU    111.24s WALL (   95049 calls)
     dvqpsi_us_on :     20.16s CPU     20.26s WALL (   95049 calls)

     cgsolve      :   2711.65s CPU   2915.60s WALL (  645674 calls)
     ch_psi       :   2641.22s CPU   2848.04s WALL ( 6217508 calls)

     ch_psi       :   2641.22s CPU   2848.04s WALL ( 6217508 calls)
     h_psi        :   3006.18s CPU   3238.23s WALL ( 7502941 calls)
     last         :    194.46s CPU    217.73s WALL ( 6217508 calls)

     h_psi        :   3006.18s CPU   3238.23s WALL ( 7502941 calls)
     add_vuspsi   :     47.62s CPU     68.56s WALL ( 7502941 calls)

     incdrhoscf   :    300.32s CPU    328.24s WALL (  645674 calls)
     addusdbec    :     15.34s CPU     17.00s WALL (  740723 calls)

     drhodvus     :      0.02s CPU      0.02s WALL (      76 calls)

      General routines
     calbec       :    180.13s CPU    185.72s WALL (15930304 calls)
     fft          :      2.16s CPU      2.29s WALL (    8992 calls)
     ffts         :      5.91s CPU      6.00s WALL (   97075 calls)
     fftw         :   3130.18s CPU   3245.87s WALL (72541175 calls)
     davcio       :     25.60s CPU     46.67s WALL ( 3453788 calls)
     write_rec    :      0.42s CPU      0.56s WALL (     572 calls)


     PHONON       :     1h18m CPU        1h24m WALL


   This run was terminated on:  13:14: 7  21Dec2017            

=------------------------------------------------------------------------------=
   JOB DONE.
=------------------------------------------------------------------------------=
