
     Program PHONON v.5.4.0 starts on 26Mar2018 at 12: 8:44 

     This program is part of the open-source Quantum ESPRESSO suite
     for quantum simulation of materials; please cite
         "P. Giannozzi et al., J. Phys.:Condens. Matter 21 395502 (2009);
          URL http://www.quantum-espresso.org", 
     in publications or presentations arising from this work. More details at
     http://www.quantum-espresso.org/quote

     Parallel version (MPI & OpenMP), running on     192 processor cores
     Number of MPI processes:               192
     Threads/MPI process:                     1
     K-points division:     npool     =      24
     R & G space division:  proc/nbgrp/npool/nimage =       8

     Reading data from directory:
     ./na_hcp/na_hcp.save

   Info: using nr1, nr2, nr3 values from input

   Info: using nr1, nr2, nr3 values from input

     IMPORTANT: XC functional enforced from input :
     Exchange-correlation      = SLA  PW   PBE  PBE ( 1  4  3  4 0 0)
     Any further DFT definition will be discarded
     Please, verify this is what you really want

 
     Parallelization info
     --------------------
     sticks:   dense  smooth     PW     G-vecs:    dense   smooth      PW
     Min         133      68     20                 5835     2056     346
     Max         134      69     21                 5844     2068     351
     Sum        1069     547    163                46721    16503    2779
 


     Dynamical matrices for ( 4, 4, 4)  uniform grid of q-points
     (  12q-points):
       N         xq(1)         xq(2)         xq(3) 
       1   0.000000000   0.000000000   0.000000000
       2   0.000000000   0.000000000   0.153330962
       3   0.000000000   0.000000000  -0.306661924
       4   0.000000000   0.288675135   0.000000000
       5   0.000000000   0.288675135   0.153330962
       6   0.000000000   0.288675135  -0.306661924
       7   0.000000000  -0.577350269   0.000000000
       8   0.000000000  -0.577350269   0.153330962
       9   0.000000000  -0.577350269  -0.306661924
      10   0.250000000   0.433012702   0.000000000
      11   0.250000000   0.433012702   0.153330962
      12   0.250000000   0.433012702  -0.306661924

     Calculation of q =    0.0000000   0.0000000   0.0000000

                                                                                

     bravais-lattice index     =            4
     lattice parameter (alat)  =       6.9939  a.u.
     unit-cell volume          =     483.0474 (a.u.)^3
     number of atoms/cell      =            2
     number of atomic types    =            1
     kinetic-energy cut-off    =      40.0000  Ry
     charge density cut-off    =     320.0000  Ry
     convergence threshold     =      1.0E-15
     beta                      =       0.7000
     number of iterations used =            4
     Exchange-correlation      = SLA  PW   PBE  PBE ( 1  4  3  4 0 0)


     celldm(1)=    6.99385  celldm(2)=    0.00000  celldm(3)=    1.63046
     celldm(4)=    0.00000  celldm(5)=    0.00000  celldm(6)=    0.00000

     crystal axes: (cart. coord. in units of alat)
               a(1) = (  1.0000  0.0000  0.0000 )  
               a(2) = ( -0.5000  0.8660  0.0000 )  
               a(3) = (  0.0000  0.0000  1.6305 )  

     reciprocal axes: (cart. coord. in units 2 pi/alat)
               b(1) = (  1.0000  0.5774  0.0000 )  
               b(2) = (  0.0000  1.1547  0.0000 )  
               b(3) = (  0.0000  0.0000  0.6133 )  


     Atoms inside the unit cell: 

     Cartesian axes

     site n.  atom      mass           positions (alat units)
        1     Na  22.9900   tau(    1) = (    0.00000    0.00000    0.00000  )
        2     Na  22.9900   tau(    2) = (    0.50000    0.28868    0.81523  )

     Computing dynamical matrix for 
                    q = (   0.0000000   0.0000000   0.0000000 )
 
     13 Sym.Ops. (with q -> -q+G )


     G cutoff =  396.4814  (   5844 G-vectors)     FFT grid: ( 40, 40, 72)
     G cutoff =  198.2407  (   2066 G-vectors)  smooth grid: ( 30, 30, 45)

     number of k points=   366  Marzari-Vanderbilt smearing, width (Ry)=  0.0200

     PseudoPot. # 1 for Na read from file:
     ./Na_pbe_v1.uspp.F.UPF
     MD5 check sum: 76a99c7e9422403d3e93cbc85ab7bccb
     Pseudo is Ultrasoft, Zval =  9.0
     Generated by new atomic code, or converted to UPF format
     Using radial grid of  819 points,  5 beta functions with: 
                l(1) =   0
                l(2) =   0
                l(3) =   1
                l(4) =   1
                l(5) =   2
     Q(r) pseudized with  8 coefficients,  rinner =    1.250   1.250   1.250
                                                       1.250   1.250

     Mode symmetry, D_3h (-62m) point group:


     Atomic displacements:
     There are   4 irreducible representations

     Representation     1      2 modes -E'  To be done

     Representation     2      2 modes -E'  To be done

     Representation     3      1 modes -A''2  To be done

     Representation     4      1 modes -A''2  To be done



     Alpha used in Ewald sum =   2.8000
     PHONON       :     6.39s CPU        10.42s WALL



     Representation #  1 modes #   1  2

     Self-consistent Calculation
 
     Pert. #  1: Fermi energy shift (Ry) =     0.0000E+00     0.0000E+00
     Pert. #  2: Fermi energy shift (Ry) =    -7.2280E-20     0.0000E+00

      iter #   1 total cpu time :    13.6 secs   av.it.:   5.2
      thresh= 1.000E-02 alpha_mix =  0.700 |ddv_scf|^2 =  9.408E-07
 
     Pert. #  1: Fermi energy shift (Ry) =     0.0000E+00     0.0000E+00
     Pert. #  2: Fermi energy shift (Ry) =     2.7105E-20     0.0000E+00

      iter #   2 total cpu time :    16.5 secs   av.it.:   8.7
      thresh= 9.700E-05 alpha_mix =  0.700 |ddv_scf|^2 =  1.686E-08
 
     Pert. #  1: Fermi energy shift (Ry) =    -1.1294E-21     0.0000E+00
     Pert. #  2: Fermi energy shift (Ry) =    -4.5175E-21     0.0000E+00

      iter #   3 total cpu time :    19.6 secs   av.it.:   8.9
      thresh= 1.298E-05 alpha_mix =  0.700 |ddv_scf|^2 =  4.437E-10
 
     Pert. #  1: Fermi energy shift (Ry) =     1.1294E-21     0.0000E+00
     Pert. #  2: Fermi energy shift (Ry) =    -3.9528E-21     0.0000E+00

      iter #   4 total cpu time :    22.0 secs   av.it.:   8.4
      thresh= 2.106E-06 alpha_mix =  0.700 |ddv_scf|^2 =  1.559E-12
 
     Pert. #  1: Fermi energy shift (Ry) =     0.0000E+00     0.0000E+00
     Pert. #  2: Fermi energy shift (Ry) =    -3.3881E-21     0.0000E+00

      iter #   5 total cpu time :    24.9 secs   av.it.:   8.9
      thresh= 1.249E-07 alpha_mix =  0.700 |ddv_scf|^2 =  5.874E-15
 
     Pert. #  1: Fermi energy shift (Ry) =     0.0000E+00     0.0000E+00
     Pert. #  2: Fermi energy shift (Ry) =    -3.9528E-21     0.0000E+00

      iter #   6 total cpu time :    28.0 secs   av.it.:   8.6
      thresh= 7.664E-09 alpha_mix =  0.700 |ddv_scf|^2 =  1.053E-16

     End of self-consistent calculation

     Convergence has been achieved 


     Representation #  2 modes #   3  4

     Self-consistent Calculation
 
     Pert. #  1: Fermi energy shift (Ry) =     0.0000E+00     3.1347E-37
     Pert. #  2: Fermi energy shift (Ry) =     2.5298E-19     6.2693E-38

      iter #   1 total cpu time :    35.5 secs   av.it.:   5.2
      thresh= 1.000E-02 alpha_mix =  0.700 |ddv_scf|^2 =  9.408E-07
 
     Pert. #  1: Fermi energy shift (Ry) =    -2.7105E-20    -2.4489E-40
     Pert. #  2: Fermi energy shift (Ry) =    -2.2588E-20     1.2245E-40

      iter #   2 total cpu time :    38.1 secs   av.it.:   8.7
      thresh= 9.699E-05 alpha_mix =  0.700 |ddv_scf|^2 =  1.686E-08
 
     Pert. #  1: Fermi energy shift (Ry) =    -4.5175E-21    -6.1224E-41
     Pert. #  2: Fermi energy shift (Ry) =     3.3881E-21    -4.5918E-41

      iter #   3 total cpu time :    41.2 secs   av.it.:   8.9
      thresh= 1.299E-05 alpha_mix =  0.700 |ddv_scf|^2 =  4.450E-10
 
     Pert. #  1: Fermi energy shift (Ry) =    -1.1294E-21     6.1224E-41
     Pert. #  2: Fermi energy shift (Ry) =     1.1294E-21     9.1835E-41

      iter #   4 total cpu time :    48.9 secs   av.it.:   8.5
      thresh= 2.110E-06 alpha_mix =  0.700 |ddv_scf|^2 =  1.552E-12
 
     Pert. #  1: Fermi energy shift (Ry) =    -2.8234E-21     4.7831E-43
     Pert. #  2: Fermi energy shift (Ry) =     5.6469E-21     4.7831E-43

      iter #   5 total cpu time :    51.0 secs   av.it.:   8.9
      thresh= 1.246E-07 alpha_mix =  0.700 |ddv_scf|^2 =  5.876E-15
 
     Pert. #  1: Fermi energy shift (Ry) =    -2.2588E-21    -1.9132E-42
     Pert. #  2: Fermi energy shift (Ry) =     1.1294E-21     9.5662E-43

      iter #   6 total cpu time :    53.9 secs   av.it.:   8.7
      thresh= 7.665E-09 alpha_mix =  0.700 |ddv_scf|^2 =  1.054E-16

     End of self-consistent calculation

     Convergence has been achieved 


     Representation #  3 mode #   5

     Self-consistent Calculation
 
     Pert. #  1: Fermi energy shift (Ry) =     9.0350E-21     0.0000E+00

      iter #   1 total cpu time :    55.3 secs   av.it.:   5.5
      thresh= 1.000E-02 alpha_mix =  0.700 |ddv_scf|^2 =  2.031E-05
 
     Pert. #  1: Fermi energy shift (Ry) =     0.0000E+00     0.0000E+00

      iter #   2 total cpu time :    56.9 secs   av.it.:   8.0
      thresh= 4.507E-04 alpha_mix =  0.700 |ddv_scf|^2 =  1.137E-05
 
     Pert. #  1: Fermi energy shift (Ry) =     5.6469E-22     0.0000E+00

      iter #   3 total cpu time :    58.3 secs   av.it.:   7.0
      thresh= 3.371E-04 alpha_mix =  0.700 |ddv_scf|^2 =  1.911E-08
 
     Pert. #  1: Fermi energy shift (Ry) =     1.4117E-22     0.0000E+00

      iter #   4 total cpu time :    60.2 secs   av.it.:   8.4
      thresh= 1.382E-05 alpha_mix =  0.700 |ddv_scf|^2 =  4.001E-10
 
     Pert. #  1: Fermi energy shift (Ry) =     0.0000E+00     0.0000E+00

      iter #   5 total cpu time :    61.8 secs   av.it.:   7.9
      thresh= 2.000E-06 alpha_mix =  0.700 |ddv_scf|^2 =  3.072E-12
 
     Pert. #  1: Fermi energy shift (Ry) =    -2.8234E-22     0.0000E+00

      iter #   6 total cpu time :    64.2 secs   av.it.:   8.0
      thresh= 1.753E-07 alpha_mix =  0.700 |ddv_scf|^2 =  3.135E-14
 
     Pert. #  1: Fermi energy shift (Ry) =     0.0000E+00     0.0000E+00

      iter #   7 total cpu time :    66.5 secs   av.it.:   8.2
      thresh= 1.770E-08 alpha_mix =  0.700 |ddv_scf|^2 =  6.024E-16

     End of self-consistent calculation

     Convergence has been achieved 


     Representation #  4 mode #   6

     Self-consistent Calculation
 
     Pert. #  1: Fermi energy shift (Ry) =     0.0000E+00     0.0000E+00

      iter #   1 total cpu time :    68.9 secs   av.it.:   5.5
      thresh= 1.000E-02 alpha_mix =  0.700 |ddv_scf|^2 =  2.031E-05
 
     Pert. #  1: Fermi energy shift (Ry) =     1.1294E-21     0.0000E+00

      iter #   2 total cpu time :    71.0 secs   av.it.:   8.0
      thresh= 4.507E-04 alpha_mix =  0.700 |ddv_scf|^2 =  1.137E-05
 
     Pert. #  1: Fermi energy shift (Ry) =     0.0000E+00     0.0000E+00

      iter #   3 total cpu time :    72.7 secs   av.it.:   7.0
      thresh= 3.371E-04 alpha_mix =  0.700 |ddv_scf|^2 =  1.911E-08
 
     Pert. #  1: Fermi energy shift (Ry) =     0.0000E+00     0.0000E+00

      iter #   4 total cpu time :    74.8 secs   av.it.:   8.4
      thresh= 1.382E-05 alpha_mix =  0.700 |ddv_scf|^2 =  4.002E-10
 
     Pert. #  1: Fermi energy shift (Ry) =     0.0000E+00     0.0000E+00

      iter #   5 total cpu time :    76.4 secs   av.it.:   7.9
      thresh= 2.000E-06 alpha_mix =  0.700 |ddv_scf|^2 =  3.072E-12
 
     Pert. #  1: Fermi energy shift (Ry) =     0.0000E+00     0.0000E+00

      iter #   6 total cpu time :    78.6 secs   av.it.:   8.0
      thresh= 1.753E-07 alpha_mix =  0.700 |ddv_scf|^2 =  3.134E-14
 
     Pert. #  1: Fermi energy shift (Ry) =     0.0000E+00     0.0000E+00

      iter #   7 total cpu time :    80.4 secs   av.it.:   8.2
      thresh= 1.770E-08 alpha_mix =  0.700 |ddv_scf|^2 =  6.024E-16

     End of self-consistent calculation

     Convergence has been achieved 
 
     Number of q in the star =    1
     List of q in the star:
          1   0.000000000   0.000000000   0.000000000

     Diagonalizing the dynamical matrix

     q = (    0.000000000   0.000000000   0.000000000 ) 

 **************************************************************************
     freq (    1) =      -0.553423 [THz] =     -18.460197 [cm-1]
     freq (    2) =      -0.553423 [THz] =     -18.460197 [cm-1]
     freq (    3) =       0.585034 [THz] =      19.514650 [cm-1]
     freq (    4) =       1.689165 [THz] =      56.344472 [cm-1]
     freq (    5) =       1.689165 [THz] =      56.344472 [cm-1]
     freq (    6) =       4.045045 [THz] =     134.928162 [cm-1]
 **************************************************************************

     Mode symmetry, D_3h (-62m) point group:

     freq (  1 -  2) =        -18.5  [cm-1]   --> E'              I+R
     freq (  3 -  3) =         19.5  [cm-1]   --> A''2            I  
     freq (  4 -  5) =         56.3  [cm-1]   --> E'              I+R
     freq (  6 -  6) =        134.9  [cm-1]   --> A''2            I  

     Calculation of q =    0.0000000   0.0000000   0.1533310
 
     Parallelization info
     --------------------
     sticks:   dense  smooth     PW     G-vecs:    dense   smooth      PW
     Min         133      68     20                 5835     2056     348
     Max         134      69     21                 5844     2068     355
     Sum        1069     547    163                46721    16503    2803
 


     bravais-lattice index     =            4
     lattice parameter (alat)  =       6.9939  a.u.
     unit-cell volume          =     483.0474 (a.u.)^3
     number of atoms/cell      =            2
     number of atomic types    =            1
     number of electrons       =        18.00
     number of Kohn-Sham states=           13
     kinetic-energy cutoff     =      40.0000  Ry
     charge density cutoff     =     320.0000  Ry
     Exchange-correlation      = SLA  PW   PBE  PBE ( 1  4  3  4 0 0)

     celldm(1)=   6.993850  celldm(2)=   0.000000  celldm(3)=   1.630460
     celldm(4)=   0.000000  celldm(5)=   0.000000  celldm(6)=   0.000000

     crystal axes: (cart. coord. in units of alat)
               a(1) = (   1.000000   0.000000   0.000000 )  
               a(2) = (  -0.500000   0.866025   0.000000 )  
               a(3) = (   0.000000   0.000000   1.630460 )  

     reciprocal axes: (cart. coord. in units 2 pi/alat)
               b(1) = (  1.000000  0.577350  0.000000 )  
               b(2) = (  0.000000  1.154701  0.000000 )  
               b(3) = (  0.000000  0.000000  0.613324 )  


     PseudoPot. # 1 for Na read from file:
     ./Na_pbe_v1.uspp.F.UPF
     MD5 check sum: 76a99c7e9422403d3e93cbc85ab7bccb
     Pseudo is Ultrasoft, Zval =  9.0
     Generated by new atomic code, or converted to UPF format
     Using radial grid of  819 points,  5 beta functions with: 
                l(1) =   0
                l(2) =   0
                l(3) =   1
                l(4) =   1
                l(5) =   2
     Q(r) pseudized with  8 coefficients,  rinner =    1.250   1.250   1.250
                                                       1.250   1.250

     atomic species   valence    mass     pseudopotential
        Na             9.00    22.99000     Na( 1.00)

     12 Sym. Ops. (no inversion) found



   Cartesian axes

     site n.     atom                  positions (alat units)
         1           Na  tau(   1) = (   0.0000000   0.0000000   0.0000000  )
         2           Na  tau(   2) = (   0.5000000   0.2886751   0.8152300  )

     number of k points=  2616  Marzari-Vanderbilt smearing, width (Ry)=  0.0200

     Number of k-points >= 100: set verbosity='high' to print them.

     Dense  grid:    46721 G-vectors     FFT dimensions: (  40,  40,  72)

     Smooth grid:    16503 G-vectors     FFT dimensions: (  30,  30,  45)

     Largest allocated arrays     est. size (Mb)     dimensions
        Kohn-Sham Wavefunctions         0.05 Mb     (     273,   13)
        NL pseudopotentials             0.11 Mb     (     273,   26)
        Each V/rho on FFT grid          0.22 Mb     (   14400)
        Each G-vector array             0.04 Mb     (    5844)
        G-vector shells                 0.01 Mb     (    1734)
     Largest temporary arrays     est. size (Mb)     dimensions
        Auxiliary wavefunctions         0.22 Mb     (     273,   52)
        Each subspace H/S matrix        0.01 Mb     (      26,   26)
        Each <psi_i|beta_j> matrix      0.01 Mb     (      26,   13)

     The potential is recalculated from file :
     ./na_hcp/_ph0/na_hcp.save/charge-density.dat

     Starting wfc are   10 atomic +    3 random wfc

     Band Structure Calculation
     Davidson diagonalization with overlap

     ethr =  5.56E-11,  avg # of iterations = 23.2

     total cpu time spent up to now is       16.7 secs

     End of band structure calculation

     Number of k-points >= 100: set verbosity='high' to print the bands.

     the Fermi energy is     1.7529 ev

     Writing output data file na_hcp.save

                                                                                

     bravais-lattice index     =            4
     lattice parameter (alat)  =       6.9939  a.u.
     unit-cell volume          =     483.0474 (a.u.)^3
     number of atoms/cell      =            2
     number of atomic types    =            1
     kinetic-energy cut-off    =      40.0000  Ry
     charge density cut-off    =     320.0000  Ry
     convergence threshold     =      1.0E-15
     beta                      =       0.7000
     number of iterations used =            4
     Exchange-correlation      = SLA  PW   PBE  PBE ( 1  4  3  4 0 0)


     celldm(1)=    6.99385  celldm(2)=    0.00000  celldm(3)=    1.63046
     celldm(4)=    0.00000  celldm(5)=    0.00000  celldm(6)=    0.00000

     crystal axes: (cart. coord. in units of alat)
               a(1) = (  1.0000  0.0000  0.0000 )  
               a(2) = ( -0.5000  0.8660  0.0000 )  
               a(3) = (  0.0000  0.0000  1.6305 )  

     reciprocal axes: (cart. coord. in units 2 pi/alat)
               b(1) = (  1.0000  0.5774  0.0000 )  
               b(2) = (  0.0000  1.1547  0.0000 )  
               b(3) = (  0.0000  0.0000  0.6133 )  


     Atoms inside the unit cell: 

     Cartesian axes

     site n.  atom      mass           positions (alat units)
        1     Na  22.9900   tau(    1) = (    0.00000    0.00000    0.00000  )
        2     Na  22.9900   tau(    2) = (    0.50000    0.28868    0.81523  )

     Computing dynamical matrix for 
                    q = (   0.0000000   0.0000000   0.1533310 )
 
      6 Sym.Ops. (no q -> -q+G )


     G cutoff =  396.4814  (   5844 G-vectors)     FFT grid: ( 40, 40, 72)
     G cutoff =  198.2407  (   2066 G-vectors)  smooth grid: ( 30, 30, 45)

     number of k points=  2616  Marzari-Vanderbilt smearing, width (Ry)=  0.0200

     PseudoPot. # 1 for Na read from file:
     ./Na_pbe_v1.uspp.F.UPF
     MD5 check sum: 76a99c7e9422403d3e93cbc85ab7bccb
     Pseudo is Ultrasoft, Zval =  9.0
     Generated by new atomic code, or converted to UPF format
     Using radial grid of  819 points,  5 beta functions with: 
                l(1) =   0
                l(2) =   0
                l(3) =   1
                l(4) =   1
                l(5) =   2
     Q(r) pseudized with  8 coefficients,  rinner =    1.250   1.250   1.250
                                                       1.250   1.250

     Mode symmetry, C_3v (3m)   point group:


     Atomic displacements:
     There are   4 irreducible representations

     Representation     1      1 modes -A_1  L_1  To be done

     Representation     2      1 modes -A_1  L_1  To be done

     Representation     3      2 modes -E    L_3  To be done

     Representation     4      2 modes -E    L_3  To be done



     Alpha used in Ewald sum =   2.8000
     PHONON       :  1m27.59s CPU     1m41.67s WALL



     Representation #  1 mode #   1

     Self-consistent Calculation

      iter #   1 total cpu time :   103.3 secs   av.it.:   5.8
      thresh= 1.000E-02 alpha_mix =  0.700 |ddv_scf|^2 =  3.064E-02

      iter #   2 total cpu time :   110.1 secs   av.it.:   6.8
      thresh= 1.000E-02 alpha_mix =  0.700 |ddv_scf|^2 =  1.680E+01

      iter #   3 total cpu time :   115.5 secs   av.it.:   6.7
      thresh= 1.000E-02 alpha_mix =  0.700 |ddv_scf|^2 =  1.993E-04

      iter #   4 total cpu time :   121.8 secs   av.it.:   7.3
      thresh= 1.412E-03 alpha_mix =  0.700 |ddv_scf|^2 =  3.584E-04

      iter #   5 total cpu time :   127.1 secs   av.it.:   6.4
      thresh= 1.893E-03 alpha_mix =  0.700 |ddv_scf|^2 =  1.259E-08

      iter #   6 total cpu time :   133.9 secs   av.it.:   8.3
      thresh= 1.122E-05 alpha_mix =  0.700 |ddv_scf|^2 =  2.212E-08

      iter #   7 total cpu time :   135.7 secs   av.it.:   5.1
      thresh= 1.487E-05 alpha_mix =  0.700 |ddv_scf|^2 =  7.173E-08

      iter #   8 total cpu time :   141.1 secs   av.it.:   6.4
      thresh= 2.678E-05 alpha_mix =  0.700 |ddv_scf|^2 =  3.793E-10

      iter #   9 total cpu time :   146.8 secs   av.it.:   7.4
      thresh= 1.948E-06 alpha_mix =  0.700 |ddv_scf|^2 =  6.142E-09

      iter #  10 total cpu time :   153.0 secs   av.it.:   6.0
      thresh= 7.837E-06 alpha_mix =  0.700 |ddv_scf|^2 =  2.365E-12

      iter #  11 total cpu time :   158.0 secs   av.it.:   8.0
      thresh= 1.538E-07 alpha_mix =  0.700 |ddv_scf|^2 =  7.608E-13

      iter #  12 total cpu time :   163.6 secs   av.it.:   7.2
      thresh= 8.723E-08 alpha_mix =  0.700 |ddv_scf|^2 =  6.418E-14

      iter #  13 total cpu time :   169.1 secs   av.it.:   8.2
      thresh= 2.533E-08 alpha_mix =  0.700 |ddv_scf|^2 =  6.270E-12

      iter #  14 total cpu time :   172.3 secs   av.it.:   3.6
      thresh= 2.504E-07 alpha_mix =  0.700 |ddv_scf|^2 =  6.070E-15

      iter #  15 total cpu time :   177.2 secs   av.it.:   8.1
      thresh= 7.791E-09 alpha_mix =  0.700 |ddv_scf|^2 =  1.036E-14

      iter #  16 total cpu time :   195.3 secs   av.it.:   6.0
      thresh= 1.018E-08 alpha_mix =  0.700 |ddv_scf|^2 =  6.736E-15

      iter #  17 total cpu time :   200.7 secs   av.it.:   6.7
      thresh= 8.207E-09 alpha_mix =  0.700 |ddv_scf|^2 =  2.679E-17

     End of self-consistent calculation

     Convergence has been achieved 


     Representation #  2 mode #   2

     Self-consistent Calculation

      iter #   1 total cpu time :   205.9 secs   av.it.:   5.8
      thresh= 1.000E-02 alpha_mix =  0.700 |ddv_scf|^2 =  3.064E-02

      iter #   2 total cpu time :   211.5 secs   av.it.:   6.8
      thresh= 1.000E-02 alpha_mix =  0.700 |ddv_scf|^2 =  1.680E+01

      iter #   3 total cpu time :   216.9 secs   av.it.:   6.7
      thresh= 1.000E-02 alpha_mix =  0.700 |ddv_scf|^2 =  1.993E-04

      iter #   4 total cpu time :   221.9 secs   av.it.:   7.3
      thresh= 1.412E-03 alpha_mix =  0.700 |ddv_scf|^2 =  3.584E-04

      iter #   5 total cpu time :   226.5 secs   av.it.:   6.4
      thresh= 1.893E-03 alpha_mix =  0.700 |ddv_scf|^2 =  1.256E-08

      iter #   6 total cpu time :   235.1 secs   av.it.:   8.3
      thresh= 1.121E-05 alpha_mix =  0.700 |ddv_scf|^2 =  6.974E-09

      iter #   7 total cpu time :   239.7 secs   av.it.:   6.4
      thresh= 8.351E-06 alpha_mix =  0.700 |ddv_scf|^2 =  1.724E-07

      iter #   8 total cpu time :   244.7 secs   av.it.:   5.9
      thresh= 4.152E-05 alpha_mix =  0.700 |ddv_scf|^2 =  3.874E-10

      iter #   9 total cpu time :   250.5 secs   av.it.:   7.4
      thresh= 1.968E-06 alpha_mix =  0.700 |ddv_scf|^2 =  6.291E-09

      iter #  10 total cpu time :   256.9 secs   av.it.:   6.0
      thresh= 7.932E-06 alpha_mix =  0.700 |ddv_scf|^2 =  2.321E-12

      iter #  11 total cpu time :   270.7 secs   av.it.:   8.0
      thresh= 1.523E-07 alpha_mix =  0.700 |ddv_scf|^2 =  1.039E-12

      iter #  12 total cpu time :   282.9 secs   av.it.:   7.1
      thresh= 1.019E-07 alpha_mix =  0.700 |ddv_scf|^2 =  4.993E-14

      iter #  13 total cpu time :   295.8 secs   av.it.:   8.4
      thresh= 2.234E-08 alpha_mix =  0.700 |ddv_scf|^2 =  2.016E-12

      iter #  14 total cpu time :   306.2 secs   av.it.:   4.1
      thresh= 1.420E-07 alpha_mix =  0.700 |ddv_scf|^2 =  1.685E-14

      iter #  15 total cpu time :   325.4 secs   av.it.:   7.7
      thresh= 1.298E-08 alpha_mix =  0.700 |ddv_scf|^2 =  9.692E-15

      iter #  16 total cpu time :   346.1 secs   av.it.:   6.0
      thresh= 9.845E-09 alpha_mix =  0.700 |ddv_scf|^2 =  6.283E-15

      iter #  17 total cpu time :   352.9 secs   av.it.:   6.7
      thresh= 7.926E-09 alpha_mix =  0.700 |ddv_scf|^2 =  3.058E-17

     End of self-consistent calculation

     Convergence has been achieved 


     Representation #  3 modes #   3  4

     Self-consistent Calculation

      iter #   1 total cpu time :   364.0 secs   av.it.:   5.2
      thresh= 1.000E-02 alpha_mix =  0.700 |ddv_scf|^2 =  9.398E-07

      iter #   2 total cpu time :   374.9 secs   av.it.:   8.7
      thresh= 9.694E-05 alpha_mix =  0.700 |ddv_scf|^2 =  1.687E-08

      iter #   3 total cpu time :   384.6 secs   av.it.:   9.0
      thresh= 1.299E-05 alpha_mix =  0.700 |ddv_scf|^2 =  4.367E-10

      iter #   4 total cpu time :   404.6 secs   av.it.:   8.6
      thresh= 2.090E-06 alpha_mix =  0.700 |ddv_scf|^2 =  1.491E-12

      iter #   5 total cpu time :   422.2 secs   av.it.:   9.0
      thresh= 1.221E-07 alpha_mix =  0.700 |ddv_scf|^2 =  4.344E-15

      iter #   6 total cpu time :   455.9 secs   av.it.:   8.6
      thresh= 6.591E-09 alpha_mix =  0.700 |ddv_scf|^2 =  1.004E-16

     End of self-consistent calculation

     Convergence has been achieved 


     Representation #  4 modes #   5  6

     Self-consistent Calculation

      iter #   1 total cpu time :   472.5 secs   av.it.:   5.2
      thresh= 1.000E-02 alpha_mix =  0.700 |ddv_scf|^2 =  9.397E-07

      iter #   2 total cpu time :   489.9 secs   av.it.:   8.7
      thresh= 9.694E-05 alpha_mix =  0.700 |ddv_scf|^2 =  1.688E-08

      iter #   3 total cpu time :   500.1 secs   av.it.:   9.0
      thresh= 1.299E-05 alpha_mix =  0.700 |ddv_scf|^2 =  4.380E-10

      iter #   4 total cpu time :   511.1 secs   av.it.:   8.5
      thresh= 2.093E-06 alpha_mix =  0.700 |ddv_scf|^2 =  1.484E-12

      iter #   5 total cpu time :   522.6 secs   av.it.:   8.9
      thresh= 1.218E-07 alpha_mix =  0.700 |ddv_scf|^2 =  4.347E-15

      iter #   6 total cpu time :   532.1 secs   av.it.:   8.6
      thresh= 6.593E-09 alpha_mix =  0.700 |ddv_scf|^2 =  1.005E-16

     End of self-consistent calculation

     Convergence has been achieved 
 
     Number of q in the star =    2
     List of q in the star:
          1   0.000000000   0.000000000   0.153330962
          2   0.000000000   0.000000000  -0.153330962

     Diagonalizing the dynamical matrix

     q = (    0.000000000   0.000000000   0.153330962 ) 

 **************************************************************************
     freq (    1) =       0.411452 [THz] =      13.724557 [cm-1]
     freq (    2) =       0.411452 [THz] =      13.724557 [cm-1]
     freq (    3) =       1.565968 [THz] =      52.235069 [cm-1]
     freq (    4) =       1.565968 [THz] =      52.235069 [cm-1]
     freq (    5) =       1.650507 [THz] =      55.054999 [cm-1]
     freq (    6) =       3.801654 [THz] =     126.809517 [cm-1]
 **************************************************************************

     Mode symmetry, C_3v (3m)   point group:

     freq (  1 -  2) =         13.7  [cm-1]   --> E    L_3           
     freq (  3 -  4) =         52.2  [cm-1]   --> E    L_3           
     freq (  5 -  5) =         55.1  [cm-1]   --> A_1  L_1           
     freq (  6 -  6) =        126.8  [cm-1]   --> A_1  L_1           

     Calculation of q =    0.0000000   0.0000000  -0.3066619
 
     Parallelization info
     --------------------
     sticks:   dense  smooth     PW     G-vecs:    dense   smooth      PW
     Min         133      68     20                 5835     2056     346
     Max         134      69     21                 5844     2068     351
     Sum        1069     547    163                46721    16503    2779
 


     bravais-lattice index     =            4
     lattice parameter (alat)  =       6.9939  a.u.
     unit-cell volume          =     483.0474 (a.u.)^3
     number of atoms/cell      =            2
     number of atomic types    =            1
     number of electrons       =        18.00
     number of Kohn-Sham states=           13
     kinetic-energy cutoff     =      40.0000  Ry
     charge density cutoff     =     320.0000  Ry
     Exchange-correlation      = SLA  PW   PBE  PBE ( 1  4  3  4 0 0)

     celldm(1)=   6.993850  celldm(2)=   0.000000  celldm(3)=   1.630460
     celldm(4)=   0.000000  celldm(5)=   0.000000  celldm(6)=   0.000000

     crystal axes: (cart. coord. in units of alat)
               a(1) = (   1.000000   0.000000   0.000000 )  
               a(2) = (  -0.500000   0.866025   0.000000 )  
               a(3) = (   0.000000   0.000000   1.630460 )  

     reciprocal axes: (cart. coord. in units 2 pi/alat)
               b(1) = (  1.000000  0.577350  0.000000 )  
               b(2) = (  0.000000  1.154701  0.000000 )  
               b(3) = (  0.000000  0.000000  0.613324 )  


     PseudoPot. # 1 for Na read from file:
     ./Na_pbe_v1.uspp.F.UPF
     MD5 check sum: 76a99c7e9422403d3e93cbc85ab7bccb
     Pseudo is Ultrasoft, Zval =  9.0
     Generated by new atomic code, or converted to UPF format
     Using radial grid of  819 points,  5 beta functions with: 
                l(1) =   0
                l(2) =   0
                l(3) =   1
                l(4) =   1
                l(5) =   2
     Q(r) pseudized with  8 coefficients,  rinner =    1.250   1.250   1.250
                                                       1.250   1.250

     atomic species   valence    mass     pseudopotential
        Na             9.00    22.99000     Na( 1.00)

     12 Sym. Ops. (no inversion) found



   Cartesian axes

     site n.     atom                  positions (alat units)
         1           Na  tau(   1) = (   0.0000000   0.0000000   0.0000000  )
         2           Na  tau(   2) = (   0.5000000   0.2886751   0.8152300  )

     number of k points=   732  Marzari-Vanderbilt smearing, width (Ry)=  0.0200

     Number of k-points >= 100: set verbosity='high' to print them.

     Dense  grid:    46721 G-vectors     FFT dimensions: (  40,  40,  72)

     Smooth grid:    16503 G-vectors     FFT dimensions: (  30,  30,  45)

     Largest allocated arrays     est. size (Mb)     dimensions
        Kohn-Sham Wavefunctions         0.05 Mb     (     276,   13)
        NL pseudopotentials             0.11 Mb     (     276,   26)
        Each V/rho on FFT grid          0.22 Mb     (   14400)
        Each G-vector array             0.04 Mb     (    5844)
        G-vector shells                 0.01 Mb     (    1763)
     Largest temporary arrays     est. size (Mb)     dimensions
        Auxiliary wavefunctions         0.22 Mb     (     276,   52)
        Each subspace H/S matrix        0.01 Mb     (      26,   26)
        Each <psi_i|beta_j> matrix      0.01 Mb     (      26,   13)

     The potential is recalculated from file :
     ./na_hcp/_ph0/na_hcp.save/charge-density.dat

     Starting wfc are   10 atomic +    3 random wfc

     Band Structure Calculation
     Davidson diagonalization with overlap

     ethr =  5.56E-11,  avg # of iterations = 23.3

     total cpu time spent up to now is       22.1 secs

     End of band structure calculation

     Number of k-points >= 100: set verbosity='high' to print the bands.

     the Fermi energy is     1.7529 ev

     Writing output data file na_hcp.save

                                                                                

     bravais-lattice index     =            4
     lattice parameter (alat)  =       6.9939  a.u.
     unit-cell volume          =     483.0474 (a.u.)^3
     number of atoms/cell      =            2
     number of atomic types    =            1
     kinetic-energy cut-off    =      40.0000  Ry
     charge density cut-off    =     320.0000  Ry
     convergence threshold     =      1.0E-15
     beta                      =       0.7000
     number of iterations used =            4
     Exchange-correlation      = SLA  PW   PBE  PBE ( 1  4  3  4 0 0)


     celldm(1)=    6.99385  celldm(2)=    0.00000  celldm(3)=    1.63046
     celldm(4)=    0.00000  celldm(5)=    0.00000  celldm(6)=    0.00000

     crystal axes: (cart. coord. in units of alat)
               a(1) = (  1.0000  0.0000  0.0000 )  
               a(2) = ( -0.5000  0.8660  0.0000 )  
               a(3) = (  0.0000  0.0000  1.6305 )  

     reciprocal axes: (cart. coord. in units 2 pi/alat)
               b(1) = (  1.0000  0.5774  0.0000 )  
               b(2) = (  0.0000  1.1547  0.0000 )  
               b(3) = (  0.0000  0.0000  0.6133 )  


     Atoms inside the unit cell: 

     Cartesian axes

     site n.  atom      mass           positions (alat units)
        1     Na  22.9900   tau(    1) = (    0.00000    0.00000    0.00000  )
        2     Na  22.9900   tau(    2) = (    0.50000    0.28868    0.81523  )

     Computing dynamical matrix for 
                    q = (   0.0000000   0.0000000  -0.3066619 )
 
     13 Sym.Ops. (with q -> -q+G )


     G cutoff =  396.4814  (   5844 G-vectors)     FFT grid: ( 40, 40, 72)
     G cutoff =  198.2407  (   2066 G-vectors)  smooth grid: ( 30, 30, 45)

     number of k points=   732  Marzari-Vanderbilt smearing, width (Ry)=  0.0200

     PseudoPot. # 1 for Na read from file:
     ./Na_pbe_v1.uspp.F.UPF
     MD5 check sum: 76a99c7e9422403d3e93cbc85ab7bccb
     Pseudo is Ultrasoft, Zval =  9.0
     Generated by new atomic code, or converted to UPF format
     Using radial grid of  819 points,  5 beta functions with: 
                l(1) =   0
                l(2) =   0
                l(3) =   1
                l(4) =   1
                l(5) =   2
     Q(r) pseudized with  8 coefficients,  rinner =    1.250   1.250   1.250
                                                       1.250   1.250

     Mode symmetry, D_3h (-62m) point group:


     Atomic displacements:
     There are   4 irreducible representations

     Representation     1      1 modes -A'_1  To be done

     Representation     2      2 modes -E'  To be done

     Representation     3      1 modes -A''2  To be done

     Representation     4      2 modes -E''  To be done



     Alpha used in Ewald sum =   2.8000
     PHONON       :  7m58.76s CPU     8m57.14s WALL



     Representation #  1 mode #   1

     Self-consistent Calculation

      iter #   1 total cpu time :   538.1 secs   av.it.:   5.7
      thresh= 1.000E-02 alpha_mix =  0.700 |ddv_scf|^2 =  9.741E-04

      iter #   2 total cpu time :   538.7 secs   av.it.:   7.0
      thresh= 3.121E-03 alpha_mix =  0.700 |ddv_scf|^2 =  2.613E-02

      iter #   3 total cpu time :   539.1 secs   av.it.:   5.9
      thresh= 1.000E-02 alpha_mix =  0.700 |ddv_scf|^2 =  7.101E-07

      iter #   4 total cpu time :   539.6 secs   av.it.:   7.9
      thresh= 8.427E-05 alpha_mix =  0.700 |ddv_scf|^2 =  3.484E-09

      iter #   5 total cpu time :   540.4 secs   av.it.:   8.7
      thresh= 5.903E-06 alpha_mix =  0.700 |ddv_scf|^2 =  2.603E-10

      iter #   6 total cpu time :   541.5 secs   av.it.:   8.5
      thresh= 1.613E-06 alpha_mix =  0.700 |ddv_scf|^2 =  6.976E-12

      iter #   7 total cpu time :   542.3 secs   av.it.:   8.9
      thresh= 2.641E-07 alpha_mix =  0.700 |ddv_scf|^2 =  9.635E-13

      iter #   8 total cpu time :   543.0 secs   av.it.:   7.6
      thresh= 9.816E-08 alpha_mix =  0.700 |ddv_scf|^2 =  4.264E-16

     End of self-consistent calculation

     Convergence has been achieved 


     Representation #  2 modes #   2  3

     Self-consistent Calculation

      iter #   1 total cpu time :   544.6 secs   av.it.:   5.2
      thresh= 1.000E-02 alpha_mix =  0.700 |ddv_scf|^2 =  9.388E-07

      iter #   2 total cpu time :   548.9 secs   av.it.:   8.7
      thresh= 9.689E-05 alpha_mix =  0.700 |ddv_scf|^2 =  1.688E-08

      iter #   3 total cpu time :   551.6 secs   av.it.:   9.0
      thresh= 1.299E-05 alpha_mix =  0.700 |ddv_scf|^2 =  4.287E-10

      iter #   4 total cpu time :   554.1 secs   av.it.:   8.5
      thresh= 2.071E-06 alpha_mix =  0.700 |ddv_scf|^2 =  1.431E-12

      iter #   5 total cpu time :   556.5 secs   av.it.:   8.9
      thresh= 1.196E-07 alpha_mix =  0.700 |ddv_scf|^2 =  2.733E-15

      iter #   6 total cpu time :   559.6 secs   av.it.:   8.2
      thresh= 5.228E-09 alpha_mix =  0.700 |ddv_scf|^2 =  9.164E-17

     End of self-consistent calculation

     Convergence has been achieved 


     Representation #  3 mode #   4

     Self-consistent Calculation

      iter #   1 total cpu time :   562.5 secs   av.it.:   5.7
      thresh= 1.000E-02 alpha_mix =  0.700 |ddv_scf|^2 =  9.741E-04

      iter #   2 total cpu time :   564.6 secs   av.it.:   7.0
      thresh= 3.121E-03 alpha_mix =  0.700 |ddv_scf|^2 =  2.613E-02

      iter #   3 total cpu time :   566.0 secs   av.it.:   5.9
      thresh= 1.000E-02 alpha_mix =  0.700 |ddv_scf|^2 =  7.104E-07

      iter #   4 total cpu time :   567.7 secs   av.it.:   7.9
      thresh= 8.428E-05 alpha_mix =  0.700 |ddv_scf|^2 =  3.488E-09

      iter #   5 total cpu time :   569.4 secs   av.it.:   8.7
      thresh= 5.906E-06 alpha_mix =  0.700 |ddv_scf|^2 =  2.603E-10

      iter #   6 total cpu time :   570.2 secs   av.it.:   8.5
      thresh= 1.613E-06 alpha_mix =  0.700 |ddv_scf|^2 =  6.980E-12

      iter #   7 total cpu time :   570.9 secs   av.it.:   8.9
      thresh= 2.642E-07 alpha_mix =  0.700 |ddv_scf|^2 =  9.643E-13

      iter #   8 total cpu time :   571.7 secs   av.it.:   7.6
      thresh= 9.820E-08 alpha_mix =  0.700 |ddv_scf|^2 =  4.229E-16

     End of self-consistent calculation

     Convergence has been achieved 


     Representation #  4 modes #   5  6

     Self-consistent Calculation

      iter #   1 total cpu time :   573.5 secs   av.it.:   5.2
      thresh= 1.000E-02 alpha_mix =  0.700 |ddv_scf|^2 =  9.387E-07

      iter #   2 total cpu time :   575.9 secs   av.it.:   8.7
      thresh= 9.689E-05 alpha_mix =  0.700 |ddv_scf|^2 =  1.688E-08

      iter #   3 total cpu time :   579.0 secs   av.it.:   9.0
      thresh= 1.299E-05 alpha_mix =  0.700 |ddv_scf|^2 =  4.300E-10

      iter #   4 total cpu time :   581.1 secs   av.it.:   8.5
      thresh= 2.074E-06 alpha_mix =  0.700 |ddv_scf|^2 =  1.424E-12

      iter #   5 total cpu time :   592.9 secs   av.it.:   9.0
      thresh= 1.193E-07 alpha_mix =  0.700 |ddv_scf|^2 =  2.740E-15

      iter #   6 total cpu time :   597.4 secs   av.it.:   8.3
      thresh= 5.234E-09 alpha_mix =  0.700 |ddv_scf|^2 =  9.172E-17

     End of self-consistent calculation

     Convergence has been achieved 
 
     Number of q in the star =    1
     List of q in the star:
          1   0.000000000   0.000000000  -0.306661924

     Diagonalizing the dynamical matrix

     q = (    0.000000000   0.000000000  -0.306661924 ) 

 **************************************************************************
     freq (    1) =       1.127462 [THz] =      37.608099 [cm-1]
     freq (    2) =       1.127462 [THz] =      37.608099 [cm-1]
     freq (    3) =       1.159395 [THz] =      38.673267 [cm-1]
     freq (    4) =       1.159395 [THz] =      38.673267 [cm-1]
     freq (    5) =       2.972628 [THz] =      99.156210 [cm-1]
     freq (    6) =       2.973155 [THz] =      99.173777 [cm-1]
 **************************************************************************

     Mode symmetry, D_3h (-62m) point group:

     freq (  1 -  2) =         37.6  [cm-1]   --> E'                 
     freq (  3 -  4) =         38.7  [cm-1]   --> E''                
     freq (  5 -  5) =         99.2  [cm-1]   --> A'_1               
     freq (  6 -  6) =         99.2  [cm-1]   --> A''2               

     Calculation of q =    0.0000000   0.2886751   0.0000000
 
     Parallelization info
     --------------------
     sticks:   dense  smooth     PW     G-vecs:    dense   smooth      PW
     Min         133      68     20                 5835     2056     374
     Max         134      69     22                 5844     2068     381
     Sum        1069     547    169                46721    16503    3015
 


     bravais-lattice index     =            4
     lattice parameter (alat)  =       6.9939  a.u.
     unit-cell volume          =     483.0474 (a.u.)^3
     number of atoms/cell      =            2
     number of atomic types    =            1
     number of electrons       =        18.00
     number of Kohn-Sham states=           13
     kinetic-energy cutoff     =      40.0000  Ry
     charge density cutoff     =     320.0000  Ry
     Exchange-correlation      = SLA  PW   PBE  PBE ( 1  4  3  4 0 0)

     celldm(1)=   6.993850  celldm(2)=   0.000000  celldm(3)=   1.630460
     celldm(4)=   0.000000  celldm(5)=   0.000000  celldm(6)=   0.000000

     crystal axes: (cart. coord. in units of alat)
               a(1) = (   1.000000   0.000000   0.000000 )  
               a(2) = (  -0.500000   0.866025   0.000000 )  
               a(3) = (   0.000000   0.000000   1.630460 )  

     reciprocal axes: (cart. coord. in units 2 pi/alat)
               b(1) = (  1.000000  0.577350  0.000000 )  
               b(2) = (  0.000000  1.154701  0.000000 )  
               b(3) = (  0.000000  0.000000  0.613324 )  


     PseudoPot. # 1 for Na read from file:
     ./Na_pbe_v1.uspp.F.UPF
     MD5 check sum: 76a99c7e9422403d3e93cbc85ab7bccb
     Pseudo is Ultrasoft, Zval =  9.0
     Generated by new atomic code, or converted to UPF format
     Using radial grid of  819 points,  5 beta functions with: 
                l(1) =   0
                l(2) =   0
                l(3) =   1
                l(4) =   1
                l(5) =   2
     Q(r) pseudized with  8 coefficients,  rinner =    1.250   1.250   1.250
                                                       1.250   1.250

     atomic species   valence    mass     pseudopotential
        Na             9.00    22.99000     Na( 1.00)

     12 Sym. Ops. (no inversion) found



   Cartesian axes

     site n.     atom                  positions (alat units)
         1           Na  tau(   1) = (   0.0000000   0.0000000   0.0000000  )
         2           Na  tau(   2) = (   0.5000000   0.2886751   0.8152300  )

     number of k points=  3600  Marzari-Vanderbilt smearing, width (Ry)=  0.0200

     Number of k-points >= 100: set verbosity='high' to print them.

     Dense  grid:    46721 G-vectors     FFT dimensions: (  40,  40,  72)

     Smooth grid:    16503 G-vectors     FFT dimensions: (  30,  30,  45)

     Largest allocated arrays     est. size (Mb)     dimensions
        Kohn-Sham Wavefunctions         0.05 Mb     (     276,   13)
        NL pseudopotentials             0.11 Mb     (     276,   26)
        Each V/rho on FFT grid          0.22 Mb     (   14400)
        Each G-vector array             0.04 Mb     (    5844)
        G-vector shells                 0.01 Mb     (    1733)
     Largest temporary arrays     est. size (Mb)     dimensions
        Auxiliary wavefunctions         0.22 Mb     (     276,   52)
        Each subspace H/S matrix        0.01 Mb     (      26,   26)
        Each <psi_i|beta_j> matrix      0.01 Mb     (      26,   13)

     The potential is recalculated from file :
     ./na_hcp/_ph0/na_hcp.save/charge-density.dat

     Starting wfc are   10 atomic +    3 random wfc

     Band Structure Calculation
     Davidson diagonalization with overlap

     ethr =  5.56E-11,  avg # of iterations = 22.7

     total cpu time spent up to now is       35.2 secs

     End of band structure calculation

     Number of k-points >= 100: set verbosity='high' to print the bands.

     the Fermi energy is     1.7529 ev

     Writing output data file na_hcp.save

                                                                                

     bravais-lattice index     =            4
     lattice parameter (alat)  =       6.9939  a.u.
     unit-cell volume          =     483.0474 (a.u.)^3
     number of atoms/cell      =            2
     number of atomic types    =            1
     kinetic-energy cut-off    =      40.0000  Ry
     charge density cut-off    =     320.0000  Ry
     convergence threshold     =      1.0E-15
     beta                      =       0.7000
     number of iterations used =            4
     Exchange-correlation      = SLA  PW   PBE  PBE ( 1  4  3  4 0 0)


     celldm(1)=    6.99385  celldm(2)=    0.00000  celldm(3)=    1.63046
     celldm(4)=    0.00000  celldm(5)=    0.00000  celldm(6)=    0.00000

     crystal axes: (cart. coord. in units of alat)
               a(1) = (  1.0000  0.0000  0.0000 )  
               a(2) = ( -0.5000  0.8660  0.0000 )  
               a(3) = (  0.0000  0.0000  1.6305 )  

     reciprocal axes: (cart. coord. in units 2 pi/alat)
               b(1) = (  1.0000  0.5774  0.0000 )  
               b(2) = (  0.0000  1.1547  0.0000 )  
               b(3) = (  0.0000  0.0000  0.6133 )  


     Atoms inside the unit cell: 

     Cartesian axes

     site n.  atom      mass           positions (alat units)
        1     Na  22.9900   tau(    1) = (    0.00000    0.00000    0.00000  )
        2     Na  22.9900   tau(    2) = (    0.50000    0.28868    0.81523  )

     Computing dynamical matrix for 
                    q = (   0.0000000   0.2886751   0.0000000 )
 
      4 Sym.Ops. (no q -> -q+G )


     G cutoff =  396.4814  (   5844 G-vectors)     FFT grid: ( 40, 40, 72)
     G cutoff =  198.2407  (   2068 G-vectors)  smooth grid: ( 30, 30, 45)

     number of k points=  3600  Marzari-Vanderbilt smearing, width (Ry)=  0.0200

     PseudoPot. # 1 for Na read from file:
     ./Na_pbe_v1.uspp.F.UPF
     MD5 check sum: 76a99c7e9422403d3e93cbc85ab7bccb
     Pseudo is Ultrasoft, Zval =  9.0
     Generated by new atomic code, or converted to UPF format
     Using radial grid of  819 points,  5 beta functions with: 
                l(1) =   0
                l(2) =   0
                l(3) =   1
                l(4) =   1
                l(5) =   2
     Q(r) pseudized with  8 coefficients,  rinner =    1.250   1.250   1.250
                                                       1.250   1.250

     Mode symmetry, C_2v (mm2)  point group:


     Atomic displacements:
     There are   6 irreducible representations

     Representation     1      1 modes -A_1  D_1  S_1  To be done

     Representation     2      1 modes -A_1  D_1  S_1  To be done

     Representation     3      1 modes -B_1  D_3  S_3  To be done

     Representation     4      1 modes -B_1  D_3  S_3  To be done

     Representation     5      1 modes -B_2  D_4  S_4  To be done

     Representation     6      1 modes -B_2  D_4  S_4  To be done



     Alpha used in Ewald sum =   2.8000
     PHONON       :  9m17.71s CPU    10m24.26s WALL



     Representation #  1 mode #   1

     Self-consistent Calculation

      iter #   1 total cpu time :   626.3 secs   av.it.:   5.7
      thresh= 1.000E-02 alpha_mix =  0.700 |ddv_scf|^2 =  7.034E-04

      iter #   2 total cpu time :   629.9 secs   av.it.:   7.2
      thresh= 2.652E-03 alpha_mix =  0.700 |ddv_scf|^2 =  2.488E-02

      iter #   3 total cpu time :   634.2 secs   av.it.:   5.4
      thresh= 1.000E-02 alpha_mix =  0.700 |ddv_scf|^2 =  6.029E-07

      iter #   4 total cpu time :   641.0 secs   av.it.:   8.1
      thresh= 7.765E-05 alpha_mix =  0.700 |ddv_scf|^2 =  3.316E-08

      iter #   5 total cpu time :   644.7 secs   av.it.:   8.2
      thresh= 1.821E-05 alpha_mix =  0.700 |ddv_scf|^2 =  8.223E-10

      iter #   6 total cpu time :   649.1 secs   av.it.:   8.7
      thresh= 2.868E-06 alpha_mix =  0.700 |ddv_scf|^2 =  1.837E-10

      iter #   7 total cpu time :   652.8 secs   av.it.:   7.8
      thresh= 1.355E-06 alpha_mix =  0.700 |ddv_scf|^2 =  1.865E-09

      iter #   8 total cpu time :   665.7 secs   av.it.:   6.6
      thresh= 4.318E-06 alpha_mix =  0.700 |ddv_scf|^2 =  3.494E-12

      iter #   9 total cpu time :   669.8 secs   av.it.:   8.7
      thresh= 1.869E-07 alpha_mix =  0.700 |ddv_scf|^2 =  6.847E-13

      iter #  10 total cpu time :   673.7 secs   av.it.:   7.6
      thresh= 8.275E-08 alpha_mix =  0.700 |ddv_scf|^2 =  2.297E-12

      iter #  11 total cpu time :   677.1 secs   av.it.:   6.9
      thresh= 1.516E-07 alpha_mix =  0.700 |ddv_scf|^2 =  1.994E-15

      iter #  12 total cpu time :   680.5 secs   av.it.:   8.8
      thresh= 4.465E-09 alpha_mix =  0.700 |ddv_scf|^2 =  1.216E-16

     End of self-consistent calculation

     Convergence has been achieved 


     Representation #  2 mode #   2

     Self-consistent Calculation

      iter #   1 total cpu time :   684.8 secs   av.it.:   5.7
      thresh= 1.000E-02 alpha_mix =  0.700 |ddv_scf|^2 =  7.034E-04

      iter #   2 total cpu time :   688.6 secs   av.it.:   7.2
      thresh= 2.652E-03 alpha_mix =  0.700 |ddv_scf|^2 =  2.488E-02

      iter #   3 total cpu time :   692.6 secs   av.it.:   5.4
      thresh= 1.000E-02 alpha_mix =  0.700 |ddv_scf|^2 =  6.030E-07

      iter #   4 total cpu time :   695.9 secs   av.it.:   8.1
      thresh= 7.765E-05 alpha_mix =  0.700 |ddv_scf|^2 =  3.319E-08

      iter #   5 total cpu time :   700.2 secs   av.it.:   8.2
      thresh= 1.822E-05 alpha_mix =  0.700 |ddv_scf|^2 =  8.244E-10

      iter #   6 total cpu time :   705.5 secs   av.it.:   8.7
      thresh= 2.871E-06 alpha_mix =  0.700 |ddv_scf|^2 =  1.612E-10

      iter #   7 total cpu time :   710.4 secs   av.it.:   7.9
      thresh= 1.270E-06 alpha_mix =  0.700 |ddv_scf|^2 =  1.847E-09

      iter #   8 total cpu time :   714.1 secs   av.it.:   6.5
      thresh= 4.297E-06 alpha_mix =  0.700 |ddv_scf|^2 =  3.689E-12

      iter #   9 total cpu time :   719.2 secs   av.it.:   8.6
      thresh= 1.921E-07 alpha_mix =  0.700 |ddv_scf|^2 =  6.830E-13

      iter #  10 total cpu time :   722.7 secs   av.it.:   7.6
      thresh= 8.264E-08 alpha_mix =  0.700 |ddv_scf|^2 =  2.308E-12

      iter #  11 total cpu time :   728.2 secs   av.it.:   6.9
      thresh= 1.519E-07 alpha_mix =  0.700 |ddv_scf|^2 =  1.991E-15

      iter #  12 total cpu time :   734.2 secs   av.it.:   8.8
      thresh= 4.462E-09 alpha_mix =  0.700 |ddv_scf|^2 =  1.215E-16

     End of self-consistent calculation

     Convergence has been achieved 


     Representation #  3 mode #   3

     Self-consistent Calculation

      iter #   1 total cpu time :   737.5 secs   av.it.:   5.3
      thresh= 1.000E-02 alpha_mix =  0.700 |ddv_scf|^2 =  4.074E-06

      iter #   2 total cpu time :   741.3 secs   av.it.:   8.3
      thresh= 2.019E-04 alpha_mix =  0.700 |ddv_scf|^2 =  6.525E-08

      iter #   3 total cpu time :   744.8 secs   av.it.:   8.5
      thresh= 2.554E-05 alpha_mix =  0.700 |ddv_scf|^2 =  2.920E-09

      iter #   4 total cpu time :   748.3 secs   av.it.:   8.1
      thresh= 5.404E-06 alpha_mix =  0.700 |ddv_scf|^2 =  1.750E-11

      iter #   5 total cpu time :   752.5 secs   av.it.:   8.1
      thresh= 4.183E-07 alpha_mix =  0.700 |ddv_scf|^2 =  1.298E-13

      iter #   6 total cpu time :   755.8 secs   av.it.:   8.5
      thresh= 3.603E-08 alpha_mix =  0.700 |ddv_scf|^2 =  4.556E-16

     End of self-consistent calculation

     Convergence has been achieved 


     Representation #  4 mode #   4

     Self-consistent Calculation

      iter #   1 total cpu time :   762.6 secs   av.it.:   5.3
      thresh= 1.000E-02 alpha_mix =  0.700 |ddv_scf|^2 =  4.074E-06

      iter #   2 total cpu time :   766.0 secs   av.it.:   8.3
      thresh= 2.018E-04 alpha_mix =  0.700 |ddv_scf|^2 =  6.529E-08

      iter #   3 total cpu time :   769.8 secs   av.it.:   8.5
      thresh= 2.555E-05 alpha_mix =  0.700 |ddv_scf|^2 =  2.929E-09

      iter #   4 total cpu time :   774.6 secs   av.it.:   8.1
      thresh= 5.412E-06 alpha_mix =  0.700 |ddv_scf|^2 =  1.746E-11

      iter #   5 total cpu time :   779.9 secs   av.it.:   8.1
      thresh= 4.178E-07 alpha_mix =  0.700 |ddv_scf|^2 =  1.294E-13

      iter #   6 total cpu time :   784.5 secs   av.it.:   8.5
      thresh= 3.597E-08 alpha_mix =  0.700 |ddv_scf|^2 =  4.558E-16

     End of self-consistent calculation

     Convergence has been achieved 


     Representation #  5 mode #   5

     Self-consistent Calculation

      iter #   1 total cpu time :   790.7 secs   av.it.:   5.5
      thresh= 1.000E-02 alpha_mix =  0.700 |ddv_scf|^2 =  1.125E-05

      iter #   2 total cpu time :   795.3 secs   av.it.:   8.4
      thresh= 3.354E-04 alpha_mix =  0.700 |ddv_scf|^2 =  2.369E-06

      iter #   3 total cpu time :   800.9 secs   av.it.:   7.6
      thresh= 1.539E-04 alpha_mix =  0.700 |ddv_scf|^2 =  1.373E-08

      iter #   4 total cpu time :   805.2 secs   av.it.:   8.6
      thresh= 1.172E-05 alpha_mix =  0.700 |ddv_scf|^2 =  4.655E-10

      iter #   5 total cpu time :   809.2 secs   av.it.:   8.1
      thresh= 2.158E-06 alpha_mix =  0.700 |ddv_scf|^2 =  2.722E-12

      iter #   6 total cpu time :   812.8 secs   av.it.:   8.5
      thresh= 1.650E-07 alpha_mix =  0.700 |ddv_scf|^2 =  1.419E-14

      iter #   7 total cpu time :   816.1 secs   av.it.:   8.2
      thresh= 1.191E-08 alpha_mix =  0.700 |ddv_scf|^2 =  6.577E-16

     End of self-consistent calculation

     Convergence has been achieved 


     Representation #  6 mode #   6

     Self-consistent Calculation

      iter #   1 total cpu time :   820.0 secs   av.it.:   5.5
      thresh= 1.000E-02 alpha_mix =  0.700 |ddv_scf|^2 =  1.125E-05

      iter #   2 total cpu time :   824.6 secs   av.it.:   8.4
      thresh= 3.354E-04 alpha_mix =  0.700 |ddv_scf|^2 =  2.369E-06

      iter #   3 total cpu time :   828.1 secs   av.it.:   7.6
      thresh= 1.539E-04 alpha_mix =  0.700 |ddv_scf|^2 =  1.373E-08

      iter #   4 total cpu time :   832.9 secs   av.it.:   8.6
      thresh= 1.172E-05 alpha_mix =  0.700 |ddv_scf|^2 =  4.656E-10

      iter #   5 total cpu time :   836.7 secs   av.it.:   8.1
      thresh= 2.158E-06 alpha_mix =  0.700 |ddv_scf|^2 =  2.722E-12

      iter #   6 total cpu time :   856.5 secs   av.it.:   8.5
      thresh= 1.650E-07 alpha_mix =  0.700 |ddv_scf|^2 =  1.419E-14

      iter #   7 total cpu time :   860.7 secs   av.it.:   8.2
      thresh= 1.191E-08 alpha_mix =  0.700 |ddv_scf|^2 =  6.576E-16

     End of self-consistent calculation

     Convergence has been achieved 
 
     Number of q in the star =    3
     List of q in the star:
          1   0.000000000   0.288675135   0.000000000
          2   0.250000000  -0.144337567   0.000000000
          3  -0.250000000  -0.144337567   0.000000000
     In addition there is the -q list: 
          1   0.000000000  -0.288675135   0.000000000
          2  -0.250000000   0.144337567   0.000000000
          3   0.250000000   0.144337567   0.000000000

     Diagonalizing the dynamical matrix

     q = (    0.000000000   0.288675135   0.000000000 ) 

 **************************************************************************
     freq (    1) =       1.162936 [THz] =      38.791382 [cm-1]
     freq (    2) =       1.451174 [THz] =      48.405955 [cm-1]
     freq (    3) =       2.436112 [THz] =      81.259950 [cm-1]
     freq (    4) =       2.600036 [THz] =      86.727863 [cm-1]
     freq (    5) =       3.176713 [THz] =     105.963745 [cm-1]
     freq (    6) =       3.802805 [THz] =     126.847922 [cm-1]
 **************************************************************************

     Mode symmetry, C_2v (mm2)  point group:

     freq (  1 -  1) =         38.8  [cm-1]   --> B_1  D_3  S_3      
     freq (  2 -  2) =         48.4  [cm-1]   --> B_2  D_4  S_4      
     freq (  3 -  3) =         81.3  [cm-1]   --> B_1  D_3  S_3      
     freq (  4 -  4) =         86.7  [cm-1]   --> A_1  D_1  S_1      
     freq (  5 -  5) =        106.0  [cm-1]   --> A_1  D_1  S_1      
     freq (  6 -  6) =        126.8  [cm-1]   --> B_2  D_4  S_4      

     Calculation of q =    0.0000000   0.2886751   0.1533310
 
     Parallelization info
     --------------------
     sticks:   dense  smooth     PW     G-vecs:    dense   smooth      PW
     Min         133      68     21                 5835     2056     377
     Max         134      69     22                 5844     2068     383
     Sum        1069     547    169                46721    16503    3039
 


     bravais-lattice index     =            4
     lattice parameter (alat)  =       6.9939  a.u.
     unit-cell volume          =     483.0474 (a.u.)^3
     number of atoms/cell      =            2
     number of atomic types    =            1
     number of electrons       =        18.00
     number of Kohn-Sham states=           13
     kinetic-energy cutoff     =      40.0000  Ry
     charge density cutoff     =     320.0000  Ry
     Exchange-correlation      = SLA  PW   PBE  PBE ( 1  4  3  4 0 0)

     celldm(1)=   6.993850  celldm(2)=   0.000000  celldm(3)=   1.630460
     celldm(4)=   0.000000  celldm(5)=   0.000000  celldm(6)=   0.000000

     crystal axes: (cart. coord. in units of alat)
               a(1) = (   1.000000   0.000000   0.000000 )  
               a(2) = (  -0.500000   0.866025   0.000000 )  
               a(3) = (   0.000000   0.000000   1.630460 )  

     reciprocal axes: (cart. coord. in units 2 pi/alat)
               b(1) = (  1.000000  0.577350  0.000000 )  
               b(2) = (  0.000000  1.154701  0.000000 )  
               b(3) = (  0.000000  0.000000  0.613324 )  


     PseudoPot. # 1 for Na read from file:
     ./Na_pbe_v1.uspp.F.UPF
     MD5 check sum: 76a99c7e9422403d3e93cbc85ab7bccb
     Pseudo is Ultrasoft, Zval =  9.0
     Generated by new atomic code, or converted to UPF format
     Using radial grid of  819 points,  5 beta functions with: 
                l(1) =   0
                l(2) =   0
                l(3) =   1
                l(4) =   1
                l(5) =   2
     Q(r) pseudized with  8 coefficients,  rinner =    1.250   1.250   1.250
                                                       1.250   1.250

     atomic species   valence    mass     pseudopotential
        Na             9.00    22.99000     Na( 1.00)

     12 Sym. Ops. (no inversion) found



   Cartesian axes

     site n.     atom                  positions (alat units)
         1           Na  tau(   1) = (   0.0000000   0.0000000   0.0000000  )
         2           Na  tau(   2) = (   0.5000000   0.2886751   0.8152300  )

     number of k points=  7200  Marzari-Vanderbilt smearing, width (Ry)=  0.0200

     Number of k-points >= 100: set verbosity='high' to print them.

     Dense  grid:    46721 G-vectors     FFT dimensions: (  40,  40,  72)

     Smooth grid:    16503 G-vectors     FFT dimensions: (  30,  30,  45)

     Largest allocated arrays     est. size (Mb)     dimensions
        Kohn-Sham Wavefunctions         0.05 Mb     (     272,   13)
        NL pseudopotentials             0.11 Mb     (     272,   26)
        Each V/rho on FFT grid          0.22 Mb     (   14400)
        Each G-vector array             0.04 Mb     (    5844)
        G-vector shells                 0.01 Mb     (    1796)
     Largest temporary arrays     est. size (Mb)     dimensions
        Auxiliary wavefunctions         0.22 Mb     (     272,   52)
        Each subspace H/S matrix        0.01 Mb     (      26,   26)
        Each <psi_i|beta_j> matrix      0.01 Mb     (      26,   13)

     The potential is recalculated from file :
     ./na_hcp/_ph0/na_hcp.save/charge-density.dat

     Starting wfc are   10 atomic +    3 random wfc

     Band Structure Calculation
     Davidson diagonalization with overlap

     ethr =  5.56E-11,  avg # of iterations = 22.7

     total cpu time spent up to now is       74.5 secs

     End of band structure calculation

     Number of k-points >= 100: set verbosity='high' to print the bands.

     the Fermi energy is     1.7529 ev

     Writing output data file na_hcp.save

                                                                                

     bravais-lattice index     =            4
     lattice parameter (alat)  =       6.9939  a.u.
     unit-cell volume          =     483.0474 (a.u.)^3
     number of atoms/cell      =            2
     number of atomic types    =            1
     kinetic-energy cut-off    =      40.0000  Ry
     charge density cut-off    =     320.0000  Ry
     convergence threshold     =      1.0E-15
     beta                      =       0.7000
     number of iterations used =            4
     Exchange-correlation      = SLA  PW   PBE  PBE ( 1  4  3  4 0 0)


     celldm(1)=    6.99385  celldm(2)=    0.00000  celldm(3)=    1.63046
     celldm(4)=    0.00000  celldm(5)=    0.00000  celldm(6)=    0.00000

     crystal axes: (cart. coord. in units of alat)
               a(1) = (  1.0000  0.0000  0.0000 )  
               a(2) = ( -0.5000  0.8660  0.0000 )  
               a(3) = (  0.0000  0.0000  1.6305 )  

     reciprocal axes: (cart. coord. in units 2 pi/alat)
               b(1) = (  1.0000  0.5774  0.0000 )  
               b(2) = (  0.0000  1.1547  0.0000 )  
               b(3) = (  0.0000  0.0000  0.6133 )  


     Atoms inside the unit cell: 

     Cartesian axes

     site n.  atom      mass           positions (alat units)
        1     Na  22.9900   tau(    1) = (    0.00000    0.00000    0.00000  )
        2     Na  22.9900   tau(    2) = (    0.50000    0.28868    0.81523  )

     Computing dynamical matrix for 
                    q = (   0.0000000   0.2886751   0.1533310 )
 
      2 Sym.Ops. (no q -> -q+G )


     G cutoff =  396.4814  (   5844 G-vectors)     FFT grid: ( 40, 40, 72)
     G cutoff =  198.2407  (   2064 G-vectors)  smooth grid: ( 30, 30, 45)

     number of k points=  7200  Marzari-Vanderbilt smearing, width (Ry)=  0.0200

     PseudoPot. # 1 for Na read from file:
     ./Na_pbe_v1.uspp.F.UPF
     MD5 check sum: 76a99c7e9422403d3e93cbc85ab7bccb
     Pseudo is Ultrasoft, Zval =  9.0
     Generated by new atomic code, or converted to UPF format
     Using radial grid of  819 points,  5 beta functions with: 
                l(1) =   0
                l(2) =   0
                l(3) =   1
                l(4) =   1
                l(5) =   2
     Q(r) pseudized with  8 coefficients,  rinner =    1.250   1.250   1.250
                                                       1.250   1.250

     Mode symmetry, C_s (m)     point group:


     Atomic displacements:
     There are   6 irreducible representations

     Representation     1      1 modes -A'  To be done

     Representation     2      1 modes -A'  To be done

     Representation     3      1 modes -A'  To be done

     Representation     4      1 modes -A'  To be done

     Representation     5      1 modes -A''  To be done

     Representation     6      1 modes -A''  To be done



     Alpha used in Ewald sum =   2.8000
     PHONON       : 13m43.85s CPU    15m19.07s WALL



     Representation #  1 mode #   1

     Self-consistent Calculation

      iter #   1 total cpu time :   922.1 secs   av.it.:   5.7
      thresh= 1.000E-02 alpha_mix =  0.700 |ddv_scf|^2 =  2.756E-04

      iter #   2 total cpu time :   932.8 secs   av.it.:   7.5
      thresh= 1.660E-03 alpha_mix =  0.700 |ddv_scf|^2 =  5.403E-03

      iter #   3 total cpu time :   946.8 secs   av.it.:   5.4
      thresh= 7.351E-03 alpha_mix =  0.700 |ddv_scf|^2 =  2.476E-06

      iter #   4 total cpu time :   954.6 secs   av.it.:   7.7
      thresh= 1.574E-04 alpha_mix =  0.700 |ddv_scf|^2 =  3.483E-07

      iter #   5 total cpu time :   963.5 secs   av.it.:   7.7
      thresh= 5.902E-05 alpha_mix =  0.700 |ddv_scf|^2 =  1.567E-09

      iter #   6 total cpu time :   973.9 secs   av.it.:   8.7
      thresh= 3.958E-06 alpha_mix =  0.700 |ddv_scf|^2 =  7.823E-11

      iter #   7 total cpu time :   983.8 secs   av.it.:   8.6
      thresh= 8.845E-07 alpha_mix =  0.700 |ddv_scf|^2 =  9.959E-11

      iter #   8 total cpu time :   990.9 secs   av.it.:   7.0
      thresh= 9.980E-07 alpha_mix =  0.700 |ddv_scf|^2 =  4.097E-11

      iter #   9 total cpu time :   999.1 secs   av.it.:   7.6
      thresh= 6.401E-07 alpha_mix =  0.700 |ddv_scf|^2 =  8.832E-13

      iter #  10 total cpu time :  1008.2 secs   av.it.:   7.8
      thresh= 9.398E-08 alpha_mix =  0.700 |ddv_scf|^2 =  8.883E-13

      iter #  11 total cpu time :  1019.4 secs   av.it.:   7.5
      thresh= 9.425E-08 alpha_mix =  0.700 |ddv_scf|^2 =  7.813E-15

      iter #  12 total cpu time :  1026.6 secs   av.it.:   8.3
      thresh= 8.839E-09 alpha_mix =  0.700 |ddv_scf|^2 =  2.467E-15

      iter #  13 total cpu time :  1042.1 secs   av.it.:   8.3
      thresh= 4.966E-09 alpha_mix =  0.700 |ddv_scf|^2 =  8.917E-16

     End of self-consistent calculation

     Convergence has been achieved 


     Representation #  2 mode #   2

     Self-consistent Calculation

      iter #   1 total cpu time :  1053.6 secs   av.it.:   5.7
      thresh= 1.000E-02 alpha_mix =  0.700 |ddv_scf|^2 =  4.722E-05

      iter #   2 total cpu time :  1061.8 secs   av.it.:   7.8
      thresh= 6.872E-04 alpha_mix =  0.700 |ddv_scf|^2 =  5.646E-04
Application 30363954 exit codes: 1
Application 30363954 resources: utime ~8051s, stime ~97s, Rss ~42492, inblocks ~40718071, outblocks ~15901495

     Program PHONON v.5.4.0 starts on 26Mar2018 at 12:31: 0 

     This program is part of the open-source Quantum ESPRESSO suite
     for quantum simulation of materials; please cite
         "P. Giannozzi et al., J. Phys.:Condens. Matter 21 395502 (2009);
          URL http://www.quantum-espresso.org", 
     in publications or presentations arising from this work. More details at
     http://www.quantum-espresso.org/quote

     Parallel version (MPI & OpenMP), running on     192 processor cores
     Number of MPI processes:               192
     Threads/MPI process:                     1
     K-points division:     npool     =      24
     R & G space division:  proc/nbgrp/npool/nimage =       8

     Reading data from directory:
     ./na_hcp/na_hcp.save

   Info: using nr1, nr2, nr3 values from input

   Info: using nr1, nr2, nr3 values from input

     IMPORTANT: XC functional enforced from input :
     Exchange-correlation      = SLA  PW   PBE  PBE ( 1  4  3  4 0 0)
     Any further DFT definition will be discarded
     Please, verify this is what you really want

 
     Parallelization info
     --------------------
     sticks:   dense  smooth     PW     G-vecs:    dense   smooth      PW
     Min         133      68     20                 5835     2056     346
     Max         134      69     21                 5844     2068     351
     Sum        1069     547    163                46721    16503    2779
 


     Dynamical matrices for ( 4, 4, 4)  uniform grid of q-points
     (  12q-points):
       N         xq(1)         xq(2)         xq(3) 
       1   0.000000000   0.000000000   0.000000000
       2   0.000000000   0.000000000   0.153330962
       3   0.000000000   0.000000000  -0.306661924
       4   0.000000000   0.288675135   0.000000000
       5   0.000000000   0.288675135   0.153330962
       6   0.000000000   0.288675135  -0.306661924
       7   0.000000000  -0.577350269   0.000000000
       8   0.000000000  -0.577350269   0.153330962
       9   0.000000000  -0.577350269  -0.306661924
      10   0.250000000   0.433012702   0.000000000
      11   0.250000000   0.433012702   0.153330962
      12   0.250000000   0.433012702  -0.306661924

     Calculation of q =    0.0000000   0.2886751   0.1533310
 
     Parallelization info
     --------------------
     sticks:   dense  smooth     PW     G-vecs:    dense   smooth      PW
     Min         133      68     21                 5835     2056     377
     Max         134      69     22                 5844     2068     383
     Sum        1069     547    169                46721    16503    3039
 


     bravais-lattice index     =            4
     lattice parameter (alat)  =       6.9939  a.u.
     unit-cell volume          =     483.0474 (a.u.)^3
     number of atoms/cell      =            2
     number of atomic types    =            1
     number of electrons       =        18.00
     number of Kohn-Sham states=           13
     kinetic-energy cutoff     =      40.0000  Ry
     charge density cutoff     =     320.0000  Ry
     Exchange-correlation      = SLA  PW   PBE  PBE ( 1  4  3  4 0 0)

     celldm(1)=   6.993850  celldm(2)=   0.000000  celldm(3)=   1.630460
     celldm(4)=   0.000000  celldm(5)=   0.000000  celldm(6)=   0.000000

     crystal axes: (cart. coord. in units of alat)
               a(1) = (   1.000000   0.000000   0.000000 )  
               a(2) = (  -0.500000   0.866025   0.000000 )  
               a(3) = (   0.000000   0.000000   1.630460 )  

     reciprocal axes: (cart. coord. in units 2 pi/alat)
               b(1) = (  1.000000  0.577350  0.000000 )  
               b(2) = (  0.000000  1.154701  0.000000 )  
               b(3) = (  0.000000  0.000000  0.613324 )  


     PseudoPot. # 1 for Na read from file:
     ./Na_pbe_v1.uspp.F.UPF
     MD5 check sum: 76a99c7e9422403d3e93cbc85ab7bccb
     Pseudo is Ultrasoft, Zval =  9.0
     Generated by new atomic code, or converted to UPF format
     Using radial grid of  819 points,  5 beta functions with: 
                l(1) =   0
                l(2) =   0
                l(3) =   1
                l(4) =   1
                l(5) =   2
     Q(r) pseudized with  8 coefficients,  rinner =    1.250   1.250   1.250
                                                       1.250   1.250

     atomic species   valence    mass     pseudopotential
        Na             9.00    22.99000     Na( 1.00)

     12 Sym. Ops. (no inversion) found



   Cartesian axes

     site n.     atom                  positions (alat units)
         1           Na  tau(   1) = (   0.0000000   0.0000000   0.0000000  )
         2           Na  tau(   2) = (   0.5000000   0.2886751   0.8152300  )

     number of k points=  7200  Marzari-Vanderbilt smearing, width (Ry)=  0.0200

     Number of k-points >= 100: set verbosity='high' to print them.

     Dense  grid:    46721 G-vectors     FFT dimensions: (  40,  40,  72)

     Smooth grid:    16503 G-vectors     FFT dimensions: (  30,  30,  45)

     Largest allocated arrays     est. size (Mb)     dimensions
        Kohn-Sham Wavefunctions         0.05 Mb     (     272,   13)
        NL pseudopotentials             0.11 Mb     (     272,   26)
        Each V/rho on FFT grid          0.22 Mb     (   14400)
        Each G-vector array             0.04 Mb     (    5844)
        G-vector shells                 0.01 Mb     (    1796)
     Largest temporary arrays     est. size (Mb)     dimensions
        Auxiliary wavefunctions         0.22 Mb     (     272,   52)
        Each subspace H/S matrix        0.01 Mb     (      26,   26)
        Each <psi_i|beta_j> matrix      0.01 Mb     (      26,   13)

     The potential is recalculated from file :
     ./na_hcp/_ph0/na_hcp.save/charge-density.dat

     Starting wfc are   10 atomic +    3 random wfc

     Band Structure Calculation
     Davidson diagonalization with overlap

     ethr =  5.56E-11,  avg # of iterations = 22.7

     total cpu time spent up to now is      103.0 secs

     End of band structure calculation

     Number of k-points >= 100: set verbosity='high' to print the bands.

     the Fermi energy is     1.7529 ev

     Writing output data file na_hcp.save

                                                                                

     bravais-lattice index     =            4
     lattice parameter (alat)  =       6.9939  a.u.
     unit-cell volume          =     483.0474 (a.u.)^3
     number of atoms/cell      =            2
     number of atomic types    =            1
     kinetic-energy cut-off    =      40.0000  Ry
     charge density cut-off    =     320.0000  Ry
     convergence threshold     =      1.0E-15
     beta                      =       0.7000
     number of iterations used =            4
     Exchange-correlation      = SLA  PW   PBE  PBE ( 1  4  3  4 0 0)


     celldm(1)=    6.99385  celldm(2)=    0.00000  celldm(3)=    1.63046
     celldm(4)=    0.00000  celldm(5)=    0.00000  celldm(6)=    0.00000

     crystal axes: (cart. coord. in units of alat)
               a(1) = (  1.0000  0.0000  0.0000 )  
               a(2) = ( -0.5000  0.8660  0.0000 )  
               a(3) = (  0.0000  0.0000  1.6305 )  

     reciprocal axes: (cart. coord. in units 2 pi/alat)
               b(1) = (  1.0000  0.5774  0.0000 )  
               b(2) = (  0.0000  1.1547  0.0000 )  
               b(3) = (  0.0000  0.0000  0.6133 )  


     Atoms inside the unit cell: 

     Cartesian axes

     site n.  atom      mass           positions (alat units)
        1     Na  22.9900   tau(    1) = (    0.00000    0.00000    0.00000  )
        2     Na  22.9900   tau(    2) = (    0.50000    0.28868    0.81523  )

     Computing dynamical matrix for 
                    q = (   0.0000000   0.2886751   0.1533310 )
 
      2 Sym.Ops. (no q -> -q+G )


     G cutoff =  396.4814  (   5844 G-vectors)     FFT grid: ( 40, 40, 72)
     G cutoff =  198.2407  (   2064 G-vectors)  smooth grid: ( 30, 30, 45)

     number of k points=  7200  Marzari-Vanderbilt smearing, width (Ry)=  0.0200

     PseudoPot. # 1 for Na read from file:
     ./Na_pbe_v1.uspp.F.UPF
     MD5 check sum: 76a99c7e9422403d3e93cbc85ab7bccb
     Pseudo is Ultrasoft, Zval =  9.0
     Generated by new atomic code, or converted to UPF format
     Using radial grid of  819 points,  5 beta functions with: 
                l(1) =   0
                l(2) =   0
                l(3) =   1
                l(4) =   1
                l(5) =   2
     Q(r) pseudized with  8 coefficients,  rinner =    1.250   1.250   1.250
                                                       1.250   1.250

     Mode symmetry, C_s (m)     point group:


     Atomic displacements:
     There are   6 irreducible representations

     Representation     1      1 modes -A'  To be done

     Representation     2      1 modes -A'  To be done

     Representation     3      1 modes -A'  To be done

     Representation     4      1 modes -A'  To be done

     Representation     5      1 modes -A''  To be done

     Representation     6      1 modes -A''  To be done



     Alpha used in Ewald sum =   2.8000
     PHONON       :  1m52.27s CPU     2m43.73s WALL



     Representation #  1 mode #   1

     Self-consistent Calculation

      iter #   1 total cpu time :   178.0 secs   av.it.:   5.7
      thresh= 1.000E-02 alpha_mix =  0.700 |ddv_scf|^2 =  2.756E-04

      iter #   2 total cpu time :   188.0 secs   av.it.:   7.5
      thresh= 1.660E-03 alpha_mix =  0.700 |ddv_scf|^2 =  5.403E-03

      iter #   3 total cpu time :   196.1 secs   av.it.:   5.4
      thresh= 7.351E-03 alpha_mix =  0.700 |ddv_scf|^2 =  2.476E-06

      iter #   4 total cpu time :   204.7 secs   av.it.:   7.7
      thresh= 1.574E-04 alpha_mix =  0.700 |ddv_scf|^2 =  3.483E-07

      iter #   5 total cpu time :   215.0 secs   av.it.:   7.7
      thresh= 5.902E-05 alpha_mix =  0.700 |ddv_scf|^2 =  1.567E-09

      iter #   6 total cpu time :   225.7 secs   av.it.:   8.7
      thresh= 3.958E-06 alpha_mix =  0.700 |ddv_scf|^2 =  7.756E-11

      iter #   7 total cpu time :   234.8 secs   av.it.:   8.6
      thresh= 8.807E-07 alpha_mix =  0.700 |ddv_scf|^2 =  7.958E-11

      iter #   8 total cpu time :   246.7 secs   av.it.:   7.2
      thresh= 8.921E-07 alpha_mix =  0.700 |ddv_scf|^2 =  4.610E-11

      iter #   9 total cpu time :   258.6 secs   av.it.:   7.6
      thresh= 6.790E-07 alpha_mix =  0.700 |ddv_scf|^2 =  7.252E-13

      iter #  10 total cpu time :   268.5 secs   av.it.:   8.0
      thresh= 8.516E-08 alpha_mix =  0.700 |ddv_scf|^2 =  8.993E-13

      iter #  11 total cpu time :   279.8 secs   av.it.:   7.4
      thresh= 9.483E-08 alpha_mix =  0.700 |ddv_scf|^2 =  8.053E-15

      iter #  12 total cpu time :   290.4 secs   av.it.:   8.4
      thresh= 8.974E-09 alpha_mix =  0.700 |ddv_scf|^2 =  2.979E-15

      iter #  13 total cpu time :   299.9 secs   av.it.:   8.1
      thresh= 5.458E-09 alpha_mix =  0.700 |ddv_scf|^2 =  9.384E-16

     End of self-consistent calculation

     Convergence has been achieved 


     Representation #  2 mode #   2

     Self-consistent Calculation

      iter #   1 total cpu time :   307.8 secs   av.it.:   5.7
      thresh= 1.000E-02 alpha_mix =  0.700 |ddv_scf|^2 =  4.722E-05

      iter #   2 total cpu time :   316.2 secs   av.it.:   7.8
      thresh= 6.872E-04 alpha_mix =  0.700 |ddv_scf|^2 =  5.646E-04

      iter #   3 total cpu time :   325.5 secs   av.it.:   5.8
      thresh= 2.376E-03 alpha_mix =  0.700 |ddv_scf|^2 =  1.823E-05

      iter #   4 total cpu time :   335.8 secs   av.it.:   7.1
      thresh= 4.270E-04 alpha_mix =  0.700 |ddv_scf|^2 =  8.611E-08

      iter #   5 total cpu time :   346.5 secs   av.it.:   8.5
      thresh= 2.935E-05 alpha_mix =  0.700 |ddv_scf|^2 =  9.857E-10

      iter #   6 total cpu time :   357.4 secs   av.it.:   8.8
      thresh= 3.140E-06 alpha_mix =  0.700 |ddv_scf|^2 =  8.189E-11

      iter #   7 total cpu time :   370.1 secs   av.it.:   8.7
      thresh= 9.049E-07 alpha_mix =  0.700 |ddv_scf|^2 =  5.896E-11

      iter #   8 total cpu time :   381.6 secs   av.it.:   7.7
      thresh= 7.679E-07 alpha_mix =  0.700 |ddv_scf|^2 =  1.855E-10

      iter #   9 total cpu time :   396.3 secs   av.it.:   6.9
      thresh= 1.362E-06 alpha_mix =  0.700 |ddv_scf|^2 =  4.931E-12

      iter #  10 total cpu time :   408.3 secs   av.it.:   7.6
      thresh= 2.221E-07 alpha_mix =  0.700 |ddv_scf|^2 =  3.394E-12

      iter #  11 total cpu time :   423.9 secs   av.it.:   7.6
      thresh= 1.842E-07 alpha_mix =  0.700 |ddv_scf|^2 =  2.023E-14

      iter #  12 total cpu time :   438.3 secs   av.it.:   8.0
      thresh= 1.422E-08 alpha_mix =  0.700 |ddv_scf|^2 =  3.432E-15

      iter #  13 total cpu time :   446.5 secs   av.it.:   8.6
      thresh= 5.858E-09 alpha_mix =  0.700 |ddv_scf|^2 =  7.764E-17

     End of self-consistent calculation

     Convergence has been achieved 


     Representation #  3 mode #   3

     Self-consistent Calculation

      iter #   1 total cpu time :   462.6 secs   av.it.:   5.8
      thresh= 1.000E-02 alpha_mix =  0.700 |ddv_scf|^2 =  3.157E-04

      iter #   2 total cpu time :   475.8 secs   av.it.:   7.5
      thresh= 1.777E-03 alpha_mix =  0.700 |ddv_scf|^2 =  6.273E-03

      iter #   3 total cpu time :   486.3 secs   av.it.:   5.4
      thresh= 7.920E-03 alpha_mix =  0.700 |ddv_scf|^2 =  8.096E-07

      iter #   4 total cpu time :   508.2 secs   av.it.:   7.9
      thresh= 8.998E-05 alpha_mix =  0.700 |ddv_scf|^2 =  3.647E-07

      iter #   5 total cpu time :   540.3 secs   av.it.:   7.6
      thresh= 6.039E-05 alpha_mix =  0.700 |ddv_scf|^2 =  1.932E-09

      iter #   6 total cpu time :   575.7 secs   av.it.:   8.7
      thresh= 4.395E-06 alpha_mix =  0.700 |ddv_scf|^2 =  9.395E-11

      iter #   7 total cpu time :   608.4 secs   av.it.:   8.5
      thresh= 9.693E-07 alpha_mix =  0.700 |ddv_scf|^2 =  2.375E-12

      iter #   8 total cpu time :   618.4 secs   av.it.:   9.1
      thresh= 1.541E-07 alpha_mix =  0.700 |ddv_scf|^2 =  2.469E-12

      iter #   9 total cpu time :   629.4 secs   av.it.:   7.6
      thresh= 1.571E-07 alpha_mix =  0.700 |ddv_scf|^2 =  6.404E-12

      iter #  10 total cpu time :   657.1 secs   av.it.:   7.2
      thresh= 2.531E-07 alpha_mix =  0.700 |ddv_scf|^2 =  5.696E-14

      iter #  11 total cpu time :   677.5 secs   av.it.:   7.8
      thresh= 2.387E-08 alpha_mix =  0.700 |ddv_scf|^2 =  8.190E-14

      iter #  12 total cpu time :   690.7 secs   av.it.:   7.4
[...]
                l(1) =   0
                l(2) =   0
                l(3) =   1
                l(4) =   1
                l(5) =   2
     Q(r) pseudized with  8 coefficients,  rinner =    1.250   1.250   1.250
                                                       1.250   1.250

     Mode symmetry, C_s (m)     point group:


     Atomic displacements:
     There are   6 irreducible representations

     Representation     1      1 modes -A'  To be done

     Representation     2      1 modes -A'  To be done

     Representation     3      1 modes -A'  To be done

     Representation     4      1 modes -A''  To be done

     Representation     5      1 modes -A''  To be done

     Representation     6      1 modes -A''  To be done



     Alpha used in Ewald sum =   2.8000
     PHONON       :  9m28.43s CPU    10m18.57s WALL



     Representation #  1 mode #   1

     Self-consistent Calculation

      iter #   1 total cpu time :   624.1 secs   av.it.:   5.7
      thresh= 1.000E-02 alpha_mix =  0.700 |ddv_scf|^2 =  1.999E-05

      iter #   2 total cpu time :   646.8 secs   av.it.:   8.4
      thresh= 4.471E-04 alpha_mix =  0.700 |ddv_scf|^2 =  1.230E-05

      iter #   3 total cpu time :   659.8 secs   av.it.:   7.7
      thresh= 3.508E-04 alpha_mix =  0.700 |ddv_scf|^2 =  4.108E-08

      iter #   4 total cpu time :   684.3 secs   av.it.:   8.8
      thresh= 2.027E-05 alpha_mix =  0.700 |ddv_scf|^2 =  1.560E-09

      iter #   5 total cpu time :   693.6 secs   av.it.:   9.0
      thresh= 3.950E-06 alpha_mix =  0.700 |ddv_scf|^2 =  7.600E-11

      iter #   6 total cpu time :   714.1 secs   av.it.:   9.0
      thresh= 8.718E-07 alpha_mix =  0.700 |ddv_scf|^2 =  5.510E-12

      iter #   7 total cpu time :   738.8 secs   av.it.:   8.8
      thresh= 2.347E-07 alpha_mix =  0.700 |ddv_scf|^2 =  3.936E-14

      iter #   8 total cpu time :   754.3 secs   av.it.:   8.8
      thresh= 1.984E-08 alpha_mix =  0.700 |ddv_scf|^2 =  1.018E-15

      iter #   9 total cpu time :   767.9 secs   av.it.:   8.5
      thresh= 3.191E-09 alpha_mix =  0.700 |ddv_scf|^2 =  1.071E-16

     End of self-consistent calculation

     Convergence has been achieved 


     Representation #  2 mode #   2

     Self-consistent Calculation

      iter #   1 total cpu time :   779.8 secs   av.it.:   5.6
      thresh= 1.000E-02 alpha_mix =  0.700 |ddv_scf|^2 =  1.080E-05

      iter #   2 total cpu time :   791.9 secs   av.it.:   8.6
      thresh= 3.286E-04 alpha_mix =  0.700 |ddv_scf|^2 =  5.265E-06

      iter #   3 total cpu time :   803.0 secs   av.it.:   7.8
      thresh= 2.294E-04 alpha_mix =  0.700 |ddv_scf|^2 =  6.480E-08

      iter #   4 total cpu time :   824.6 secs   av.it.:   8.6
      thresh= 2.546E-05 alpha_mix =  0.700 |ddv_scf|^2 =  1.337E-09

      iter #   5 total cpu time :   835.8 secs   av.it.:   8.7
      thresh= 3.657E-06 alpha_mix =  0.700 |ddv_scf|^2 =  1.121E-10

      iter #   6 total cpu time :   849.4 secs   av.it.:   8.7
      thresh= 1.059E-06 alpha_mix =  0.700 |ddv_scf|^2 =  3.427E-12

      iter #   7 total cpu time :   865.0 secs   av.it.:   9.1
      thresh= 1.851E-07 alpha_mix =  0.700 |ddv_scf|^2 =  7.051E-14

      iter #   8 total cpu time :   879.2 secs   av.it.:   8.9
      thresh= 2.655E-08 alpha_mix =  0.700 |ddv_scf|^2 =  4.267E-15

      iter #   9 total cpu time :   893.9 secs   av.it.:   8.9
      thresh= 6.532E-09 alpha_mix =  0.700 |ddv_scf|^2 =  1.673E-16

     End of self-consistent calculation

     Convergence has been achieved 


     Representation #  3 mode #   3

     Self-consistent Calculation

      iter #   1 total cpu time :   907.8 secs   av.it.:   5.7
      thresh= 1.000E-02 alpha_mix =  0.700 |ddv_scf|^2 =  7.777E-06

      iter #   2 total cpu time :   920.7 secs   av.it.:   8.6
      thresh= 2.789E-04 alpha_mix =  0.700 |ddv_scf|^2 =  1.358E-06

      iter #   3 total cpu time :   932.1 secs   av.it.:   7.9
      thresh= 1.165E-04 alpha_mix =  0.700 |ddv_scf|^2 =  1.889E-07

      iter #   4 total cpu time :   944.3 secs   av.it.:   8.0
      thresh= 4.347E-05 alpha_mix =  0.700 |ddv_scf|^2 =  2.625E-09

      iter #   5 total cpu time :   956.3 secs   av.it.:   8.7
      thresh= 5.124E-06 alpha_mix =  0.700 |ddv_scf|^2 =  4.624E-11

      iter #   6 total cpu time :   972.1 secs   av.it.:   8.7
      thresh= 6.800E-07 alpha_mix =  0.700 |ddv_scf|^2 =  1.966E-12

      iter #   7 total cpu time :   986.5 secs   av.it.:   9.2
      thresh= 1.402E-07 alpha_mix =  0.700 |ddv_scf|^2 =  9.130E-14

      iter #   8 total cpu time :   997.2 secs   av.it.:   9.2
      thresh= 3.022E-08 alpha_mix =  0.700 |ddv_scf|^2 =  9.181E-16

     End of self-consistent calculation

     Convergence has been achieved 


     Representation #  4 mode #   4

     Self-consistent Calculation

      iter #   1 total cpu time :  1008.8 secs   av.it.:   5.6
      thresh= 1.000E-02 alpha_mix =  0.700 |ddv_scf|^2 =  7.944E-06

      iter #   2 total cpu time :  1021.8 secs   av.it.:   8.7
      thresh= 2.818E-04 alpha_mix =  0.700 |ddv_scf|^2 =  1.518E-06

      iter #   3 total cpu time :  1035.5 secs   av.it.:   7.9
      thresh= 1.232E-04 alpha_mix =  0.700 |ddv_scf|^2 =  1.899E-07

      iter #   4 total cpu time :  1047.4 secs   av.it.:   8.0
      thresh= 4.358E-05 alpha_mix =  0.700 |ddv_scf|^2 =  2.538E-09

      iter #   5 total cpu time :  1058.7 secs   av.it.:   8.7
      thresh= 5.037E-06 alpha_mix =  0.700 |ddv_scf|^2 =  4.698E-11

      iter #   6 total cpu time :  1070.3 secs   av.it.:   8.7
      thresh= 6.854E-07 alpha_mix =  0.700 |ddv_scf|^2 =  2.139E-12

      iter #   7 total cpu time :  1081.9 secs   av.it.:   9.2
      thresh= 1.463E-07 alpha_mix =  0.700 |ddv_scf|^2 =  9.676E-14

      iter #   8 total cpu time :  1094.5 secs   av.it.:   9.2
      thresh= 3.111E-08 alpha_mix =  0.700 |ddv_scf|^2 =  9.410E-16

     End of self-consistent calculation

     Convergence has been achieved 


     Representation #  5 mode #   5

     Self-consistent Calculation

      iter #   1 total cpu time :  1106.0 secs   av.it.:   5.6
      thresh= 1.000E-02 alpha_mix =  0.700 |ddv_scf|^2 =  1.080E-05

      iter #   2 total cpu time :  1115.7 secs   av.it.:   8.6
      thresh= 3.286E-04 alpha_mix =  0.700 |ddv_scf|^2 =  5.265E-06

      iter #   3 total cpu time :  1127.4 secs   av.it.:   7.8
      thresh= 2.295E-04 alpha_mix =  0.700 |ddv_scf|^2 =  6.478E-08

      iter #   4 total cpu time :  1139.5 secs   av.it.:   8.6
      thresh= 2.545E-05 alpha_mix =  0.700 |ddv_scf|^2 =  1.339E-09

      iter #   5 total cpu time :  1150.7 secs   av.it.:   8.7
      thresh= 3.659E-06 alpha_mix =  0.700 |ddv_scf|^2 =  1.123E-10

      iter #   6 total cpu time :  1166.2 secs   av.it.:   8.7
      thresh= 1.060E-06 alpha_mix =  0.700 |ddv_scf|^2 =  3.430E-12

      iter #   7 total cpu time :  1179.0 secs   av.it.:   9.1
      thresh= 1.852E-07 alpha_mix =  0.700 |ddv_scf|^2 =  7.056E-14

      iter #   8 total cpu time :  1205.6 secs   av.it.:   8.9
      thresh= 2.656E-08 alpha_mix =  0.700 |ddv_scf|^2 =  4.268E-15
Application 30365104 exit codes: 1
Application 30365104 resources: utime ~8966s, stime ~95s, Rss ~46892, inblocks ~39541988, outblocks ~12732140

     Program PHONON v.5.4.0 starts on 26Mar2018 at 14:38: 7 

     This program is part of the open-source Quantum ESPRESSO suite
     for quantum simulation of materials; please cite
         "P. Giannozzi et al., J. Phys.:Condens. Matter 21 395502 (2009);
          URL http://www.quantum-espresso.org", 
     in publications or presentations arising from this work. More details at
     http://www.quantum-espresso.org/quote

     Parallel version (MPI & OpenMP), running on     192 processor cores
     Number of MPI processes:               192
     Threads/MPI process:                     1
     K-points division:     npool     =      24
     R & G space division:  proc/nbgrp/npool/nimage =       8

     Reading data from directory:
     ./na_hcp/_ph0/na_hcp.save

   Info: using nr1, nr2, nr3 values from input

   Info: using nr1, nr2, nr3 values from input

     IMPORTANT: XC functional enforced from input :
     Exchange-correlation      = SLA  PW   PBE  PBE ( 1  4  3  4 0 0)
     Any further DFT definition will be discarded
     Please, verify this is what you really want

 
     Parallelization info
     --------------------
     sticks:   dense  smooth     PW     G-vecs:    dense   smooth      PW
     Min         133      68     23                 5835     2054     417
     Max         134      69     24                 5844     2070     422
     Sum        1069     547    187                46721    16503    3357
 
        1 /  12 q-points for this run, from 12 to 12:
       N       xq(1)         xq(2)         xq(3) 
       1   0.000000000   0.000000000   0.000000000
       2   0.000000000   0.000000000   0.153330962
       3   0.000000000   0.000000000  -0.306661924
       4   0.000000000   0.288675135   0.000000000
       5   0.000000000   0.288675135   0.153330962
       6   0.000000000   0.288675135  -0.306661924
       7   0.000000000  -0.577350269   0.000000000
       8   0.000000000  -0.577350269   0.153330962
       9   0.000000000  -0.577350269  -0.306661924
      10   0.250000000   0.433012702   0.000000000
      11   0.250000000   0.433012702   0.153330962
      12   0.250000000   0.433012702  -0.306661924
 

     Calculation of q =    0.2500000   0.4330127  -0.3066619

     Bands found: reading from ./na_hcp/_ph0/

     Reading data from directory:
     ./na_hcp/_ph0/na_hcp.save

   Info: using nr1, nr2, nr3 values from input

   Info: using nr1, nr2, nr3 values from input

     IMPORTANT: XC functional enforced from input :
     Exchange-correlation      = SLA  PW   PBE  PBE ( 1  4  3  4 0 0)
     Any further DFT definition will be discarded
     Please, verify this is what you really want

 
     Parallelization info
     --------------------
     sticks:   dense  smooth     PW     G-vecs:    dense   smooth      PW
     Min         133      68     23                 5835     2054     417
     Max         134      69     24                 5844     2070     422
     Sum        1069     547    187                46721    16503    3357
 

     Restart in Phonon calculation

                                                                                

     bravais-lattice index     =            4
     lattice parameter (alat)  =       6.9939  a.u.
     unit-cell volume          =     483.0474 (a.u.)^3
     number of atoms/cell      =            2
     number of atomic types    =            1
     kinetic-energy cut-off    =      40.0000  Ry
     charge density cut-off    =     320.0000  Ry
     convergence threshold     =      1.0E-15
     beta                      =       0.7000
     number of iterations used =            4
     Exchange-correlation      = SLA  PW   PBE  PBE ( 1  4  3  4 0 0)


     celldm(1)=    6.99385  celldm(2)=    0.00000  celldm(3)=    1.63046
     celldm(4)=    0.00000  celldm(5)=    0.00000  celldm(6)=    0.00000

     crystal axes: (cart. coord. in units of alat)
               a(1) = (  1.0000  0.0000  0.0000 )  
               a(2) = ( -0.5000  0.8660  0.0000 )  
               a(3) = (  0.0000  0.0000  1.6305 )  

     reciprocal axes: (cart. coord. in units 2 pi/alat)
               b(1) = (  1.0000  0.5774  0.0000 )  
               b(2) = (  0.0000  1.1547  0.0000 )  
               b(3) = (  0.0000  0.0000  0.6133 )  


     Atoms inside the unit cell: 

     Cartesian axes

     site n.  atom      mass           positions (alat units)
        1     Na  22.9900   tau(    1) = (    0.00000    0.00000    0.00000  )
        2     Na  22.9900   tau(    2) = (    0.50000    0.28868    0.81523  )

     Computing dynamical matrix for 
                    q = (   0.2500000   0.4330127  -0.3066619 )
 
      2 Sym.Ops. (no q -> -q+G )


     G cutoff =  396.4814  (   5844 G-vectors)     FFT grid: ( 40, 40, 72)
     G cutoff =  198.2407  (   2064 G-vectors)  smooth grid: ( 30, 30, 45)

     number of k points=  6912  Marzari-Vanderbilt smearing, width (Ry)=  0.0200

     PseudoPot. # 1 for Na read from file:
     ./Na_pbe_v1.uspp.F.UPF
     MD5 check sum: 76a99c7e9422403d3e93cbc85ab7bccb
     Pseudo is Ultrasoft, Zval =  9.0
     Generated by new atomic code, or converted to UPF format
     Using radial grid of  819 points,  5 beta functions with: 
                l(1) =   0
                l(2) =   0
                l(3) =   1
                l(4) =   1
                l(5) =   2
     Q(r) pseudized with  8 coefficients,  rinner =    1.250   1.250   1.250
                                                       1.250   1.250

     Mode symmetry, C_s (m)     point group:


     Atomic displacements:
     There are   6 irreducible representations

     Representation     1      1 modes -A'  Done

     Representation     2      1 modes -A'  Done

     Representation     3      1 modes -A'  Done

     Representation     4      1 modes -A''  Done

     Representation     5      1 modes -A''  To be done

     Representation     6      1 modes -A''  To be done


     PHONON       :  1m 1.12s CPU     1m 5.87s WALL



     Representation #  5 mode #   5

     Self-consistent Calculation

      iter #   9 total cpu time :    70.4 secs   av.it.:   2.1
      thresh= 6.533E-09 alpha_mix =  0.700 |ddv_scf|^2 =  1.677E-16

     End of self-consistent calculation

     Convergence has been achieved 


     Representation #  6 mode #   6

     Self-consistent Calculation

      iter #   1 total cpu time :    82.3 secs   av.it.:   5.7
      thresh= 1.000E-02 alpha_mix =  0.700 |ddv_scf|^2 =  1.982E-05

      iter #   2 total cpu time :    99.5 secs   av.it.:   8.4
      thresh= 4.452E-04 alpha_mix =  0.700 |ddv_scf|^2 =  1.215E-05

      iter #   3 total cpu time :   123.5 secs   av.it.:   7.7
      thresh= 3.485E-04 alpha_mix =  0.700 |ddv_scf|^2 =  4.178E-08

      iter #   4 total cpu time :   143.1 secs   av.it.:   8.8
      thresh= 2.044E-05 alpha_mix =  0.700 |ddv_scf|^2 =  1.580E-09

      iter #   5 total cpu time :   175.8 secs   av.it.:   8.9
      thresh= 3.975E-06 alpha_mix =  0.700 |ddv_scf|^2 =  7.533E-11

      iter #   6 total cpu time :   210.6 secs   av.it.:   9.0
      thresh= 8.679E-07 alpha_mix =  0.700 |ddv_scf|^2 =  5.523E-12

      iter #   7 total cpu time :   241.2 secs   av.it.:   8.8
      thresh= 2.350E-07 alpha_mix =  0.700 |ddv_scf|^2 =  3.949E-14

      iter #   8 total cpu time :   256.7 secs   av.it.:   8.8
      thresh= 1.987E-08 alpha_mix =  0.700 |ddv_scf|^2 =  1.057E-15

      iter #   9 total cpu time :   272.6 secs   av.it.:   8.6
      thresh= 3.252E-09 alpha_mix =  0.700 |ddv_scf|^2 =  1.031E-16

     End of self-consistent calculation

     Convergence has been achieved 
 
     Number of q in the star =    6
     List of q in the star:
          1   0.250000000   0.433012702  -0.306661924
          2  -0.250000000   0.433012702  -0.306661924
          3   0.500000000  -0.000000000  -0.306661924
          4  -0.250000000  -0.433012702  -0.306661924
          5   0.250000000  -0.433012702  -0.306661924
          6  -0.500000000   0.000000000  -0.306661924

     Diagonalizing the dynamical matrix

     q = (    0.250000000   0.433012702  -0.306661924 ) 

 **************************************************************************
     freq (    1) =       2.070121 [THz] =      69.051804 [cm-1]
     freq (    2) =       2.077070 [THz] =      69.283602 [cm-1]
     freq (    3) =       3.107759 [THz] =     103.663678 [cm-1]
     freq (    4) =       3.114896 [THz] =     103.901733 [cm-1]
     freq (    5) =       3.852207 [THz] =     128.495805 [cm-1]
     freq (    6) =       3.859606 [THz] =     128.742591 [cm-1]
 **************************************************************************

     Mode symmetry, C_s (m)     point group:

     freq (  1 -  1) =         69.1  [cm-1]   --> A'                 
     freq (  2 -  2) =         69.3  [cm-1]   --> A''                
     freq (  3 -  3) =        103.7  [cm-1]   --> A'                 
     freq (  4 -  4) =        103.9  [cm-1]   --> A''                
     freq (  5 -  5) =        128.5  [cm-1]   --> A'                 
     freq (  6 -  6) =        128.7  [cm-1]   --> A''                
 
     PHONON       :  4m19.33s CPU     4m33.23s WALL

     INITIALIZATION: 
     phq_setup    :      0.07s CPU      0.14s WALL (       1 calls)
     phq_init     :      1.28s CPU      1.78s WALL (       1 calls)
 
     phq_init     :      1.28s CPU      1.78s WALL (       1 calls)
     init_vloc    :      0.02s CPU      0.02s WALL (       2 calls)
     init_us_1    :      0.08s CPU      0.07s WALL (       2 calls)
     newd         :      0.02s CPU      0.03s WALL (       2 calls)
 
     DYNAMICAL MATRIX:
     phqscf       :    198.18s CPU    206.97s WALL (       1 calls)
     dynmatrix    :      0.00s CPU      0.02s WALL (       1 calls)
 
     phqscf       :    198.18s CPU    206.97s WALL (       1 calls)
     solve_linter :    198.02s CPU    206.72s WALL (       2 calls)
     drhodv       :      0.16s CPU      0.16s WALL (       2 calls)
 
 
 
     phqscf       :    198.18s CPU    206.97s WALL (       1 calls)
     solve_linter :    198.02s CPU    206.72s WALL (       2 calls)
 
     solve_linter :    198.02s CPU    206.72s WALL (       2 calls)
     dvqpsi_us    :      0.34s CPU      0.34s WALL (     144 calls)
     ortho        :      0.79s CPU      0.85s WALL (    1440 calls)
     cgsolve      :     20.87s CPU     21.52s WALL (    1440 calls)
     incdrhoscf   :     27.27s CPU     27.50s WALL (    1440 calls)
     addusddens   :      0.13s CPU      0.14s WALL (      10 calls)
     vpsifft      :      1.65s CPU      1.82s WALL (    1296 calls)
     dv_of_drho   :      0.06s CPU      0.05s WALL (      10 calls)
     mix_pot      :      0.03s CPU      0.29s WALL (      10 calls)
     psymdvscf    :      0.15s CPU      0.16s WALL (      10 calls)
     newdq        :      0.12s CPU      0.12s WALL (      10 calls)
     adddvscf     :      0.10s CPU      0.12s WALL (    1296 calls)
     drhodvus     :      0.34s CPU      0.37s WALL (       2 calls)
 
     dvqpsi_us    :      0.34s CPU      0.34s WALL (     144 calls)
     dvqpsi_us_on :      0.10s CPU      0.09s WALL (     144 calls)
 
     cgsolve      :     20.87s CPU     21.52s WALL (    1440 calls)
     ch_psi       :     20.15s CPU     20.73s WALL (   18317 calls)
 
     ch_psi       :     20.15s CPU     20.73s WALL (   18317 calls)
     h_psiq       :     17.62s CPU     18.00s WALL (   18317 calls)
     last         :      2.43s CPU      2.62s WALL (   18317 calls)
 
     h_psiq       :     17.62s CPU     18.00s WALL (   18317 calls)
     firstfft     :      7.92s CPU      8.29s WALL (  113358 calls)
     secondfft    :      6.26s CPU      6.37s WALL (  113358 calls)
     add_vuspsi   :      0.77s CPU      0.74s WALL (   18317 calls)
 
     incdrhoscf   :     27.27s CPU     27.50s WALL (    1440 calls)
     addusdbec    :      0.13s CPU      0.13s WALL (    1440 calls)
 
     drhodvus     :      0.34s CPU      0.37s WALL (       2 calls)
 
      General routines
     calbec       :      3.28s CPU      3.46s WALL (   41242 calls)
     fft          :      0.12s CPU      0.10s WALL (     177 calls)
     ffts         :      0.02s CPU      0.02s WALL (     178 calls)
     fftw         :     41.11s CPU     41.99s WALL (  283470 calls)
     davcio       :      0.38s CPU      6.67s WALL (    7728 calls)
     write_rec    :      0.03s CPU      0.72s WALL (      12 calls)
 
 
     PHONON       :  4m19.33s CPU     4m33.23s WALL

 
   This run was terminated on:  14:42:41  26Mar2018            

=------------------------------------------------------------------------------=
   JOB DONE.
=------------------------------------------------------------------------------=
Application 30365407 resources: utime ~50425s, stime ~337s, Rss ~36372, inblocks ~139402738, outblocks ~39414761
