
     Program PWSCF v.6.1 (svn rev. 13369) starts on 26Mar2018 at 16:13:52 

     This program is part of the open-source Quantum ESPRESSO suite
     for quantum simulation of materials; please cite
         "P. Giannozzi et al., J. Phys.:Condens. Matter 21 395502 (2009);
          URL http://www.quantum-espresso.org", 
     in publications or presentations arising from this work. More details at
     http://www.quantum-espresso.org/quote

     Parallel version (MPI), running on     2 processors
     R & G space division:  proc/nbgrp/npool/nimage =       2
     Waiting for input...
     Reading input from standard input
Warning: card EOF ignored

     Current dimensions of program PWSCF are:
     Max number of different atomic species (ntypx) = 10
     Max number of k-points (npk) =  40000
     Max angular momentum in pseudopotentials (lmaxx) =  3

     Subspace diagonalization in iterative solution of the eigenvalue problem:
     a serial algorithm will be used


     Parallelization info
     --------------------
     sticks:   dense  smooth     PW     G-vecs:    dense   smooth      PW
     Min         534     273     81                23356     8251    1389
     Max         535     274     82                23365     8252    1390
     Sum        1069     547    163                46721    16503    2779



     bravais-lattice index     =            4
     lattice parameter (alat)  =       6.9939  a.u.
     unit-cell volume          =     483.0474 (a.u.)^3
     number of atoms/cell      =            2
     number of atomic types    =            1
     number of electrons       =        18.00
     number of Kohn-Sham states=           13
     kinetic-energy cutoff     =      40.0000  Ry
     charge density cutoff     =     320.0000  Ry
     convergence threshold     =      1.0E-10
     mixing beta               =       0.7000
     number of iterations used =            8  plain     mixing
     Exchange-correlation      = SLA  PW   PBE  PBE ( 1  4  3  4 0 0)

     celldm(1)=   6.993850  celldm(2)=   0.000000  celldm(3)=   1.630460
     celldm(4)=   0.000000  celldm(5)=   0.000000  celldm(6)=   0.000000

     crystal axes: (cart. coord. in units of alat)
               a(1) = (   1.000000   0.000000   0.000000 )  
               a(2) = (  -0.500000   0.866025   0.000000 )  
               a(3) = (   0.000000   0.000000   1.630460 )  

     reciprocal axes: (cart. coord. in units 2 pi/alat)
               b(1) = (  1.000000  0.577350 -0.000000 )  
               b(2) = (  0.000000  1.154701  0.000000 )  
               b(3) = (  0.000000 -0.000000  0.613324 )  


     PseudoPot. # 1 for Na read from file:
     ./Na_pbe_v1.uspp.F.UPF
     MD5 check sum: 76a99c7e9422403d3e93cbc85ab7bccb
     Pseudo is Ultrasoft, Zval =  9.0
     Generated by new atomic code, or converted to UPF format
     Using radial grid of  819 points,  5 beta functions with: 
                l(1) =   0
                l(2) =   0
                l(3) =   1
                l(4) =   1
                l(5) =   2
     Q(r) pseudized with  8 coefficients,  rinner =    1.250   1.250   1.250
                                                       1.250   1.250

     atomic species   valence    mass     pseudopotential
        Na             9.00    22.99000     Na( 1.00)

     12 Sym. Ops. (no inversion) found
          (note: 12 additional sym.ops. were found but ignored
           their fractional translations are incommensurate with FFT grid)


   Cartesian axes

     site n.     atom                  positions (alat units)
         1           Na  tau(   1) = (   0.0000000   0.0000000   0.0000000  )
         2           Na  tau(   2) = (   0.4999999   0.2886751   0.8152300  )

     number of k points=   366  Marzari-Vanderbilt smearing, width (Ry)=  0.0200

     Number of k-points >= 100: set verbosity='high' to print them.

     Dense  grid:    46721 G-vectors     FFT dimensions: (  40,  40,  72)

     Smooth grid:    16503 G-vectors     FFT dimensions: (  30,  30,  45)

     Estimated max dynamical RAM per process >      90.46MB

     Estimated total allocated dynamical RAM >     180.93MB

     Initial potential from superposition of free atoms

     starting charge   17.98742, renormalised to   18.00000
     Starting wfc are   10 randomized atomic wfcs +    3 random wfc

     total cpu time spent up to now is        7.8 secs

     per-process dynamical memory:    95.2 Mb

     Self-consistent Calculation

     iteration #  1     ecut=    40.00 Ry     beta=0.70
     Davidson diagonalization with overlap
     ethr =  1.00E-02,  avg # of iterations =  5.7

     Threshold (ethr) on eigenvalues was too large:
     Diagonalizing with lowered threshold

     Davidson diagonalization with overlap
     ethr =  9.44E-06,  avg # of iterations =  6.8

     total cpu time spent up to now is       72.8 secs

     total energy              =    -190.21279655 Ry
     Harris-Foulkes estimate   =    -190.21322627 Ry
     estimated scf accuracy    <       0.00175413 Ry

     iteration #  2     ecut=    40.00 Ry     beta=0.70
     Davidson diagonalization with overlap
     ethr =  9.75E-06,  avg # of iterations =  2.0

     total cpu time spent up to now is       99.4 secs

     total energy              =    -190.21299065 Ry
     Harris-Foulkes estimate   =    -190.21302954 Ry
     estimated scf accuracy    <       0.00018749 Ry

     iteration #  3     ecut=    40.00 Ry     beta=0.70
     Davidson diagonalization with overlap
     ethr =  1.04E-06,  avg # of iterations =  2.0

     total cpu time spent up to now is      125.6 secs

     total energy              =    -190.21300907 Ry
     Harris-Foulkes estimate   =    -190.21301156 Ry
     estimated scf accuracy    <       0.00001179 Ry

     iteration #  4     ecut=    40.00 Ry     beta=0.70
     Davidson diagonalization with overlap
     ethr =  6.55E-08,  avg # of iterations =  2.0

     total cpu time spent up to now is      146.3 secs

     total energy              =    -190.21301032 Ry
     Harris-Foulkes estimate   =    -190.21301022 Ry
     estimated scf accuracy    <       0.00000002 Ry

     iteration #  5     ecut=    40.00 Ry     beta=0.70
     Davidson diagonalization with overlap
     ethr =  1.21E-10,  avg # of iterations =  3.2

     total cpu time spent up to now is      179.1 secs

     total energy              =    -190.21301038 Ry
     Harris-Foulkes estimate   =    -190.21301037 Ry
     estimated scf accuracy    <          2.5E-09 Ry

     iteration #  6     ecut=    40.00 Ry     beta=0.70
     Davidson diagonalization with overlap
     ethr =  1.41E-11,  avg # of iterations =  1.8

     total cpu time spent up to now is      206.5 secs

     End of self-consistent calculation

     Number of k-points >= 100: set verbosity='high' to print the bands.

     the Fermi energy is     1.7529 ev

!    total energy              =    -190.21301038 Ry
     Harris-Foulkes estimate   =    -190.21301038 Ry
     estimated scf accuracy    <          7.1E-11 Ry

     The total energy is the sum of the following terms:

     one-electron contribution =    -174.76131579 Ry
     hartree contribution      =      88.22526231 Ry
     xc contribution           =     -28.54619457 Ry
     ewald contribution        =     -75.13063452 Ry
     smearing contrib. (-TS)   =      -0.00012781 Ry

     convergence has been achieved in   6 iterations


     Computing stress (Cartesian axis) and pressure

          total   stress  (Ry/bohr**3)                   (kbar)     P=    0.03
  -0.00000013   0.00000000  -0.00000000         -0.02      0.00     -0.00
   0.00000000  -0.00000013   0.00000000          0.00     -0.02      0.00
  -0.00000000   0.00000000   0.00000084         -0.00      0.00      0.12


     Writing output data file na_hcp.save

     init_run     :      7.56s CPU      7.80s WALL (       1 calls)
     electrons    :    191.24s CPU    198.68s WALL (       1 calls)
     stress       :      6.30s CPU      6.91s WALL (       1 calls)

     Called by init_run:
     wfcinit      :      7.16s CPU      7.36s WALL (       1 calls)
     potinit      :      0.09s CPU      0.09s WALL (       1 calls)

     Called by electrons:
     c_bands      :    161.69s CPU    167.50s WALL (       7 calls)
     sum_band     :     28.86s CPU     30.35s WALL (       7 calls)
     v_of_rho     :      0.36s CPU      0.40s WALL (       7 calls)
     newd         :      0.35s CPU      0.48s WALL (       7 calls)
     mix_rho      :      0.03s CPU      0.03s WALL (       7 calls)

     Called by c_bands:
     init_us_2    :      3.06s CPU      3.19s WALL (    5856 calls)
     cegterg      :    157.49s CPU    163.15s WALL (    2562 calls)

     Called by sum_band:
     sum_band:bec :      0.04s CPU      0.05s WALL (    2562 calls)
     addusdens    :      0.43s CPU      0.60s WALL (       7 calls)

     Called by *egterg:
     h_psi        :    134.46s CPU    139.40s WALL (   11546 calls)
     s_psi        :      4.78s CPU      4.91s WALL (   11546 calls)
     g_psi        :      0.50s CPU      0.51s WALL (    8618 calls)
     cdiaghg      :      4.89s CPU      5.02s WALL (   10814 calls)

     Called by h_psi:
     h_psi:pot    :    134.01s CPU    138.93s WALL (   11546 calls)
     h_psi:calbec :      6.54s CPU      6.81s WALL (   11546 calls)
     vloc_psi     :    122.49s CPU    127.02s WALL (   11546 calls)
     add_vuspsi   :      4.92s CPU      5.05s WALL (   11546 calls)

     General routines
     calbec       :      9.69s CPU     10.13s WALL (   14474 calls)
     fft          :      0.22s CPU      0.24s WALL (     117 calls)
     ffts         :      0.01s CPU      0.01s WALL (      14 calls)
     fftw         :    133.07s CPU    138.23s WALL (  217268 calls)
     interpolate  :      0.04s CPU      0.05s WALL (      14 calls)

     Parallel routines
     fft_scatter  :     14.38s CPU     15.04s WALL (  217399 calls)

     PWSCF        :  3m26.69s CPU     3m35.33s WALL


   This run was terminated on:  16:17:27  26Mar2018            

=------------------------------------------------------------------------------=
   JOB DONE.
=------------------------------------------------------------------------------=
