
     Program PWSCF v.6.1 (svn rev. 13369) starts on 12Feb2018 at 20:47:41 

     This program is part of the open-source Quantum ESPRESSO suite
     for quantum simulation of materials; please cite
         "P. Giannozzi et al., J. Phys.:Condens. Matter 21 395502 (2009);
          URL http://www.quantum-espresso.org", 
     in publications or presentations arising from this work. More details at
     http://www.quantum-espresso.org/quote

     Parallel version (MPI), running on    64 processors
     K-points division:     npool     =       4
     R & G space division:  proc/nbgrp/npool/nimage =      16
     Waiting for input...
     Reading input from standard input

     Current dimensions of program PWSCF are:
     Max number of different atomic species (ntypx) = 10
     Max number of k-points (npk) =  80000
     Max angular momentum in pseudopotentials (lmaxx) =  3

     Subspace diagonalization in iterative solution of the eigenvalue problem:
     a serial algorithm will be used


     Parallelization info
     --------------------
     sticks:   dense  smooth     PW     G-vecs:    dense   smooth      PW
     Min          64      31     10                 1380      484      91
     Max          65      32     11                 1384      489      94
     Sum        1039     511    169                22123     7799    1471



     bravais-lattice index     =            2
     lattice parameter (alat)  =       9.7000  a.u.
     unit-cell volume          =     228.1682 (a.u.)^3
     number of atoms/cell      =            1
     number of atomic types    =            1
     number of electrons       =         9.00
     number of Kohn-Sham states=            9
     kinetic-energy cutoff     =      40.0000  Ry
     charge density cutoff     =     320.0000  Ry
     convergence threshold     =      1.0E-10
     mixing beta               =       0.7000
     number of iterations used =            8  plain     mixing
     Exchange-correlation      = SLA  PW   PBE  PBE ( 1  4  3  4 0 0)

     celldm(1)=   9.700000  celldm(2)=   0.000000  celldm(3)=   0.000000
     celldm(4)=   0.000000  celldm(5)=   0.000000  celldm(6)=   0.000000

     crystal axes: (cart. coord. in units of alat)
               a(1) = (  -0.500000   0.000000   0.500000 )  
               a(2) = (   0.000000   0.500000   0.500000 )  
               a(3) = (  -0.500000   0.500000   0.000000 )  

     reciprocal axes: (cart. coord. in units 2 pi/alat)
               b(1) = ( -1.000000 -1.000000  1.000000 )  
               b(2) = (  1.000000  1.000000  1.000000 )  
               b(3) = ( -1.000000  1.000000 -1.000000 )  


     PseudoPot. # 1 for Na read from file:
     /home/s1333534/quantum_espresso/qe-6.1/pseudo/Na_pbe_v1.uspp.F.UPF
     MD5 check sum: 76a99c7e9422403d3e93cbc85ab7bccb
     Pseudo is Ultrasoft, Zval =  9.0
     Generated by new atomic code, or converted to UPF format
     Using radial grid of  819 points,  5 beta functions with: 
                l(1) =   0
                l(2) =   0
                l(3) =   1
                l(4) =   1
                l(5) =   2
     Q(r) pseudized with  8 coefficients,  rinner =    1.250   1.250   1.250
                                                       1.250   1.250

     atomic species   valence    mass     pseudopotential
        Na             9.00    22.99000     Na( 1.00)

     48 Sym. Ops., with inversion, found



   Cartesian axes

     site n.     atom                  positions (alat units)
         1           Na  tau(   1) = (   0.0000000   0.0000000   0.0000000  )

     number of k points=   770  Marzari-Vanderbilt smearing, width (Ry)=  0.0200

     Number of k-points >= 100: set verbosity='high' to print them.

     Dense  grid:    22123 G-vectors     FFT dimensions: (  40,  40,  40)

     Smooth grid:     7799 G-vectors     FFT dimensions: (  27,  27,  27)

     Estimated max dynamical RAM per process >       2.59MB

     Estimated total allocated dynamical RAM >     166.04MB

     Initial potential from superposition of free atoms

     starting charge    8.99371, renormalised to    9.00000
     Starting wfc are    5 randomized atomic wfcs +    4 random wfc

     total cpu time spent up to now is        1.0 secs

     per-process dynamical memory:     8.9 Mb

     Self-consistent Calculation

     iteration #  1     ecut=    40.00 Ry     beta=0.70
     Davidson diagonalization with overlap
     ethr =  1.00E-02,  avg # of iterations =  5.4

     Threshold (ethr) on eigenvalues was too large:
     Diagonalizing with lowered threshold

     Davidson diagonalization with overlap
     ethr =  1.03E-05,  avg # of iterations =  3.8

     total cpu time spent up to now is        8.1 secs

     total energy              =     -95.10588000 Ry
     Harris-Foulkes estimate   =     -95.10614293 Ry
     estimated scf accuracy    <       0.00092220 Ry

     iteration #  2     ecut=    40.00 Ry     beta=0.70
     Davidson diagonalization with overlap
     ethr =  1.02E-05,  avg # of iterations =  2.0

     total cpu time spent up to now is       10.4 secs

     total energy              =     -95.10598549 Ry
     Harris-Foulkes estimate   =     -95.10600994 Ry
     estimated scf accuracy    <       0.00010122 Ry

     iteration #  3     ecut=    40.00 Ry     beta=0.70
     Davidson diagonalization with overlap
     ethr =  1.12E-06,  avg # of iterations =  2.1

     total cpu time spent up to now is       12.6 secs

     total energy              =     -95.10599752 Ry
     Harris-Foulkes estimate   =     -95.10599870 Ry
     estimated scf accuracy    <       0.00000606 Ry

     iteration #  4     ecut=    40.00 Ry     beta=0.70
     Davidson diagonalization with overlap
     ethr =  6.74E-08,  avg # of iterations =  1.0

     total cpu time spent up to now is       14.4 secs

     total energy              =     -95.10599809 Ry
     Harris-Foulkes estimate   =     -95.10599805 Ry
     estimated scf accuracy    <          9.8E-09 Ry

     iteration #  5     ecut=    40.00 Ry     beta=0.70
     Davidson diagonalization with overlap
     ethr =  1.08E-10,  avg # of iterations =  3.0

     total cpu time spent up to now is       16.9 secs

     total energy              =     -95.10599813 Ry
     Harris-Foulkes estimate   =     -95.10599812 Ry
     estimated scf accuracy    <          1.6E-09 Ry

     iteration #  6     ecut=    40.00 Ry     beta=0.70
     Davidson diagonalization with overlap
     ethr =  1.78E-11,  avg # of iterations =  1.6

     total cpu time spent up to now is       18.9 secs

     End of self-consistent calculation

     Number of k-points >= 100: set verbosity='high' to print the bands.

     the Fermi energy is     2.0059 ev

!    total energy              =     -95.10599813 Ry
     Harris-Foulkes estimate   =     -95.10599813 Ry
     estimated scf accuracy    <          2.1E-11 Ry

     The total energy is the sum of the following terms:

     one-electron contribution =     -86.11665741 Ry
     hartree contribution      =      43.57734501 Ry
     xc contribution           =     -14.28068058 Ry
     ewald contribution        =     -38.28596165 Ry
     smearing contrib. (-TS)   =      -0.00004351 Ry

     convergence has been achieved in   6 iterations


     Computing stress (Cartesian axis) and pressure

          total   stress  (Ry/bohr**3)                   (kbar)     P=    5.37
   0.00003652   0.00000000   0.00000000          5.37      0.00      0.00
   0.00000000   0.00003652  -0.00000000          0.00      5.37     -0.00
   0.00000000  -0.00000000   0.00003652          0.00     -0.00      5.37


     Writing output data file na.fcc.save

     init_run     :      0.79s CPU      0.85s WALL (       1 calls)
     electrons    :     16.63s CPU     17.85s WALL (       1 calls)
     stress       :      0.38s CPU      0.39s WALL (       1 calls)

     Called by init_run:
     wfcinit      :      0.53s CPU      0.57s WALL (       1 calls)
     potinit      :      0.12s CPU      0.12s WALL (       1 calls)

     Called by electrons:
     c_bands      :     14.30s CPU     15.40s WALL (       7 calls)
     sum_band     :      2.15s CPU      2.27s WALL (       7 calls)
     v_of_rho     :      0.07s CPU      0.07s WALL (       7 calls)
     newd         :      0.06s CPU      0.07s WALL (       7 calls)
     mix_rho      :      0.01s CPU      0.01s WALL (       7 calls)

     Called by c_bands:
     init_us_2    :      0.23s CPU      0.24s WALL (    3088 calls)
     cegterg      :     12.52s CPU     13.59s WALL (    1351 calls)

     Called by sum_band:
     sum_band:bec :      0.01s CPU      0.02s WALL (    1351 calls)
     addusdens    :      0.07s CPU      0.08s WALL (       7 calls)

     Called by *egterg:
     h_psi        :      9.13s CPU      9.75s WALL (    5352 calls)
     s_psi        :      0.10s CPU      0.11s WALL (    5352 calls)
     g_psi        :      0.03s CPU      0.03s WALL (    3808 calls)
     cdiaghg      :      2.22s CPU      2.43s WALL (    4966 calls)

     Called by h_psi:
     h_psi:pot    :      9.09s CPU      9.70s WALL (    5352 calls)
     h_psi:calbec :      0.40s CPU      0.42s WALL (    5352 calls)
     vloc_psi     :      8.54s CPU      9.11s WALL (    5352 calls)
     add_vuspsi   :      0.11s CPU      0.12s WALL (    5352 calls)

     General routines
     calbec       :      0.51s CPU      0.54s WALL (    6896 calls)
     fft          :      0.08s CPU      0.08s WALL (     117 calls)
     ffts         :      0.08s CPU      0.08s WALL (      14 calls)
     fftw         :      9.19s CPU      9.79s WALL (   78915 calls)
     interpolate  :      0.08s CPU      0.09s WALL (      14 calls)
     davcio       :      0.01s CPU      0.08s WALL (     193 calls)

     Parallel routines
     fft_scatter  :      4.34s CPU      4.64s WALL (   79046 calls)

     PWSCF        :    20.78s CPU        22.37s WALL


   This run was terminated on:  20:48: 4  12Feb2018            

=------------------------------------------------------------------------------=
   JOB DONE.
=------------------------------------------------------------------------------=
