
     Program PHONON v.5.4.0 starts on  6Jun2016 at  6: 4:34 

     This program is part of the open-source Quantum ESPRESSO suite
     for quantum simulation of materials; please cite
         "P. Giannozzi et al., J. Phys.:Condens. Matter 21 395502 (2009);
          URL http://www.quantum-espresso.org", 
     in publications or presentations arising from this work. More details at
     http://www.quantum-espresso.org/quote

     Parallel version (MPI), running on   384 processors
     K-points division:     npool     =     384

     Reading data from directory:
     ./tmp/li-fcc.save

   Info: using nr1, nr2, nr3 values from input

   Info: using nr1, nr2, nr3 values from input

     IMPORTANT: XC functional enforced from input :
     Exchange-correlation      =  SLA  PW   PBX  PBC ( 1  4  3  4 0 0)
     Any further DFT definition will be discarded
     Please, verify this is what you really want

 
     G-vector sticks info
     --------------------
     sticks:   dense  smooth     PW     G-vecs:    dense   smooth      PW
     Sum        1027     511    163                21595     7631    1459
 


     Dynamical matrices for ( 8, 8, 8)  uniform grid of q-points
     (  29q-points):
       N         xq(1)         xq(2)         xq(3) 
       1   0.000000000   0.000000000   0.000000000
       2  -0.125000000   0.125000000  -0.125000000
       3  -0.250000000   0.250000000  -0.250000000
       4  -0.375000000   0.375000000  -0.375000000
       5   0.500000000  -0.500000000   0.500000000
       6   0.000000000   0.250000000   0.000000000
       7  -0.125000000   0.375000000  -0.125000000
       8  -0.250000000   0.500000000  -0.250000000
       9   0.625000000  -0.375000000   0.625000000
      10   0.500000000  -0.250000000   0.500000000
      11   0.375000000  -0.125000000   0.375000000
      12   0.250000000   0.000000000   0.250000000
      13   0.000000000   0.500000000   0.000000000
      14  -0.125000000   0.625000000  -0.125000000
      15   0.750000000  -0.250000000   0.750000000
      16   0.625000000  -0.125000000   0.625000000
      17   0.500000000   0.000000000   0.500000000
      18   0.000000000   0.750000000   0.000000000
      19   0.875000000  -0.125000000   0.875000000
      20   0.750000000   0.000000000   0.750000000
      21   0.000000000  -1.000000000   0.000000000
      22  -0.250000000   0.500000000   0.000000000
      23   0.625000000  -0.375000000   0.875000000
      24   0.500000000  -0.250000000   0.750000000
      25   0.750000000  -0.250000000   1.000000000
      26   0.625000000  -0.125000000   0.875000000
      27   0.500000000   0.000000000   0.750000000
      28  -0.250000000  -1.000000000   0.000000000
      29  -0.500000000  -1.000000000   0.000000000

     Calculation of q =    0.0000000   0.0000000   0.0000000

                                                                                

     bravais-lattice index     =            2
     lattice parameter (alat)  =       7.8623  a.u.
     unit-cell volume          =     121.5018 (a.u.)^3
     number of atoms/cell      =            1
     number of atomic types    =            1
     kinetic-energy cut-off    =      60.0000  Ry
     charge density cut-off    =     480.0000  Ry
     convergence threshold     =      1.0E-16
     beta                      =       0.7000
     number of iterations used =            4
     Exchange-correlation      =  SLA  PW   PBX  PBC ( 1  4  3  4 0 0)


     celldm(1)=    7.86226  celldm(2)=    0.00000  celldm(3)=    0.00000
     celldm(4)=    0.00000  celldm(5)=    0.00000  celldm(6)=    0.00000

     crystal axes: (cart. coord. in units of alat)
               a(1) = ( -0.5000  0.0000  0.5000 )  
               a(2) = (  0.0000  0.5000  0.5000 )  
               a(3) = ( -0.5000  0.5000  0.0000 )  

     reciprocal axes: (cart. coord. in units 2 pi/alat)
               b(1) = ( -1.0000 -1.0000  1.0000 )  
               b(2) = (  1.0000  1.0000  1.0000 )  
               b(3) = ( -1.0000  1.0000 -1.0000 )  


     Atoms inside the unit cell: 

     Cartesian axes

     site n.  atom      mass           positions (alat units)
        1     Li   6.9410   tau(    1) = (    0.00000    0.00000    0.00000  )

     Computing dynamical matrix for 
                    q = (   0.0000000   0.0000000   0.0000000 )
 
     49 Sym.Ops. (with q -> -q+G )


     G cutoff =  751.5823  (  21595 G-vectors)     FFT grid: ( 40, 40, 40)
     G cutoff =  375.7911  (   7631 G-vectors)  smooth grid: ( 27, 27, 27)

     number of k points=  2030  Marzari-Vanderbilt smearing, width (Ry)=  0.0200

     PseudoPot. # 1 for Li read from file:
     ../Li.pbe-s-gbrv14.UPF
     MD5 check sum: 7ca33c4f951f001da2db5c8738379802
     Pseudo is Ultrasoft, Zval =  3.0
     Generated by new atomic code, or converted to UPF format
     Using radial grid of  751 points,  5 beta functions with: 
                l(1) =   0
                l(2) =   0
                l(3) =   0
                l(4) =   1
                l(5) =   1
     Q(r) pseudized with 10 coefficients,  rinner =    1.150   1.150   1.150


     Mode symmetry, O_h (m-3m)  point group:


     Atomic displacements:
     There are   1 irreducible representations

     Representation     1      3 modes -T_1u G_15  G_4-  To be done



     Alpha used in Ewald sum =   2.8000
     PHONON       :    13.41s CPU        28.67s WALL



     Representation #  1 modes #   1  2  3

     Self-consistent Calculation
 
     Pert. #  1: Fermi energy shift (Ry) =     1.6694E-25     2.3510E-38
     Pert. #  2: Fermi energy shift (Ry) =    -2.1689E-25     7.8366E-39
     Pert. #  3: Fermi energy shift (Ry) =    -3.6728E-25    -7.8366E-39

      iter #   1 total cpu time :    29.6 secs   av.it.:   5.3
      thresh= 1.000E-02 alpha_mix =  0.700 |ddv_scf|^2 =  1.208E-07
 
     Pert. #  1: Fermi energy shift (Ry) =     2.4126E-25    -8.2652E-40
     Pert. #  2: Fermi energy shift (Ry) =     1.5940E-25     2.7551E-40
     Pert. #  3: Fermi energy shift (Ry) =    -6.0315E-26     5.8162E-40

      iter #   2 total cpu time :    30.9 secs   av.it.:   9.4
      thresh= 3.476E-05 alpha_mix =  0.700 |ddv_scf|^2 =  7.394E-09
 
     Pert. #  1: Fermi energy shift (Ry) =    -2.2403E-25     0.0000E+00
     Pert. #  2: Fermi energy shift (Ry) =    -2.2012E-26     0.0000E+00
     Pert. #  3: Fermi energy shift (Ry) =     5.8161E-26     0.0000E+00

      iter #   3 total cpu time :    32.0 secs   av.it.:   9.6
      thresh= 8.599E-06 alpha_mix =  0.700 |ddv_scf|^2 =  4.150E-11
 
     Pert. #  1: Fermi energy shift (Ry) =    -4.7391E-26    -7.1746E-43
     Pert. #  2: Fermi energy shift (Ry) =    -1.6156E-25     1.1958E-43
     Pert. #  3: Fermi energy shift (Ry) =    -3.8774E-26     8.3704E-43

      iter #   4 total cpu time :    33.8 secs   av.it.:   9.3
      thresh= 6.442E-07 alpha_mix =  0.700 |ddv_scf|^2 =  1.079E-13
 
     Pert. #  1: Fermi energy shift (Ry) =     4.9545E-26     3.5873E-43
     Pert. #  2: Fermi energy shift (Ry) =    -5.9238E-27     1.1958E-43
     Pert. #  3: Fermi energy shift (Ry) =     7.5394E-26    -1.1958E-43

      iter #   5 total cpu time :    35.5 secs   av.it.:   8.9
      thresh= 3.285E-08 alpha_mix =  0.700 |ddv_scf|^2 =  2.175E-15
 
     Pert. #  1: Fermi energy shift (Ry) =    -2.1541E-26     3.5873E-43
     Pert. #  2: Fermi energy shift (Ry) =     1.1686E-25     1.1958E-43
     Pert. #  3: Fermi energy shift (Ry) =     3.6620E-26    -1.1958E-43

      iter #   6 total cpu time :    36.6 secs   av.it.:   8.6
      thresh= 4.664E-09 alpha_mix =  0.700 |ddv_scf|^2 =  5.198E-19

     End of self-consistent calculation

     Convergence has been achieved 
 
     Number of q in the star =    1
     List of q in the star:
          1   0.000000000   0.000000000   0.000000000

     Diagonalizing the dynamical matrix

     q = (    0.000000000   0.000000000   0.000000000 ) 

 **************************************************************************
     freq (    1) =      -0.070838 [THz] =      -2.362906 [cm-1]
     freq (    2) =      -0.070838 [THz] =      -2.362906 [cm-1]
     freq (    3) =      -0.070838 [THz] =      -2.362906 [cm-1]
 **************************************************************************

     Mode symmetry, O_h (m-3m)  point group:

     freq (  1 -  3) =         -2.4  [cm-1]   --> T_1u G_15  G_4- I  

     Calculation of q =   -0.1250000   0.1250000  -0.1250000
 
     G-vector sticks info
     --------------------
     sticks:   dense  smooth     PW     G-vecs:    dense   smooth      PW
     Sum        1027     511    187                21595     7631    1591
 


     bravais-lattice index     =            2
     lattice parameter (alat)  =       7.8623  a.u.
     unit-cell volume          =     121.5018 (a.u.)^3
     number of atoms/cell      =            1
     number of atomic types    =            1
     number of electrons       =         3.00
     number of Kohn-Sham states=            6
     kinetic-energy cutoff     =      60.0000  Ry
     charge density cutoff     =     480.0000  Ry
     Exchange-correlation      =  SLA  PW   PBX  PBC ( 1  4  3  4 0 0)

     celldm(1)=   7.862262  celldm(2)=   0.000000  celldm(3)=   0.000000
     celldm(4)=   0.000000  celldm(5)=   0.000000  celldm(6)=   0.000000

     crystal axes: (cart. coord. in units of alat)
               a(1) = (  -0.500000   0.000000   0.500000 )  
               a(2) = (   0.000000   0.500000   0.500000 )  
               a(3) = (  -0.500000   0.500000   0.000000 )  

     reciprocal axes: (cart. coord. in units 2 pi/alat)
               b(1) = ( -1.000000 -1.000000  1.000000 )  
               b(2) = (  1.000000  1.000000  1.000000 )  
               b(3) = ( -1.000000  1.000000 -1.000000 )  


     PseudoPot. # 1 for Li read from file:
     ../Li.pbe-s-gbrv14.UPF
     MD5 check sum: 7ca33c4f951f001da2db5c8738379802
     Pseudo is Ultrasoft, Zval =  3.0
     Generated by new atomic code, or converted to UPF format
     Using radial grid of  751 points,  5 beta functions with: 
                l(1) =   0
                l(2) =   0
                l(3) =   0
                l(4) =   1
                l(5) =   1
     Q(r) pseudized with 10 coefficients,  rinner =    1.150   1.150   1.150


     atomic species   valence    mass     pseudopotential
        Li             3.00     6.94100     Li( 1.00)

     48 Sym. Ops., with inversion, found



   Cartesian axes

     site n.     atom                  positions (alat units)
         1           Li  tau(   1) = (   0.0000000   0.0000000   0.0000000  )

     number of k points= 30856  Marzari-Vanderbilt smearing, width (Ry)=  0.0200

     Number of k-points >= 100: set verbosity='high' to print them.

     Dense  grid:    21595 G-vectors     FFT dimensions: (  40,  40,  40)

     Smooth grid:     7631 G-vectors     FFT dimensions: (  27,  27,  27)

     Largest allocated arrays     est. size (Mb)     dimensions
        Kohn-Sham Wavefunctions         0.09 Mb     (     969,    6)
        NL pseudopotentials             0.13 Mb     (     969,    9)
        Each V/rho on FFT grid          0.98 Mb     (   64000)
        Each G-vector array             0.16 Mb     (   21595)
        G-vector shells                 0.00 Mb     (     253)
     Largest temporary arrays     est. size (Mb)     dimensions
        Auxiliary wavefunctions         0.35 Mb     (     969,   24)
        Each subspace H/S matrix        0.01 Mb     (      24,   24)
        Each <psi_i|beta_j> matrix      0.00 Mb     (       9,    6)

     The potential is recalculated from file :
     ./tmp/_ph0/li-fcc.save/charge-density.dat

     Starting wfc are    5 atomic +    1 random wfc

     Band Structure Calculation
     Davidson diagonalization with overlap

     ethr =  3.33E-10,  avg # of iterations = 15.2

     total cpu time spent up to now is        8.7 secs

     End of band structure calculation

     Number of k-points >= 100: set verbosity='high' to print the bands.

     the Fermi energy is     1.3250 ev

                                                                                

     bravais-lattice index     =            2
     lattice parameter (alat)  =       7.8623  a.u.
     unit-cell volume          =     121.5018 (a.u.)^3
     number of atoms/cell      =            1
     number of atomic types    =            1
     kinetic-energy cut-off    =      60.0000  Ry
     charge density cut-off    =     480.0000  Ry
     convergence threshold     =      1.0E-16
     beta                      =       0.7000
     number of iterations used =            4
     Exchange-correlation      =  SLA  PW   PBX  PBC ( 1  4  3  4 0 0)


     celldm(1)=    7.86226  celldm(2)=    0.00000  celldm(3)=    0.00000
     celldm(4)=    0.00000  celldm(5)=    0.00000  celldm(6)=    0.00000

     crystal axes: (cart. coord. in units of alat)
               a(1) = ( -0.5000  0.0000  0.5000 )  
               a(2) = (  0.0000  0.5000  0.5000 )  
               a(3) = ( -0.5000  0.5000  0.0000 )  

     reciprocal axes: (cart. coord. in units 2 pi/alat)
               b(1) = ( -1.0000 -1.0000  1.0000 )  
               b(2) = (  1.0000  1.0000  1.0000 )  
               b(3) = ( -1.0000  1.0000 -1.0000 )  


     Atoms inside the unit cell: 

     Cartesian axes

     site n.  atom      mass           positions (alat units)
        1     Li   6.9410   tau(    1) = (    0.00000    0.00000    0.00000  )

     Computing dynamical matrix for 
                    q = (  -0.1250000   0.1250000  -0.1250000 )
 
      6 Sym.Ops. (no q -> -q+G )


     G cutoff =  751.5823  (  21595 G-vectors)     FFT grid: ( 40, 40, 40)
     G cutoff =  375.7911  (   7631 G-vectors)  smooth grid: ( 27, 27, 27)

     number of k points= 30856  Marzari-Vanderbilt smearing, width (Ry)=  0.0200

     PseudoPot. # 1 for Li read from file:
     ../Li.pbe-s-gbrv14.UPF
     MD5 check sum: 7ca33c4f951f001da2db5c8738379802
     Pseudo is Ultrasoft, Zval =  3.0
     Generated by new atomic code, or converted to UPF format
     Using radial grid of  751 points,  5 beta functions with: 
                l(1) =   0
                l(2) =   0
                l(3) =   0
                l(4) =   1
                l(5) =   1
     Q(r) pseudized with 10 coefficients,  rinner =    1.150   1.150   1.150


     Mode symmetry, C_3v (3m)   point group:


     Atomic displacements:
     There are   2 irreducible representations

     Representation     1      1 modes -A_1  L_1  To be done

     Representation     2      2 modes -E    L_3  To be done



     Alpha used in Ewald sum =   2.8000
     PHONON       :    31.99s CPU        49.15s WALL



     Representation #  1 mode #   1

     Self-consistent Calculation

      iter #   1 total cpu time :    50.2 secs   av.it.:   6.4
      thresh= 1.000E-02 alpha_mix =  0.700 |ddv_scf|^2 =  9.197E-02

      iter #   2 total cpu time :    58.5 secs   av.it.:   8.0
      thresh= 1.000E-02 alpha_mix =  0.700 |ddv_scf|^2 =  7.983E+01

      iter #   3 total cpu time :    70.7 secs   av.it.:   7.9
      thresh= 1.000E-02 alpha_mix =  0.700 |ddv_scf|^2 =  6.439E-04

      iter #   4 total cpu time :    73.2 secs   av.it.:   5.0
      thresh= 2.537E-03 alpha_mix =  0.700 |ddv_scf|^2 =  4.123E-08

      iter #   5 total cpu time :    84.1 secs   av.it.:   8.3
      thresh= 2.030E-05 alpha_mix =  0.700 |ddv_scf|^2 =  4.654E-10

      iter #   6 total cpu time :    90.1 secs   av.it.:   8.6
      thresh= 2.157E-06 alpha_mix =  0.700 |ddv_scf|^2 =  1.337E-10

      iter #   7 total cpu time :    92.6 secs   av.it.:   6.5
      thresh= 1.156E-06 alpha_mix =  0.700 |ddv_scf|^2 =  6.633E-09

      iter #   8 total cpu time :    93.7 secs   av.it.:   5.3
      thresh= 8.145E-06 alpha_mix =  0.700 |ddv_scf|^2 =  4.261E-13

      iter #   9 total cpu time :    94.7 secs   av.it.:   7.4
      thresh= 6.528E-08 alpha_mix =  0.700 |ddv_scf|^2 =  1.236E-13

      iter #  10 total cpu time :    95.7 secs   av.it.:   7.0
      thresh= 3.516E-08 alpha_mix =  0.700 |ddv_scf|^2 =  1.999E-14

      iter #  11 total cpu time :    97.8 secs   av.it.:   6.3
      thresh= 1.414E-08 alpha_mix =  0.700 |ddv_scf|^2 =  5.119E-17

     End of self-consistent calculation

     Convergence has been achieved 


     Representation #  2 modes #   2  3

     Self-consistent Calculation

      iter #   1 total cpu time :   100.0 secs   av.it.:   5.4
      thresh= 1.000E-02 alpha_mix =  0.700 |ddv_scf|^2 =  2.743E-07

      iter #   2 total cpu time :   102.7 secs   av.it.:   9.3
      thresh= 5.237E-05 alpha_mix =  0.700 |ddv_scf|^2 =  1.674E-08

      iter #   3 total cpu time :   105.0 secs   av.it.:   9.5
      thresh= 1.294E-05 alpha_mix =  0.700 |ddv_scf|^2 =  1.047E-10

      iter #   4 total cpu time :   107.3 secs   av.it.:   9.1
      thresh= 1.023E-06 alpha_mix =  0.700 |ddv_scf|^2 =  2.375E-13

      iter #   5 total cpu time :   109.4 secs   av.it.:   8.9
      thresh= 4.874E-08 alpha_mix =  0.700 |ddv_scf|^2 =  4.640E-15

      iter #   6 total cpu time :   111.5 secs   av.it.:   8.1
      thresh= 6.811E-09 alpha_mix =  0.700 |ddv_scf|^2 =  1.460E-18

     End of self-consistent calculation

     Convergence has been achieved 
 
     Number of q in the star =    8
     List of q in the star:
          1  -0.125000000   0.125000000  -0.125000000
          2   0.125000000  -0.125000000  -0.125000000
          3   0.125000000  -0.125000000   0.125000000
          4  -0.125000000   0.125000000   0.125000000
          5   0.125000000   0.125000000  -0.125000000
          6  -0.125000000  -0.125000000  -0.125000000
          7  -0.125000000  -0.125000000   0.125000000
          8   0.125000000   0.125000000   0.125000000

     Diagonalizing the dynamical matrix

     q = (   -0.125000000   0.125000000  -0.125000000 ) 

 **************************************************************************
     freq (    1) =       1.449108 [THz] =      48.337033 [cm-1]
     freq (    2) =       1.449108 [THz] =      48.337033 [cm-1]
     freq (    3) =       3.995194 [THz] =     133.265329 [cm-1]
 **************************************************************************

     Mode symmetry, C_3v (3m)   point group:

     freq (  1 -  2) =         48.3  [cm-1]   --> E    L_3           
     freq (  3 -  3) =        133.3  [cm-1]   --> A_1  L_1           

     Calculation of q =   -0.2500000   0.2500000  -0.2500000
 
     G-vector sticks info
     --------------------
     sticks:   dense  smooth     PW     G-vecs:    dense   smooth      PW
     Sum        1027     511    187                21595     7631    1687
 


     bravais-lattice index     =            2
     lattice parameter (alat)  =       7.8623  a.u.
     unit-cell volume          =     121.5018 (a.u.)^3
     number of atoms/cell      =            1
     number of atomic types    =            1
     number of electrons       =         3.00
     number of Kohn-Sham states=            6
     kinetic-energy cutoff     =      60.0000  Ry
     charge density cutoff     =     480.0000  Ry
     Exchange-correlation      =  SLA  PW   PBX  PBC ( 1  4  3  4 0 0)

     celldm(1)=   7.862262  celldm(2)=   0.000000  celldm(3)=   0.000000
     celldm(4)=   0.000000  celldm(5)=   0.000000  celldm(6)=   0.000000

     crystal axes: (cart. coord. in units of alat)
               a(1) = (  -0.500000   0.000000   0.500000 )  
               a(2) = (   0.000000   0.500000   0.500000 )  
               a(3) = (  -0.500000   0.500000   0.000000 )  

     reciprocal axes: (cart. coord. in units 2 pi/alat)
               b(1) = ( -1.000000 -1.000000  1.000000 )  
               b(2) = (  1.000000  1.000000  1.000000 )  
               b(3) = ( -1.000000  1.000000 -1.000000 )  


     PseudoPot. # 1 for Li read from file:
     ../Li.pbe-s-gbrv14.UPF
     MD5 check sum: 7ca33c4f951f001da2db5c8738379802
     Pseudo is Ultrasoft, Zval =  3.0
     Generated by new atomic code, or converted to UPF format
     Using radial grid of  751 points,  5 beta functions with: 
                l(1) =   0
                l(2) =   0
                l(3) =   0
                l(4) =   1
                l(5) =   1
     Q(r) pseudized with 10 coefficients,  rinner =    1.150   1.150   1.150


     atomic species   valence    mass     pseudopotential
        Li             3.00     6.94100     Li( 1.00)

     48 Sym. Ops., with inversion, found



   Cartesian axes

     site n.     atom                  positions (alat units)
         1           Li  tau(   1) = (   0.0000000   0.0000000   0.0000000  )

     number of k points= 30856  Marzari-Vanderbilt smearing, width (Ry)=  0.0200

     Number of k-points >= 100: set verbosity='high' to print them.

     Dense  grid:    21595 G-vectors     FFT dimensions: (  40,  40,  40)

     Smooth grid:     7631 G-vectors     FFT dimensions: (  27,  27,  27)

     Largest allocated arrays     est. size (Mb)     dimensions
        Kohn-Sham Wavefunctions         0.09 Mb     (     968,    6)
        NL pseudopotentials             0.13 Mb     (     968,    9)
        Each V/rho on FFT grid          0.98 Mb     (   64000)
        Each G-vector array             0.16 Mb     (   21595)
        G-vector shells                 0.00 Mb     (     253)
     Largest temporary arrays     est. size (Mb)     dimensions
        Auxiliary wavefunctions         0.35 Mb     (     968,   24)
        Each subspace H/S matrix        0.01 Mb     (      24,   24)
        Each <psi_i|beta_j> matrix      0.00 Mb     (       9,    6)

     The potential is recalculated from file :
     ./tmp/_ph0/li-fcc.save/charge-density.dat

     Starting wfc are    5 atomic +    1 random wfc

     Band Structure Calculation
     Davidson diagonalization with overlap

     ethr =  3.33E-10,  avg # of iterations = 15.2

     total cpu time spent up to now is       19.2 secs

     End of band structure calculation

     Number of k-points >= 100: set verbosity='high' to print the bands.

     the Fermi energy is     1.3250 ev

                                                                                

     bravais-lattice index     =            2
     lattice parameter (alat)  =       7.8623  a.u.
     unit-cell volume          =     121.5018 (a.u.)^3
     number of atoms/cell      =            1
     number of atomic types    =            1
     kinetic-energy cut-off    =      60.0000  Ry
     charge density cut-off    =     480.0000  Ry
     convergence threshold     =      1.0E-16
     beta                      =       0.7000
     number of iterations used =            4
     Exchange-correlation      =  SLA  PW   PBX  PBC ( 1  4  3  4 0 0)


     celldm(1)=    7.86226  celldm(2)=    0.00000  celldm(3)=    0.00000
     celldm(4)=    0.00000  celldm(5)=    0.00000  celldm(6)=    0.00000

     crystal axes: (cart. coord. in units of alat)
               a(1) = ( -0.5000  0.0000  0.5000 )  
               a(2) = (  0.0000  0.5000  0.5000 )  
               a(3) = ( -0.5000  0.5000  0.0000 )  

     reciprocal axes: (cart. coord. in units 2 pi/alat)
               b(1) = ( -1.0000 -1.0000  1.0000 )  
               b(2) = (  1.0000  1.0000  1.0000 )  
               b(3) = ( -1.0000  1.0000 -1.0000 )  


     Atoms inside the unit cell: 

     Cartesian axes

     site n.  atom      mass           positions (alat units)
        1     Li   6.9410   tau(    1) = (    0.00000    0.00000    0.00000  )

     Computing dynamical matrix for 
                    q = (  -0.2500000   0.2500000  -0.2500000 )
 
      6 Sym.Ops. (no q -> -q+G )


     G cutoff =  751.5823  (  21595 G-vectors)     FFT grid: ( 40, 40, 40)
     G cutoff =  375.7911  (   7631 G-vectors)  smooth grid: ( 27, 27, 27)

     number of k points= 30856  Marzari-Vanderbilt smearing, width (Ry)=  0.0200

     PseudoPot. # 1 for Li read from file:
     ../Li.pbe-s-gbrv14.UPF
     MD5 check sum: 7ca33c4f951f001da2db5c8738379802
     Pseudo is Ultrasoft, Zval =  3.0
     Generated by new atomic code, or converted to UPF format
     Using radial grid of  751 points,  5 beta functions with: 
                l(1) =   0
                l(2) =   0
                l(3) =   0
                l(4) =   1
                l(5) =   1
     Q(r) pseudized with 10 coefficients,  rinner =    1.150   1.150   1.150


     Mode symmetry, C_3v (3m)   point group:


     Atomic displacements:
     There are   2 irreducible representations

     Representation     1      1 modes -A_1  L_1  To be done

     Representation     2      2 modes -E    L_3  To be done



     Alpha used in Ewald sum =   2.8000
     PHONON       :  1m52.22s CPU     2m14.23s WALL



     Representation #  1 mode #   1

     Self-consistent Calculation

      iter #   1 total cpu time :   135.3 secs   av.it.:   6.4
      thresh= 1.000E-02 alpha_mix =  0.700 |ddv_scf|^2 =  1.097E-03

      iter #   2 total cpu time :   138.3 secs   av.it.:   7.8
      thresh= 3.311E-03 alpha_mix =  0.700 |ddv_scf|^2 =  3.979E-02

      iter #   3 total cpu time :   144.0 secs   av.it.:   6.4
      thresh= 1.000E-02 alpha_mix =  0.700 |ddv_scf|^2 =  8.903E-08

      iter #   4 total cpu time :   147.8 secs   av.it.:   8.9
      thresh= 2.984E-05 alpha_mix =  0.700 |ddv_scf|^2 =  4.342E-09

      iter #   5 total cpu time :   157.6 secs   av.it.:   8.9
      thresh= 6.590E-06 alpha_mix =  0.700 |ddv_scf|^2 =  1.047E-10

      iter #   6 total cpu time :   171.4 secs   av.it.:   8.2
      thresh= 1.023E-06 alpha_mix =  0.700 |ddv_scf|^2 =  2.452E-13

      iter #   7 total cpu time :   174.4 secs   av.it.:   9.6
      thresh= 4.952E-08 alpha_mix =  0.700 |ddv_scf|^2 =  1.645E-14

      iter #   8 total cpu time :   177.4 secs   av.it.:   8.4
      thresh= 1.282E-08 alpha_mix =  0.700 |ddv_scf|^2 =  3.719E-15

      iter #   9 total cpu time :   179.5 secs   av.it.:   7.5
      thresh= 6.098E-09 alpha_mix =  0.700 |ddv_scf|^2 =  1.699E-14

      iter #  10 total cpu time :   180.8 secs   av.it.:   6.6
      thresh= 1.303E-08 alpha_mix =  0.700 |ddv_scf|^2 =  8.382E-17

     End of self-consistent calculation

     Convergence has been achieved 


     Representation #  2 modes #   2  3

     Self-consistent Calculation

      iter #   1 total cpu time :   186.1 secs   av.it.:   5.5
      thresh= 1.000E-02 alpha_mix =  0.700 |ddv_scf|^2 =  2.801E-07

      iter #   2 total cpu time :   193.3 secs   av.it.:   9.4
      thresh= 5.293E-05 alpha_mix =  0.700 |ddv_scf|^2 =  1.700E-08

      iter #   3 total cpu time :   207.5 secs   av.it.:   9.6
      thresh= 1.304E-05 alpha_mix =  0.700 |ddv_scf|^2 =  1.284E-10

      iter #   4 total cpu time :   210.1 secs   av.it.:   9.1
      thresh= 1.133E-06 alpha_mix =  0.700 |ddv_scf|^2 =  2.350E-13

      iter #   5 total cpu time :   212.2 secs   av.it.:   9.0
      thresh= 4.848E-08 alpha_mix =  0.700 |ddv_scf|^2 =  4.315E-15

      iter #   6 total cpu time :   214.2 secs   av.it.:   7.9
      thresh= 6.569E-09 alpha_mix =  0.700 |ddv_scf|^2 =  1.731E-18

     End of self-consistent calculation

     Convergence has been achieved 
 
     Number of q in the star =    8
     List of q in the star:
          1  -0.250000000   0.250000000  -0.250000000
          2   0.250000000  -0.250000000  -0.250000000
          3   0.250000000  -0.250000000   0.250000000
          4  -0.250000000   0.250000000   0.250000000
          5   0.250000000   0.250000000  -0.250000000
          6  -0.250000000  -0.250000000  -0.250000000
          7  -0.250000000  -0.250000000   0.250000000
          8   0.250000000   0.250000000   0.250000000

     Diagonalizing the dynamical matrix

     q = (   -0.250000000   0.250000000  -0.250000000 ) 

 **************************************************************************
     freq (    1) =       2.709913 [THz] =      90.392964 [cm-1]
     freq (    2) =       2.709913 [THz] =      90.392964 [cm-1]
     freq (    3) =       7.832430 [THz] =     261.261742 [cm-1]
 **************************************************************************

     Mode symmetry, C_3v (3m)   point group:

     freq (  1 -  2) =         90.4  [cm-1]   --> E    L_3           
     freq (  3 -  3) =        261.3  [cm-1]   --> A_1  L_1           

     Calculation of q =   -0.3750000   0.3750000  -0.3750000
 
     G-vector sticks info
     --------------------
     sticks:   dense  smooth     PW     G-vecs:    dense   smooth      PW
     Sum        1027     511    199                21595     7631    1807
 


     bravais-lattice index     =            2
     lattice parameter (alat)  =       7.8623  a.u.
     unit-cell volume          =     121.5018 (a.u.)^3
     number of atoms/cell      =            1
     number of atomic types    =            1
     number of electrons       =         3.00
     number of Kohn-Sham states=            6
     kinetic-energy cutoff     =      60.0000  Ry
     charge density cutoff     =     480.0000  Ry
     Exchange-correlation      =  SLA  PW   PBX  PBC ( 1  4  3  4 0 0)

     celldm(1)=   7.862262  celldm(2)=   0.000000  celldm(3)=   0.000000
     celldm(4)=   0.000000  celldm(5)=   0.000000  celldm(6)=   0.000000

     crystal axes: (cart. coord. in units of alat)
               a(1) = (  -0.500000   0.000000   0.500000 )  
               a(2) = (   0.000000   0.500000   0.500000 )  
               a(3) = (  -0.500000   0.500000   0.000000 )  

     reciprocal axes: (cart. coord. in units 2 pi/alat)
               b(1) = ( -1.000000 -1.000000  1.000000 )  
               b(2) = (  1.000000  1.000000  1.000000 )  
               b(3) = ( -1.000000  1.000000 -1.000000 )  


     PseudoPot. # 1 for Li read from file:
     ../Li.pbe-s-gbrv14.UPF
     MD5 check sum: 7ca33c4f951f001da2db5c8738379802
     Pseudo is Ultrasoft, Zval =  3.0
     Generated by new atomic code, or converted to UPF format
     Using radial grid of  751 points,  5 beta functions with: 
                l(1) =   0
                l(2) =   0
                l(3) =   0
                l(4) =   1
                l(5) =   1
     Q(r) pseudized with 10 coefficients,  rinner =    1.150   1.150   1.150


     atomic species   valence    mass     pseudopotential
        Li             3.00     6.94100     Li( 1.00)

     48 Sym. Ops., with inversion, found



   Cartesian axes

     site n.     atom                  positions (alat units)
         1           Li  tau(   1) = (   0.0000000   0.0000000   0.0000000  )

     number of k points= 30856  Marzari-Vanderbilt smearing, width (Ry)=  0.0200

     Number of k-points >= 100: set verbosity='high' to print them.

     Dense  grid:    21595 G-vectors     FFT dimensions: (  40,  40,  40)

     Smooth grid:     7631 G-vectors     FFT dimensions: (  27,  27,  27)

     Largest allocated arrays     est. size (Mb)     dimensions
        Kohn-Sham Wavefunctions         0.09 Mb     (     969,    6)
        NL pseudopotentials             0.13 Mb     (     969,    9)
        Each V/rho on FFT grid          0.98 Mb     (   64000)
        Each G-vector array             0.16 Mb     (   21595)
        G-vector shells                 0.00 Mb     (     253)
     Largest temporary arrays     est. size (Mb)     dimensions
        Auxiliary wavefunctions         0.35 Mb     (     969,   24)
        Each subspace H/S matrix        0.01 Mb     (      24,   24)
        Each <psi_i|beta_j> matrix      0.00 Mb     (       9,    6)

     The potential is recalculated from file :
     ./tmp/_ph0/li-fcc.save/charge-density.dat

     Starting wfc are    5 atomic +    1 random wfc

     Band Structure Calculation
     Davidson diagonalization with overlap

     ethr =  3.33E-10,  avg # of iterations = 15.2

     total cpu time spent up to now is       35.2 secs

     End of band structure calculation

     Number of k-points >= 100: set verbosity='high' to print the bands.

     the Fermi energy is     1.3250 ev

                                                                                

     bravais-lattice index     =            2
     lattice parameter (alat)  =       7.8623  a.u.
     unit-cell volume          =     121.5018 (a.u.)^3
     number of atoms/cell      =            1
     number of atomic types    =            1
     kinetic-energy cut-off    =      60.0000  Ry
     charge density cut-off    =     480.0000  Ry
     convergence threshold     =      1.0E-16
     beta                      =       0.7000
     number of iterations used =            4
     Exchange-correlation      =  SLA  PW   PBX  PBC ( 1  4  3  4 0 0)


     celldm(1)=    7.86226  celldm(2)=    0.00000  celldm(3)=    0.00000
     celldm(4)=    0.00000  celldm(5)=    0.00000  celldm(6)=    0.00000

     crystal axes: (cart. coord. in units of alat)
               a(1) = ( -0.5000  0.0000  0.5000 )  
               a(2) = (  0.0000  0.5000  0.5000 )  
               a(3) = ( -0.5000  0.5000  0.0000 )  

     reciprocal axes: (cart. coord. in units 2 pi/alat)
               b(1) = ( -1.0000 -1.0000  1.0000 )  
               b(2) = (  1.0000  1.0000  1.0000 )  
               b(3) = ( -1.0000  1.0000 -1.0000 )  


     Atoms inside the unit cell: 

     Cartesian axes

     site n.  atom      mass           positions (alat units)
        1     Li   6.9410   tau(    1) = (    0.00000    0.00000    0.00000  )

     Computing dynamical matrix for 
                    q = (  -0.3750000   0.3750000  -0.3750000 )
 
      6 Sym.Ops. (no q -> -q+G )


     G cutoff =  751.5823  (  21595 G-vectors)     FFT grid: ( 40, 40, 40)
     G cutoff =  375.7911  (   7631 G-vectors)  smooth grid: ( 27, 27, 27)

     number of k points= 30856  Marzari-Vanderbilt smearing, width (Ry)=  0.0200

     PseudoPot. # 1 for Li read from file:
     ../Li.pbe-s-gbrv14.UPF
     MD5 check sum: 7ca33c4f951f001da2db5c8738379802
     Pseudo is Ultrasoft, Zval =  3.0
     Generated by new atomic code, or converted to UPF format
     Using radial grid of  751 points,  5 beta functions with: 
                l(1) =   0
                l(2) =   0
                l(3) =   0
                l(4) =   1
                l(5) =   1
     Q(r) pseudized with 10 coefficients,  rinner =    1.150   1.150   1.150


     Mode symmetry, C_3v (3m)   point group:


     Atomic displacements:
     There are   2 irreducible representations

     Representation     1      1 modes -A_1  L_1  To be done

     Representation     2      2 modes -E    L_3  To be done



     Alpha used in Ewald sum =   2.8000
     PHONON       :  3m 4.26s CPU     3m45.84s WALL



     Representation #  1 mode #   1

     Self-consistent Calculation

      iter #   1 total cpu time :   226.9 secs   av.it.:   6.4
      thresh= 1.000E-02 alpha_mix =  0.700 |ddv_scf|^2 =  7.231E-05

      iter #   2 total cpu time :   237.7 secs   av.it.:   8.5
      thresh= 8.503E-04 alpha_mix =  0.700 |ddv_scf|^2 =  2.676E-04

      iter #   3 total cpu time :   239.8 secs   av.it.:   7.0
      thresh= 1.636E-03 alpha_mix =  0.700 |ddv_scf|^2 =  6.069E-08

      iter #   4 total cpu time :   240.9 secs   av.it.:   8.7
      thresh= 2.463E-05 alpha_mix =  0.700 |ddv_scf|^2 =  3.329E-09

      iter #   5 total cpu time :   242.1 secs   av.it.:   8.8
      thresh= 5.770E-06 alpha_mix =  0.700 |ddv_scf|^2 =  3.773E-12

      iter #   6 total cpu time :   243.6 secs   av.it.:   9.1
      thresh= 1.943E-07 alpha_mix =  0.700 |ddv_scf|^2 =  2.137E-13

      iter #   7 total cpu time :   244.7 secs   av.it.:   9.0
      thresh= 4.622E-08 alpha_mix =  0.700 |ddv_scf|^2 =  1.045E-15

      iter #   8 total cpu time :   246.5 secs   av.it.:   9.5
      thresh= 3.232E-09 alpha_mix =  0.700 |ddv_scf|^2 =  6.507E-16

      iter #   9 total cpu time :   247.6 secs   av.it.:   8.5
      thresh= 2.551E-09 alpha_mix =  0.700 |ddv_scf|^2 =  8.662E-18

     End of self-consistent calculation

     Convergence has been achieved 


     Representation #  2 modes #   2  3

     Self-consistent Calculation

      iter #   1 total cpu time :   249.7 secs   av.it.:   5.5
      thresh= 1.000E-02 alpha_mix =  0.700 |ddv_scf|^2 =  2.857E-07

      iter #   2 total cpu time :   251.9 secs   av.it.:   9.5
      thresh= 5.345E-05 alpha_mix =  0.700 |ddv_scf|^2 =  1.724E-08

      iter #   3 total cpu time :   260.7 secs   av.it.:   9.7
      thresh= 1.313E-05 alpha_mix =  0.700 |ddv_scf|^2 =  1.446E-10

      iter #   4 total cpu time :   264.3 secs   av.it.:   9.1
      thresh= 1.203E-06 alpha_mix =  0.700 |ddv_scf|^2 =  2.394E-13

      iter #   5 total cpu time :   266.6 secs   av.it.:   9.1
      thresh= 4.892E-08 alpha_mix =  0.700 |ddv_scf|^2 =  4.357E-15

      iter #   6 total cpu time :   269.0 secs   av.it.:   7.7
      thresh= 6.600E-09 alpha_mix =  0.700 |ddv_scf|^2 =  1.323E-18

     End of self-consistent calculation

     Convergence has been achieved 
 
     Number of q in the star =    8
     List of q in the star:
          1  -0.375000000   0.375000000  -0.375000000
          2   0.375000000  -0.375000000  -0.375000000
          3   0.375000000  -0.375000000   0.375000000
          4  -0.375000000   0.375000000   0.375000000
          5   0.375000000   0.375000000  -0.375000000
          6  -0.375000000  -0.375000000  -0.375000000
          7  -0.375000000  -0.375000000   0.375000000
          8   0.375000000   0.375000000   0.375000000

     Diagonalizing the dynamical matrix

     q = (   -0.375000000   0.375000000  -0.375000000 ) 

 **************************************************************************
     freq (    1) =       3.642598 [THz] =     121.504007 [cm-1]
     freq (    2) =       3.642598 [THz] =     121.504007 [cm-1]
     freq (    3) =      10.226992 [THz] =     341.135743 [cm-1]
 **************************************************************************

     Mode symmetry, C_3v (3m)   point group:

     freq (  1 -  2) =        121.5  [cm-1]   --> E    L_3           
     freq (  3 -  3) =        341.1  [cm-1]   --> A_1  L_1           

     Calculation of q =    0.5000000  -0.5000000   0.5000000
 
     G-vector sticks info
     --------------------
     sticks:   dense  smooth     PW     G-vecs:    dense   smooth      PW
     Sum        1027     511    199                21595     7631    1837
 


     bravais-lattice index     =            2
     lattice parameter (alat)  =       7.8623  a.u.
     unit-cell volume          =     121.5018 (a.u.)^3
     number of atoms/cell      =            1
     number of atomic types    =            1
     number of electrons       =         3.00
     number of Kohn-Sham states=            6
     kinetic-energy cutoff     =      60.0000  Ry
     charge density cutoff     =     480.0000  Ry
     Exchange-correlation      =  SLA  PW   PBX  PBC ( 1  4  3  4 0 0)

     celldm(1)=   7.862262  celldm(2)=   0.000000  celldm(3)=   0.000000
     celldm(4)=   0.000000  celldm(5)=   0.000000  celldm(6)=   0.000000

     crystal axes: (cart. coord. in units of alat)
               a(1) = (  -0.500000   0.000000   0.500000 )  
               a(2) = (   0.000000   0.500000   0.500000 )  
               a(3) = (  -0.500000   0.500000   0.000000 )  

     reciprocal axes: (cart. coord. in units 2 pi/alat)
               b(1) = ( -1.000000 -1.000000  1.000000 )  
               b(2) = (  1.000000  1.000000  1.000000 )  
               b(3) = ( -1.000000  1.000000 -1.000000 )  


     PseudoPot. # 1 for Li read from file:
     ../Li.pbe-s-gbrv14.UPF
     MD5 check sum: 7ca33c4f951f001da2db5c8738379802
     Pseudo is Ultrasoft, Zval =  3.0
     Generated by new atomic code, or converted to UPF format
     Using radial grid of  751 points,  5 beta functions with: 
                l(1) =   0
                l(2) =   0
                l(3) =   0
                l(4) =   1
                l(5) =   1
     Q(r) pseudized with 10 coefficients,  rinner =    1.150   1.150   1.150


     atomic species   valence    mass     pseudopotential
        Li             3.00     6.94100     Li( 1.00)

     48 Sym. Ops., with inversion, found



   Cartesian axes

     site n.     atom                  positions (alat units)
         1           Li  tau(   1) = (   0.0000000   0.0000000   0.0000000  )

     number of k points= 15428  Marzari-Vanderbilt smearing, width (Ry)=  0.0200

     Number of k-points >= 100: set verbosity='high' to print them.

     Dense  grid:    21595 G-vectors     FFT dimensions: (  40,  40,  40)

     Smooth grid:     7631 G-vectors     FFT dimensions: (  27,  27,  27)

     Largest allocated arrays     est. size (Mb)     dimensions
        Kohn-Sham Wavefunctions         0.09 Mb     (     968,    6)
        NL pseudopotentials             0.13 Mb     (     968,    9)
        Each V/rho on FFT grid          0.98 Mb     (   64000)
        Each G-vector array             0.16 Mb     (   21595)
        G-vector shells                 0.00 Mb     (     253)
     Largest temporary arrays     est. size (Mb)     dimensions
        Auxiliary wavefunctions         0.35 Mb     (     968,   24)
        Each subspace H/S matrix        0.01 Mb     (      24,   24)
        Each <psi_i|beta_j> matrix      0.00 Mb     (       9,    6)

     The potential is recalculated from file :
     ./tmp/_ph0/li-fcc.save/charge-density.dat

     Starting wfc are    5 atomic +    1 random wfc

     Band Structure Calculation
     Davidson diagonalization with overlap

     ethr =  3.33E-10,  avg # of iterations = 15.2

     total cpu time spent up to now is       40.5 secs

     End of band structure calculation

     Number of k-points >= 100: set verbosity='high' to print the bands.

     the Fermi energy is     1.3250 ev

                                                                                

     bravais-lattice index     =            2
     lattice parameter (alat)  =       7.8623  a.u.
     unit-cell volume          =     121.5018 (a.u.)^3
     number of atoms/cell      =            1
     number of atomic types    =            1
     kinetic-energy cut-off    =      60.0000  Ry
     charge density cut-off    =     480.0000  Ry
     convergence threshold     =      1.0E-16
     beta                      =       0.7000
     number of iterations used =            4
     Exchange-correlation      =  SLA  PW   PBX  PBC ( 1  4  3  4 0 0)


     celldm(1)=    7.86226  celldm(2)=    0.00000  celldm(3)=    0.00000
     celldm(4)=    0.00000  celldm(5)=    0.00000  celldm(6)=    0.00000

     crystal axes: (cart. coord. in units of alat)
               a(1) = ( -0.5000  0.0000  0.5000 )  
               a(2) = (  0.0000  0.5000  0.5000 )  
               a(3) = ( -0.5000  0.5000  0.0000 )  

     reciprocal axes: (cart. coord. in units 2 pi/alat)
               b(1) = ( -1.0000 -1.0000  1.0000 )  
               b(2) = (  1.0000  1.0000  1.0000 )  
               b(3) = ( -1.0000  1.0000 -1.0000 )  


     Atoms inside the unit cell: 

     Cartesian axes

     site n.  atom      mass           positions (alat units)
        1     Li   6.9410   tau(    1) = (    0.00000    0.00000    0.00000  )

     Computing dynamical matrix for 
                    q = (   0.5000000  -0.5000000   0.5000000 )
 
     13 Sym.Ops. (with q -> -q+G )


     G cutoff =  751.5823  (  21595 G-vectors)     FFT grid: ( 40, 40, 40)
     G cutoff =  375.7911  (   7631 G-vectors)  smooth grid: ( 27, 27, 27)

     number of k points= 15428  Marzari-Vanderbilt smearing, width (Ry)=  0.0200

     PseudoPot. # 1 for Li read from file:
     ../Li.pbe-s-gbrv14.UPF
     MD5 check sum: 7ca33c4f951f001da2db5c8738379802
     Pseudo is Ultrasoft, Zval =  3.0
     Generated by new atomic code, or converted to UPF format
     Using radial grid of  751 points,  5 beta functions with: 
                l(1) =   0
                l(2) =   0
                l(3) =   0
                l(4) =   1
                l(5) =   1
     Q(r) pseudized with 10 coefficients,  rinner =    1.150   1.150   1.150


     Mode symmetry, D_3d (-3m)  point group:


     Atomic displacements:
     There are   2 irreducible representations

     Representation     1      1 modes -A_2u L_2'  To be done

     Representation     2      2 modes -E_u  L_3'  To be done



     Alpha used in Ewald sum =   2.8000
     PHONON       :  3m53.96s CPU     4m38.11s WALL



     Representation #  1 mode #   1

     Self-consistent Calculation

      iter #   1 total cpu time :   278.7 secs   av.it.:   6.4
      thresh= 1.000E-02 alpha_mix =  0.700 |ddv_scf|^2 =  1.880E-05

      iter #   2 total cpu time :   280.8 secs   av.it.:   8.7
      thresh= 4.336E-04 alpha_mix =  0.700 |ddv_scf|^2 =  7.943E-06

      iter #   3 total cpu time :   281.4 secs   av.it.:   7.9
      thresh= 2.818E-04 alpha_mix =  0.700 |ddv_scf|^2 =  2.062E-08

      iter #   4 total cpu time :   282.5 secs   av.it.:   8.8
      thresh= 1.436E-05 alpha_mix =  0.700 |ddv_scf|^2 =  1.240E-11

      iter #   5 total cpu time :   283.2 secs   av.it.:   8.2
      thresh= 3.521E-07 alpha_mix =  0.700 |ddv_scf|^2 =  7.651E-13

      iter #   6 total cpu time :   283.8 secs   av.it.:   8.4
      thresh= 8.747E-08 alpha_mix =  0.700 |ddv_scf|^2 =  2.920E-15

      iter #   7 total cpu time :   284.6 secs   av.it.:   8.9
      thresh= 5.404E-09 alpha_mix =  0.700 |ddv_scf|^2 =  2.115E-18

     End of self-consistent calculation

     Convergence has been achieved 


     Representation #  2 modes #   2  3

     Self-consistent Calculation

      iter #   1 total cpu time :   286.0 secs   av.it.:   5.4
      thresh= 1.000E-02 alpha_mix =  0.700 |ddv_scf|^2 =  2.880E-07

      iter #   2 total cpu time :   287.3 secs   av.it.:   9.3
      thresh= 5.367E-05 alpha_mix =  0.700 |ddv_scf|^2 =  1.732E-08

      iter #   3 total cpu time :   290.2 secs   av.it.:   9.6
      thresh= 1.316E-05 alpha_mix =  0.700 |ddv_scf|^2 =  1.489E-10

      iter #   4 total cpu time :   292.9 secs   av.it.:   8.9
      thresh= 1.220E-06 alpha_mix =  0.700 |ddv_scf|^2 =  2.399E-13

      iter #   5 total cpu time :   294.2 secs   av.it.:   9.0
      thresh= 4.898E-08 alpha_mix =  0.700 |ddv_scf|^2 =  4.313E-15

      iter #   6 total cpu time :   304.3 secs   av.it.:   7.9
      thresh= 6.567E-09 alpha_mix =  0.700 |ddv_scf|^2 =  9.422E-19

     End of self-consistent calculation

     Convergence has been achieved 
 
     Number of q in the star =    4
     List of q in the star:
          1   0.500000000  -0.500000000   0.500000000
          2   0.500000000   0.500000000   0.500000000
          3  -0.500000000   0.500000000   0.500000000
          4   0.500000000   0.500000000  -0.500000000

     Diagonalizing the dynamical matrix

     q = (    0.500000000  -0.500000000   0.500000000 ) 

 **************************************************************************
     freq (    1) =       4.002129 [THz] =     133.496646 [cm-1]
     freq (    2) =       4.002129 [THz] =     133.496646 [cm-1]
     freq (    3) =      11.018065 [THz] =     367.523094 [cm-1]
 **************************************************************************

     Mode symmetry, D_3d (-3m)  point group:

     freq (  1 -  2) =        133.5  [cm-1]   --> E_u  L_3'          
     freq (  3 -  3) =        367.5  [cm-1]   --> A_2u L_2'          

     Calculation of q =    0.0000000   0.2500000   0.0000000
 
     G-vector sticks info
     --------------------
     sticks:   dense  smooth     PW     G-vecs:    dense   smooth      PW
     Sum        1027     511    187                21595     7631    1639
 


     bravais-lattice index     =            2
     lattice parameter (alat)  =       7.8623  a.u.
     unit-cell volume          =     121.5018 (a.u.)^3
     number of atoms/cell      =            1
     number of atomic types    =            1
     number of electrons       =         3.00
     number of Kohn-Sham states=            6
     kinetic-energy cutoff     =      60.0000  Ry
     charge density cutoff     =     480.0000  Ry
     Exchange-correlation      =  SLA  PW   PBX  PBC ( 1  4  3  4 0 0)

     celldm(1)=   7.862262  celldm(2)=   0.000000  celldm(3)=   0.000000
     celldm(4)=   0.000000  celldm(5)=   0.000000  celldm(6)=   0.000000

     crystal axes: (cart. coord. in units of alat)
               a(1) = (  -0.500000   0.000000   0.500000 )  
               a(2) = (   0.000000   0.500000   0.500000 )  
               a(3) = (  -0.500000   0.500000   0.000000 )  

     reciprocal axes: (cart. coord. in units 2 pi/alat)
               b(1) = ( -1.000000 -1.000000  1.000000 )  
               b(2) = (  1.000000  1.000000  1.000000 )  
               b(3) = ( -1.000000  1.000000 -1.000000 )  


     PseudoPot. # 1 for Li read from file:
     ../Li.pbe-s-gbrv14.UPF
     MD5 check sum: 7ca33c4f951f001da2db5c8738379802
     Pseudo is Ultrasoft, Zval =  3.0
     Generated by new atomic code, or converted to UPF format
     Using radial grid of  751 points,  5 beta functions with: 
                l(1) =   0
                l(2) =   0
                l(3) =   0
                l(4) =   1
                l(5) =   1
     Q(r) pseudized with 10 coefficients,  rinner =    1.150   1.150   1.150


     atomic species   valence    mass     pseudopotential
        Li             3.00     6.94100     Li( 1.00)

     48 Sym. Ops., with inversion, found



   Cartesian axes

     site n.     atom                  positions (alat units)
         1           Li  tau(   1) = (   0.0000000   0.0000000   0.0000000  )

     number of k points= 22736  Marzari-Vanderbilt smearing, width (Ry)=  0.0200

     Number of k-points >= 100: set verbosity='high' to print them.

     Dense  grid:    21595 G-vectors     FFT dimensions: (  40,  40,  40)

     Smooth grid:     7631 G-vectors     FFT dimensions: (  27,  27,  27)

     Largest allocated arrays     est. size (Mb)     dimensions
        Kohn-Sham Wavefunctions         0.09 Mb     (     968,    6)
        NL pseudopotentials             0.13 Mb     (     968,    9)
        Each V/rho on FFT grid          0.98 Mb     (   64000)
        Each G-vector array             0.16 Mb     (   21595)
        G-vector shells                 0.00 Mb     (     253)
     Largest temporary arrays     est. size (Mb)     dimensions
        Auxiliary wavefunctions         0.35 Mb     (     968,   24)
        Each subspace H/S matrix        0.01 Mb     (      24,   24)
        Each <psi_i|beta_j> matrix      0.00 Mb     (       9,    6)

     The potential is recalculated from file :
     ./tmp/_ph0/li-fcc.save/charge-density.dat

     Starting wfc are    5 atomic +    1 random wfc

     Band Structure Calculation
     Davidson diagonalization with overlap

     ethr =  3.33E-10,  avg # of iterations = 15.2

     total cpu time spent up to now is       47.9 secs

     End of band structure calculation

     Number of k-points >= 100: set verbosity='high' to print the bands.

     the Fermi energy is     1.3250 ev

                                                                                

     bravais-lattice index     =            2
     lattice parameter (alat)  =       7.8623  a.u.
     unit-cell volume          =     121.5018 (a.u.)^3
     number of atoms/cell      =            1
     number of atomic types    =            1
     kinetic-energy cut-off    =      60.0000  Ry
     charge density cut-off    =     480.0000  Ry
     convergence threshold     =      1.0E-16
     beta                      =       0.7000
     number of iterations used =            4
     Exchange-correlation      =  SLA  PW   PBX  PBC ( 1  4  3  4 0 0)


     celldm(1)=    7.86226  celldm(2)=    0.00000  celldm(3)=    0.00000
     celldm(4)=    0.00000  celldm(5)=    0.00000  celldm(6)=    0.00000

     crystal axes: (cart. coord. in units of alat)
               a(1) = ( -0.5000  0.0000  0.5000 )  
               a(2) = (  0.0000  0.5000  0.5000 )  
               a(3) = ( -0.5000  0.5000  0.0000 )  

     reciprocal axes: (cart. coord. in units 2 pi/alat)
               b(1) = ( -1.0000 -1.0000  1.0000 )  
               b(2) = (  1.0000  1.0000  1.0000 )  
               b(3) = ( -1.0000  1.0000 -1.0000 )  


     Atoms inside the unit cell: 

     Cartesian axes

     site n.  atom      mass           positions (alat units)
        1     Li   6.9410   tau(    1) = (    0.00000    0.00000    0.00000  )

     Computing dynamical matrix for 
                    q = (   0.0000000   0.2500000   0.0000000 )
 
      8 Sym.Ops. (no q -> -q+G )


     G cutoff =  751.5823  (  21595 G-vectors)     FFT grid: ( 40, 40, 40)
     G cutoff =  375.7911  (   7631 G-vectors)  smooth grid: ( 27, 27, 27)

     number of k points= 22736  Marzari-Vanderbilt smearing, width (Ry)=  0.0200

     PseudoPot. # 1 for Li read from file:
     ../Li.pbe-s-gbrv14.UPF
     MD5 check sum: 7ca33c4f951f001da2db5c8738379802
     Pseudo is Ultrasoft, Zval =  3.0
     Generated by new atomic code, or converted to UPF format
     Using radial grid of  751 points,  5 beta functions with: 
                l(1) =   0
                l(2) =   0
                l(3) =   0
                l(4) =   1
                l(5) =   1
     Q(r) pseudized with 10 coefficients,  rinner =    1.150   1.150   1.150


     Mode symmetry, C_4v (4mm)  point group:


     Atomic displacements:
     There are   2 irreducible representations

     Representation     1      1 modes -A_1  G_1 D_1  To be done

     Representation     2      2 modes -E    G_5 D_5  To be done



     Alpha used in Ewald sum =   2.8000
     PHONON       :  4m57.45s CPU     5m44.79s WALL



     Representation #  1 mode #   1

     Self-consistent Calculation

      iter #   1 total cpu time :   345.6 secs   av.it.:   6.5
      thresh= 1.000E-02 alpha_mix =  0.700 |ddv_scf|^2 =  3.912E-02

      iter #   2 total cpu time :   348.3 secs   av.it.:   7.8
      thresh= 1.000E-02 alpha_mix =  0.700 |ddv_scf|^2 =  1.907E+01

      iter #   3 total cpu time :   349.2 secs   av.it.:   7.7
      thresh= 1.000E-02 alpha_mix =  0.700 |ddv_scf|^2 =  7.765E-05

      iter #   4 total cpu time :   351.9 secs   av.it.:   6.1
      thresh= 8.812E-04 alpha_mix =  0.700 |ddv_scf|^2 =  3.139E-08

      iter #   5 total cpu time :   352.8 secs   av.it.:   8.5
      thresh= 1.772E-05 alpha_mix =  0.700 |ddv_scf|^2 =  1.420E-10

      iter #   6 total cpu time :   354.8 secs   av.it.:   8.4
      thresh= 1.192E-06 alpha_mix =  0.700 |ddv_scf|^2 =  2.553E-11

      iter #   7 total cpu time :   357.6 secs   av.it.:   7.9
      thresh= 5.053E-07 alpha_mix =  0.700 |ddv_scf|^2 =  3.368E-09

      iter #   8 total cpu time :   361.5 secs   av.it.:   5.0
      thresh= 5.804E-06 alpha_mix =  0.700 |ddv_scf|^2 =  8.263E-14

      iter #   9 total cpu time :   363.2 secs   av.it.:   8.1
      thresh= 2.875E-08 alpha_mix =  0.700 |ddv_scf|^2 =  1.648E-15

      iter #  10 total cpu time :   364.8 secs   av.it.:   8.6
      thresh= 4.059E-09 alpha_mix =  0.700 |ddv_scf|^2 =  1.271E-14

      iter #  11 total cpu time :   366.4 secs   av.it.:   5.7
      thresh= 1.127E-08 alpha_mix =  0.700 |ddv_scf|^2 =  3.196E-17

     End of self-consistent calculation

     Convergence has been achieved 


     Representation #  2 modes #   2  3

     Self-consistent Calculation

      iter #   1 total cpu time :   371.2 secs   av.it.:   5.5
      thresh= 1.000E-02 alpha_mix =  0.700 |ddv_scf|^2 =  2.816E-07

      iter #   2 total cpu time :   373.5 secs   av.it.:   9.3
      thresh= 5.307E-05 alpha_mix =  0.700 |ddv_scf|^2 =  1.698E-08

      iter #   3 total cpu time :   376.9 secs   av.it.:   9.5
      thresh= 1.303E-05 alpha_mix =  0.700 |ddv_scf|^2 =  1.468E-10

      iter #   4 total cpu time :   381.7 secs   av.it.:   8.9
      thresh= 1.212E-06 alpha_mix =  0.700 |ddv_scf|^2 =  2.174E-13

      iter #   5 total cpu time :   384.1 secs   av.it.:   8.9
      thresh= 4.662E-08 alpha_mix =  0.700 |ddv_scf|^2 =  4.326E-15

      iter #   6 total cpu time :   385.7 secs   av.it.:   7.9
      thresh= 6.577E-09 alpha_mix =  0.700 |ddv_scf|^2 =  2.167E-18

     End of self-consistent calculation

     Convergence has been achieved 
 
     Number of q in the star =    6
     List of q in the star:
          1   0.000000000   0.250000000   0.000000000
          2   0.000000000  -0.250000000   0.000000000
          3   0.250000000   0.000000000   0.000000000
          4   0.000000000   0.000000000   0.250000000
          5   0.000000000   0.000000000  -0.250000000
          6  -0.250000000   0.000000000   0.000000000

     Diagonalizing the dynamical matrix

     q = (    0.000000000   0.250000000   0.000000000 ) 

 **************************************************************************
     freq (    1) =       2.524516 [THz] =      84.208795 [cm-1]
     freq (    2) =       2.524516 [THz] =      84.208795 [cm-1]
     freq (    3) =       3.583199 [THz] =     119.522649 [cm-1]
 **************************************************************************

     Mode symmetry, C_4v (4mm)  point group:

     freq (  1 -  2) =         84.2  [cm-1]   --> E    G_5 D_5       
     freq (  3 -  3) =        119.5  [cm-1]   --> A_1  G_1 D_1       

     Calculation of q =   -0.1250000   0.3750000  -0.1250000
 
     G-vector sticks info
     --------------------
     sticks:   dense  smooth     PW     G-vecs:    dense   smooth      PW
     Sum        1027     511    187                21595     7631    1687
 


     bravais-lattice index     =            2
     lattice parameter (alat)  =       7.8623  a.u.
     unit-cell volume          =     121.5018 (a.u.)^3
     number of atoms/cell      =            1
     number of atomic types    =            1
     number of electrons       =         3.00
     number of Kohn-Sham states=            6
     kinetic-energy cutoff     =      60.0000  Ry
     charge density cutoff     =     480.0000  Ry
     Exchange-correlation      =  SLA  PW   PBX  PBC ( 1  4  3  4 0 0)

     celldm(1)=   7.862262  celldm(2)=   0.000000  celldm(3)=   0.000000
     celldm(4)=   0.000000  celldm(5)=   0.000000  celldm(6)=   0.000000

     crystal axes: (cart. coord. in units of alat)
               a(1) = (  -0.500000   0.000000   0.500000 )  
               a(2) = (   0.000000   0.500000   0.500000 )  
               a(3) = (  -0.500000   0.500000   0.000000 )  

     reciprocal axes: (cart. coord. in units 2 pi/alat)
               b(1) = ( -1.000000 -1.000000  1.000000 )  
               b(2) = (  1.000000  1.000000  1.000000 )  
               b(3) = ( -1.000000  1.000000 -1.000000 )  


     PseudoPot. # 1 for Li read from file:
     ../Li.pbe-s-gbrv14.UPF
     MD5 check sum: 7ca33c4f951f001da2db5c8738379802
     Pseudo is Ultrasoft, Zval =  3.0
     Generated by new atomic code, or converted to UPF format
     Using radial grid of  751 points,  5 beta functions with: 
                l(1) =   0
                l(2) =   0
                l(3) =   0
                l(4) =   1
                l(5) =   1
     Q(r) pseudized with 10 coefficients,  rinner =    1.150   1.150   1.150


     atomic species   valence    mass     pseudopotential
        Li             3.00     6.94100     Li( 1.00)

     48 Sym. Ops., with inversion, found



   Cartesian axes

     site n.     atom                  positions (alat units)
         1           Li  tau(   1) = (   0.0000000   0.0000000   0.0000000  )

     number of k points= 89376  Marzari-Vanderbilt smearing, width (Ry)=  0.0200

     Number of k-points >= 100: set verbosity='high' to print them.

     Dense  grid:    21595 G-vectors     FFT dimensions: (  40,  40,  40)

     Smooth grid:     7631 G-vectors     FFT dimensions: (  27,  27,  27)

     Largest allocated arrays     est. size (Mb)     dimensions
        Kohn-Sham Wavefunctions         0.09 Mb     (     969,    6)
        NL pseudopotentials             0.13 Mb     (     969,    9)
        Each V/rho on FFT grid          0.98 Mb     (   64000)
        Each G-vector array             0.16 Mb     (   21595)
        G-vector shells                 0.00 Mb     (     253)
     Largest temporary arrays     est. size (Mb)     dimensions
        Auxiliary wavefunctions         0.35 Mb     (     969,   24)
        Each subspace H/S matrix        0.01 Mb     (      24,   24)
        Each <psi_i|beta_j> matrix      0.00 Mb     (       9,    6)

     The potential is recalculated from file :
     ./tmp/_ph0/li-fcc.save/charge-density.dat

     Starting wfc are    5 atomic +    1 random wfc

     Band Structure Calculation
     Davidson diagonalization with overlap

     ethr =  3.33E-10,  avg # of iterations = 15.1

     total cpu time spent up to now is       77.4 secs

     End of band structure calculation

     Number of k-points >= 100: set verbosity='high' to print the bands.

     the Fermi energy is     1.3250 ev

                                                                                

     bravais-lattice index     =            2
     lattice parameter (alat)  =       7.8623  a.u.
     unit-cell volume          =     121.5018 (a.u.)^3
     number of atoms/cell      =            1
     number of atomic types    =            1
     kinetic-energy cut-off    =      60.0000  Ry
     charge density cut-off    =     480.0000  Ry
     convergence threshold     =      1.0E-16
     beta                      =       0.7000
     number of iterations used =            4
     Exchange-correlation      =  SLA  PW   PBX  PBC ( 1  4  3  4 0 0)


     celldm(1)=    7.86226  celldm(2)=    0.00000  celldm(3)=    0.00000
     celldm(4)=    0.00000  celldm(5)=    0.00000  celldm(6)=    0.00000

     crystal axes: (cart. coord. in units of alat)
               a(1) = ( -0.5000  0.0000  0.5000 )  
               a(2) = (  0.0000  0.5000  0.5000 )  
               a(3) = ( -0.5000  0.5000  0.0000 )  

     reciprocal axes: (cart. coord. in units 2 pi/alat)
               b(1) = ( -1.0000 -1.0000  1.0000 )  
               b(2) = (  1.0000  1.0000  1.0000 )  
               b(3) = ( -1.0000  1.0000 -1.0000 )  


     Atoms inside the unit cell: 

     Cartesian axes

     site n.  atom      mass           positions (alat units)
        1     Li   6.9410   tau(    1) = (    0.00000    0.00000    0.00000  )

     Computing dynamical matrix for 
                    q = (  -0.1250000   0.3750000  -0.1250000 )
 
      2 Sym.Ops. (no q -> -q+G )


     G cutoff =  751.5823  (  21595 G-vectors)     FFT grid: ( 40, 40, 40)
     G cutoff =  375.7911  (   7631 G-vectors)  smooth grid: ( 27, 27, 27)

     number of k points= 89376  Marzari-Vanderbilt smearing, width (Ry)=  0.0200

     PseudoPot. # 1 for Li read from file:
     ../Li.pbe-s-gbrv14.UPF
     MD5 check sum: 7ca33c4f951f001da2db5c8738379802
     Pseudo is Ultrasoft, Zval =  3.0
     Generated by new atomic code, or converted to UPF format
     Using radial grid of  751 points,  5 beta functions with: 
                l(1) =   0
                l(2) =   0
                l(3) =   0
                l(4) =   1
                l(5) =   1
     Q(r) pseudized with 10 coefficients,  rinner =    1.150   1.150   1.150


     Mode symmetry, C_s (m)     point group:


     Atomic displacements:
     There are   3 irreducible representations

     Representation     1      1 modes -A'  To be done

     Representation     2      1 modes -A'  To be done

     Representation     3      1 modes -A''  To be done



     Alpha used in Ewald sum =   2.8000
     PHONON       :  6m12.46s CPU     7m 4.65s WALL



     Representation #  1 mode #   1

     Self-consistent Calculation

      iter #   1 total cpu time :   427.4 secs   av.it.:   6.5
      thresh= 1.000E-02 alpha_mix =  0.700 |ddv_scf|^2 =  1.302E-03

      iter #   2 total cpu time :   430.2 secs   av.it.:   7.8
      thresh= 3.608E-03 alpha_mix =  0.700 |ddv_scf|^2 =  6.028E-02

      iter #   3 total cpu time :   434.4 secs   av.it.:   6.5
      thresh= 1.000E-02 alpha_mix =  0.700 |ddv_scf|^2 =  1.007E-07

      iter #   4 total cpu time :   443.0 secs   av.it.:   9.0
      thresh= 3.174E-05 alpha_mix =  0.700 |ddv_scf|^2 =  6.213E-09

      iter #   5 total cpu time :   454.5 secs   av.it.:   9.0
      thresh= 7.882E-06 alpha_mix =  0.700 |ddv_scf|^2 =  9.883E-11

      iter #   6 total cpu time :   458.2 secs   av.it.:   8.7
      thresh= 9.941E-07 alpha_mix =  0.700 |ddv_scf|^2 =  7.437E-12

      iter #   7 total cpu time :   461.6 secs   av.it.:   6.9
      thresh= 2.727E-07 alpha_mix =  0.700 |ddv_scf|^2 =  8.076E-12

      iter #   8 total cpu time :   464.3 secs   av.it.:   7.3
      thresh= 2.842E-07 alpha_mix =  0.700 |ddv_scf|^2 =  3.120E-14

      iter #   9 total cpu time :   467.3 secs   av.it.:   9.1
      thresh= 1.766E-08 alpha_mix =  0.700 |ddv_scf|^2 =  8.123E-15

      iter #  10 total cpu time :   469.8 secs   av.it.:   7.6
      thresh= 9.012E-09 alpha_mix =  0.700 |ddv_scf|^2 =  5.820E-16

      iter #  11 total cpu time :   472.4 secs   av.it.:   7.9
      thresh= 2.412E-09 alpha_mix =  0.700 |ddv_scf|^2 =  7.966E-19

     End of self-consistent calculation

     Convergence has been achieved 


     Representation #  2 mode #   2

     Self-consistent Calculation

      iter #   1 total cpu time :   475.6 secs   av.it.:   6.2
      thresh= 1.000E-02 alpha_mix =  0.700 |ddv_scf|^2 =  1.975E-04

      iter #   2 total cpu time :   478.4 secs   av.it.:   7.9
      thresh= 1.405E-03 alpha_mix =  0.700 |ddv_scf|^2 =  9.094E-03

      iter #   3 total cpu time :   480.6 secs   av.it.:   5.7
      thresh= 9.536E-03 alpha_mix =  0.700 |ddv_scf|^2 =  5.692E-08

      iter #   4 total cpu time :   485.0 secs   av.it.:   9.2
      thresh= 2.386E-05 alpha_mix =  0.700 |ddv_scf|^2 =  3.115E-09

      iter #   5 total cpu time :   489.4 secs   av.it.:   9.0
      thresh= 5.581E-06 alpha_mix =  0.700 |ddv_scf|^2 =  5.296E-11

      iter #   6 total cpu time :   499.3 secs   av.it.:   8.8
      thresh= 7.278E-07 alpha_mix =  0.700 |ddv_scf|^2 =  2.724E-12

      iter #   7 total cpu time :   508.5 secs   av.it.:   7.9
      thresh= 1.650E-07 alpha_mix =  0.700 |ddv_scf|^2 =  2.903E-11

      iter #   8 total cpu time :   515.7 secs   av.it.:   6.5
      thresh= 5.388E-07 alpha_mix =  0.700 |ddv_scf|^2 =  1.356E-12

      iter #   9 total cpu time :   521.1 secs   av.it.:   6.4
      thresh= 1.164E-07 alpha_mix =  0.700 |ddv_scf|^2 =  3.650E-13

      iter #  10 total cpu time :   524.3 secs   av.it.:   7.6
      thresh= 6.042E-08 alpha_mix =  0.700 |ddv_scf|^2 =  1.254E-16

      iter #  11 total cpu time :   528.7 secs   av.it.:   9.1
      thresh= 1.120E-09 alpha_mix =  0.700 |ddv_scf|^2 =  9.872E-18

     End of self-consistent calculation

     Convergence has been achieved 


     Representation #  3 mode #   3

     Self-consistent Calculation

      iter #   1 total cpu time :   532.2 secs   av.it.:   5.5
      thresh= 1.000E-02 alpha_mix =  0.700 |ddv_scf|^2 =  1.167E-06

      iter #   2 total cpu time :   538.1 secs   av.it.:   8.6
      thresh= 1.080E-04 alpha_mix =  0.700 |ddv_scf|^2 =  6.939E-08

      iter #   3 total cpu time :   549.8 secs   av.it.:   8.9
      thresh= 2.634E-05 alpha_mix =  0.700 |ddv_scf|^2 =  8.224E-10

      iter #   4 total cpu time :   553.4 secs   av.it.:   8.2
      thresh= 2.868E-06 alpha_mix =  0.700 |ddv_scf|^2 =  9.094E-13

      iter #   5 total cpu time :   561.9 secs   av.it.:   8.4
      thresh= 9.536E-08 alpha_mix =  0.700 |ddv_scf|^2 =  1.834E-14

      iter #   6 total cpu time :   568.1 secs   av.it.:   7.7
      thresh= 1.354E-08 alpha_mix =  0.700 |ddv_scf|^2 =  1.590E-17

     End of self-consistent calculation

     Convergence has been achieved 
 
     Number of q in the star =   24
     List of q in the star:
          1  -0.125000000   0.375000000  -0.125000000
          2  -0.125000000   0.375000000   0.125000000
          3   0.125000000   0.375000000  -0.125000000
          4   0.125000000   0.375000000   0.125000000
          5   0.125000000  -0.375000000   0.125000000
          6   0.375000000  -0.125000000   0.125000000
          7   0.125000000  -0.125000000   0.375000000
          8  -0.125000000  -0.375000000  -0.125000000
          9   0.125000000  -0.375000000  -0.125000000
         10  -0.125000000  -0.375000000   0.125000000
         11   0.125000000  -0.125000000  -0.375000000
         12   0.375000000  -0.125000000  -0.125000000
         13  -0.375000000  -0.125000000   0.125000000
         14   0.375000000   0.125000000   0.125000000
         15  -0.125000000  -0.125000000   0.375000000
         16   0.125000000   0.125000000   0.375000000
         17  -0.375000000   0.125000000  -0.125000000
         18  -0.125000000   0.125000000  -0.375000000
         19  -0.375000000  -0.125000000  -0.125000000
         20   0.125000000   0.125000000  -0.375000000
         21   0.375000000   0.125000000  -0.125000000
         22  -0.125000000  -0.125000000  -0.375000000
         23  -0.375000000   0.125000000   0.125000000
         24  -0.125000000   0.125000000   0.375000000

     Diagonalizing the dynamical matrix

     q = (   -0.125000000   0.375000000  -0.125000000 ) 

 **************************************************************************
     freq (    1) =       3.666222 [THz] =     122.292000 [cm-1]
     freq (    2) =       3.694930 [THz] =     123.249607 [cm-1]
     freq (    3) =       6.746227 [THz] =     225.029927 [cm-1]
 **************************************************************************

     Mode symmetry, C_s (m)     point group:

     freq (  1 -  1) =        122.3  [cm-1]   --> A''                
     freq (  2 -  2) =        123.2  [cm-1]   --> A'                 
     freq (  3 -  3) =        225.0  [cm-1]   --> A'                 

     Calculation of q =   -0.2500000   0.5000000  -0.2500000
 
     G-vector sticks info
     --------------------
     sticks:   dense  smooth     PW     G-vecs:    dense   smooth      PW
     Sum        1027     511    199                21595     7631    1807
 


     bravais-lattice index     =            2
     lattice parameter (alat)  =       7.8623  a.u.
     unit-cell volume          =     121.5018 (a.u.)^3
     number of atoms/cell      =            1
     number of atomic types    =            1
     number of electrons       =         3.00
     number of Kohn-Sham states=            6
     kinetic-energy cutoff     =      60.0000  Ry
     charge density cutoff     =     480.0000  Ry
     Exchange-correlation      =  SLA  PW   PBX  PBC ( 1  4  3  4 0 0)

     celldm(1)=   7.862262  celldm(2)=   0.000000  celldm(3)=   0.000000
     celldm(4)=   0.000000  celldm(5)=   0.000000  celldm(6)=   0.000000

     crystal axes: (cart. coord. in units of alat)
               a(1) = (  -0.500000   0.000000   0.500000 )  
               a(2) = (   0.000000   0.500000   0.500000 )  
               a(3) = (  -0.500000   0.500000   0.000000 )  

     reciprocal axes: (cart. coord. in units 2 pi/alat)
               b(1) = ( -1.000000 -1.000000  1.000000 )  
               b(2) = (  1.000000  1.000000  1.000000 )  
               b(3) = ( -1.000000  1.000000 -1.000000 )  


     PseudoPot. # 1 for Li read from file:
     ../Li.pbe-s-gbrv14.UPF
     MD5 check sum: 7ca33c4f951f001da2db5c8738379802
     Pseudo is Ultrasoft, Zval =  3.0
     Generated by new atomic code, or converted to UPF format
     Using radial grid of  751 points,  5 beta functions with: 
                l(1) =   0
                l(2) =   0
                l(3) =   0
                l(4) =   1
                l(5) =   1
     Q(r) pseudized with 10 coefficients,  rinner =    1.150   1.150   1.150


     atomic species   valence    mass     pseudopotential
        Li             3.00     6.94100     Li( 1.00)

     48 Sym. Ops., with inversion, found



   Cartesian axes

     site n.     atom                  positions (alat units)
         1           Li  tau(   1) = (   0.0000000   0.0000000   0.0000000  )

     number of k points= 89376  Marzari-Vanderbilt smearing, width (Ry)=  0.0200

     Number of k-points >= 100: set verbosity='high' to print them.

     Dense  grid:    21595 G-vectors     FFT dimensions: (  40,  40,  40)

     Smooth grid:     7631 G-vectors     FFT dimensions: (  27,  27,  27)

     Largest allocated arrays     est. size (Mb)     dimensions
        Kohn-Sham Wavefunctions         0.09 Mb     (     968,    6)
        NL pseudopotentials             0.13 Mb     (     968,    9)
        Each V/rho on FFT grid          0.98 Mb     (   64000)
        Each G-vector array             0.16 Mb     (   21595)
        G-vector shells                 0.00 Mb     (     253)
     Largest temporary arrays     est. size (Mb)     dimensions
        Auxiliary wavefunctions         0.35 Mb     (     968,   24)
        Each subspace H/S matrix        0.01 Mb     (      24,   24)
        Each <psi_i|beta_j> matrix      0.00 Mb     (       9,    6)

     The potential is recalculated from file :
     ./tmp/_ph0/li-fcc.save/charge-density.dat

     Starting wfc are    5 atomic +    1 random wfc

     Band Structure Calculation
     Davidson diagonalization with overlap

     ethr =  3.33E-10,  avg # of iterations = 15.2

     total cpu time spent up to now is      101.5 secs

     End of band structure calculation

     Number of k-points >= 100: set verbosity='high' to print the bands.

     the Fermi energy is     1.3250 ev

                                                                                

     bravais-lattice index     =            2
     lattice parameter (alat)  =       7.8623  a.u.
     unit-cell volume          =     121.5018 (a.u.)^3
     number of atoms/cell      =            1
     number of atomic types    =            1
     kinetic-energy cut-off    =      60.0000  Ry
     charge density cut-off    =     480.0000  Ry
     convergence threshold     =      1.0E-16
     beta                      =       0.7000
     number of iterations used =            4
     Exchange-correlation      =  SLA  PW   PBX  PBC ( 1  4  3  4 0 0)


     celldm(1)=    7.86226  celldm(2)=    0.00000  celldm(3)=    0.00000
     celldm(4)=    0.00000  celldm(5)=    0.00000  celldm(6)=    0.00000

     crystal axes: (cart. coord. in units of alat)
               a(1) = ( -0.5000  0.0000  0.5000 )  
               a(2) = (  0.0000  0.5000  0.5000 )  
               a(3) = ( -0.5000  0.5000  0.0000 )  

     reciprocal axes: (cart. coord. in units 2 pi/alat)
               b(1) = ( -1.0000 -1.0000  1.0000 )  
               b(2) = (  1.0000  1.0000  1.0000 )  
               b(3) = ( -1.0000  1.0000 -1.0000 )  


     Atoms inside the unit cell: 

     Cartesian axes

     site n.  atom      mass           positions (alat units)
        1     Li   6.9410   tau(    1) = (    0.00000    0.00000    0.00000  )

     Computing dynamical matrix for 
                    q = (  -0.2500000   0.5000000  -0.2500000 )
 
      2 Sym.Ops. (no q -> -q+G )


     G cutoff =  751.5823  (  21595 G-vectors)     FFT grid: ( 40, 40, 40)
     G cutoff =  375.7911  (   7631 G-vectors)  smooth grid: ( 27, 27, 27)

     number of k points= 89376  Marzari-Vanderbilt smearing, width (Ry)=  0.0200

     PseudoPot. # 1 for Li read from file:
     ../Li.pbe-s-gbrv14.UPF
     MD5 check sum: 7ca33c4f951f001da2db5c8738379802
     Pseudo is Ultrasoft, Zval =  3.0
     Generated by new atomic code, or converted to UPF format
     Using radial grid of  751 points,  5 beta functions with: 
                l(1) =   0
                l(2) =   0
                l(3) =   0
                l(4) =   1
                l(5) =   1
     Q(r) pseudized with 10 coefficients,  rinner =    1.150   1.150   1.150


     Mode symmetry, C_s (m)     point group:


     Atomic displacements:
     There are   3 irreducible representations

     Representation     1      1 modes -A'  To be done

     Representation     2      1 modes -A'  To be done

     Representation     3      1 modes -A''  To be done



     Alpha used in Ewald sum =   2.8000
     PHONON       :  9m 9.33s CPU    10m 6.89s WALL



     Representation #  1 mode #   1

     Self-consistent Calculation

      iter #   1 total cpu time :   609.6 secs   av.it.:   6.5
      thresh= 1.000E-02 alpha_mix =  0.700 |ddv_scf|^2 =  8.868E-05

      iter #   2 total cpu time :   618.6 secs   av.it.:   8.3
      thresh= 9.417E-04 alpha_mix =  0.700 |ddv_scf|^2 =  5.048E-04

      iter #   3 total cpu time :   638.5 secs   av.it.:   6.9
      thresh= 2.247E-03 alpha_mix =  0.700 |ddv_scf|^2 =  5.507E-08

      iter #   4 total cpu time :   649.4 secs   av.it.:   9.0
      thresh= 2.347E-05 alpha_mix =  0.700 |ddv_scf|^2 =  1.354E-09

      iter #   5 total cpu time :   653.8 secs   av.it.:   9.1
      thresh= 3.679E-06 alpha_mix =  0.700 |ddv_scf|^2 =  2.007E-11

      iter #   6 total cpu time :   656.6 secs   av.it.:   8.9
      thresh= 4.480E-07 alpha_mix =  0.700 |ddv_scf|^2 =  1.488E-13

      iter #   7 total cpu time :   661.6 secs   av.it.:   9.2
      thresh= 3.858E-08 alpha_mix =  0.700 |ddv_scf|^2 =  2.895E-13

      iter #   8 total cpu time :   665.8 secs   av.it.:   7.1
      thresh= 5.381E-08 alpha_mix =  0.700 |ddv_scf|^2 =  5.416E-15

      iter #   9 total cpu time :   669.1 secs   av.it.:   9.0
      thresh= 7.359E-09 alpha_mix =  0.700 |ddv_scf|^2 =  6.035E-18

     End of self-consistent calculation

     Convergence has been achieved 


     Representation #  2 mode #   2

     Self-consistent Calculation

      iter #   1 total cpu time :   673.5 secs   av.it.:   6.3
      thresh= 1.000E-02 alpha_mix =  0.700 |ddv_scf|^2 =  2.342E-05

      iter #   2 total cpu time :   676.6 secs   av.it.:   8.7
      thresh= 4.840E-04 alpha_mix =  0.700 |ddv_scf|^2 =  1.250E-04

      iter #   3 total cpu time :   682.8 secs   av.it.:   7.0
      thresh= 1.118E-03 alpha_mix =  0.700 |ddv_scf|^2 =  5.559E-08

      iter #   4 total cpu time :   687.5 secs   av.it.:   9.0
      thresh= 2.358E-05 alpha_mix =  0.700 |ddv_scf|^2 =  1.823E-09

      iter #   5 total cpu time :   690.3 secs   av.it.:   8.9
      thresh= 4.270E-06 alpha_mix =  0.700 |ddv_scf|^2 =  1.823E-11

      iter #   6 total cpu time :   694.9 secs   av.it.:   9.1
      thresh= 4.270E-07 alpha_mix =  0.700 |ddv_scf|^2 =  2.610E-13

      iter #   7 total cpu time :   698.2 secs   av.it.:   9.1
      thresh= 5.109E-08 alpha_mix =  0.700 |ddv_scf|^2 =  1.137E-12

      iter #   8 total cpu time :   700.7 secs   av.it.:   7.0
      thresh= 1.066E-07 alpha_mix =  0.700 |ddv_scf|^2 =  1.328E-14

      iter #   9 total cpu time :   704.0 secs   av.it.:   8.8
      thresh= 1.152E-08 alpha_mix =  0.700 |ddv_scf|^2 =  1.454E-14

      iter #  10 total cpu time :   706.8 secs   av.it.:   7.9
      thresh= 1.206E-08 alpha_mix =  0.700 |ddv_scf|^2 =  1.158E-17

     End of self-consistent calculation

     Convergence has been achieved 


     Representation #  3 mode #   3

     Self-consistent Calculation

      iter #   1 total cpu time :   710.4 secs   av.it.:   5.6
      thresh= 1.000E-02 alpha_mix =  0.700 |ddv_scf|^2 =  1.192E-06

      iter #   2 total cpu time :   714.4 secs   av.it.:   8.6
      thresh= 1.092E-04 alpha_mix =  0.700 |ddv_scf|^2 =  7.057E-08

      iter #   3 total cpu time :   717.3 secs   av.it.:   8.9
      thresh= 2.657E-05 alpha_mix =  0.700 |ddv_scf|^2 =  9.658E-10

      iter #   4 total cpu time :   721.6 secs   av.it.:   8.2
      thresh= 3.108E-06 alpha_mix =  0.700 |ddv_scf|^2 =  1.003E-12

      iter #   5 total cpu time :   724.6 secs   av.it.:   8.4
      thresh= 1.002E-07 alpha_mix =  0.700 |ddv_scf|^2 =  1.907E-14

      iter #   6 total cpu time :   727.2 secs   av.it.:   7.8
      thresh= 1.381E-08 alpha_mix =  0.700 |ddv_scf|^2 =  2.083E-17

     End of self-consistent calculation

     Convergence has been achieved 
 
     Number of q in the star =   24
     List of q in the star:
          1  -0.250000000   0.500000000  -0.250000000
          2  -0.250000000   0.500000000   0.250000000
          3   0.250000000   0.500000000  -0.250000000
          4   0.250000000   0.500000000   0.250000000
          5   0.250000000  -0.500000000   0.250000000
          6   0.500000000  -0.250000000   0.250000000
          7   0.250000000  -0.250000000   0.500000000
          8  -0.250000000  -0.500000000  -0.250000000
[...]
      thresh= 1.386E-04 alpha_mix =  0.700 |ddv_scf|^2 =  1.140E-07

      iter #   3 total cpu time :  3468.7 secs   av.it.:   8.8
      thresh= 3.376E-05 alpha_mix =  0.700 |ddv_scf|^2 =  6.857E-09

      iter #   4 total cpu time :  3473.7 secs   av.it.:   8.9
      thresh= 8.281E-06 alpha_mix =  0.700 |ddv_scf|^2 =  2.053E-10

      iter #   5 total cpu time :  3481.3 secs   av.it.:   8.2
      thresh= 1.433E-06 alpha_mix =  0.700 |ddv_scf|^2 =  1.974E-12

      iter #   6 total cpu time :  3484.9 secs   av.it.:   9.4
      thresh= 1.405E-07 alpha_mix =  0.700 |ddv_scf|^2 =  3.195E-15

      iter #   7 total cpu time :  3486.5 secs   av.it.:   9.5
      thresh= 5.652E-09 alpha_mix =  0.700 |ddv_scf|^2 =  2.604E-16

      iter #   8 total cpu time :  3488.0 secs   av.it.:   9.4
      thresh= 1.614E-09 alpha_mix =  0.700 |ddv_scf|^2 =  5.764E-19

     End of self-consistent calculation

     Convergence has been achieved 


     Representation #  2 mode #   2

     Self-consistent Calculation

      iter #   1 total cpu time :  3503.7 secs   av.it.:   6.1
      thresh= 1.000E-02 alpha_mix =  0.700 |ddv_scf|^2 =  1.861E-06

      iter #   2 total cpu time :  3513.5 secs   av.it.:   8.8
      thresh= 1.364E-04 alpha_mix =  0.700 |ddv_scf|^2 =  7.334E-08

      iter #   3 total cpu time :  3516.2 secs   av.it.:   8.8
      thresh= 2.708E-05 alpha_mix =  0.700 |ddv_scf|^2 =  3.858E-09

      iter #   4 total cpu time :  3518.7 secs   av.it.:   8.6
      thresh= 6.212E-06 alpha_mix =  0.700 |ddv_scf|^2 =  1.223E-11

      iter #   5 total cpu time :  3521.6 secs   av.it.:   8.7
      thresh= 3.498E-07 alpha_mix =  0.700 |ddv_scf|^2 =  9.435E-15

      iter #   6 total cpu time :  3524.6 secs   av.it.:   7.7
      thresh= 9.713E-09 alpha_mix =  0.700 |ddv_scf|^2 =  6.132E-16

      iter #   7 total cpu time :  3527.4 secs   av.it.:   8.0
      thresh= 2.476E-09 alpha_mix =  0.700 |ddv_scf|^2 =  1.705E-19

     End of self-consistent calculation

     Convergence has been achieved 


     Representation #  3 mode #   3

     Self-consistent Calculation

      iter #   1 total cpu time :  3529.2 secs   av.it.:   6.4
      thresh= 1.000E-02 alpha_mix =  0.700 |ddv_scf|^2 =  6.058E-06

      iter #   2 total cpu time :  3531.6 secs   av.it.:   8.8
      thresh= 2.461E-04 alpha_mix =  0.700 |ddv_scf|^2 =  4.947E-07

      iter #   3 total cpu time :  3534.0 secs   av.it.:   8.0
      thresh= 7.033E-05 alpha_mix =  0.700 |ddv_scf|^2 =  1.269E-08

      iter #   4 total cpu time :  3536.0 secs   av.it.:   8.7
      thresh= 1.127E-05 alpha_mix =  0.700 |ddv_scf|^2 =  5.403E-12

      iter #   5 total cpu time :  3538.5 secs   av.it.:   8.8
      thresh= 2.324E-07 alpha_mix =  0.700 |ddv_scf|^2 =  7.803E-14

      iter #   6 total cpu time :  3540.9 secs   av.it.:   8.7
      thresh= 2.793E-08 alpha_mix =  0.700 |ddv_scf|^2 =  1.285E-15

      iter #   7 total cpu time :  3542.3 secs   av.it.:   8.5
      thresh= 3.585E-09 alpha_mix =  0.700 |ddv_scf|^2 =  1.694E-18

     End of self-consistent calculation

     Convergence has been achieved 
 
     Number of q in the star =   12
     List of q in the star:
          1  -0.250000000  -1.000000000   0.000000000
          2   0.000000000  -1.000000000   0.250000000
          3   0.000000000  -1.000000000  -0.250000000
          4   0.250000000  -1.000000000   0.000000000
          5  -1.000000000   0.000000000  -0.250000000
          6   1.000000000   0.000000000   0.250000000
          7  -1.000000000  -0.250000000   0.000000000
          8   0.000000000  -0.250000000  -1.000000000
          9   0.000000000   0.250000000  -1.000000000
         10   1.000000000   0.250000000   0.000000000
         11  -0.250000000   0.000000000   1.000000000
         12   0.250000000   0.000000000   1.000000000

     Diagonalizing the dynamical matrix

     q = (   -0.250000000  -1.000000000   0.000000000 ) 

 **************************************************************************
     freq (    1) =       7.544400 [THz] =     251.654096 [cm-1]
     freq (    2) =       8.804228 [THz] =     293.677426 [cm-1]
     freq (    3) =      11.443336 [THz] =     381.708587 [cm-1]
 **************************************************************************

     Mode symmetry, C_2v (mm2)  point group:

     freq (  1 -  1) =        251.7  [cm-1]   --> A_1  D_1  S_1      
     freq (  2 -  2) =        293.7  [cm-1]   --> B_1  D_3  S_3      
     freq (  3 -  3) =        381.7  [cm-1]   --> B_2  D_4  S_4      

     Calculation of q =   -0.5000000  -1.0000000   0.0000000
 
     G-vector sticks info
     --------------------
     sticks:   dense  smooth     PW     G-vecs:    dense   smooth      PW
     Sum        1027     511    199                21595     7631    1917
 


     bravais-lattice index     =            2
     lattice parameter (alat)  =       7.8623  a.u.
     unit-cell volume          =     121.5018 (a.u.)^3
     number of atoms/cell      =            1
     number of atomic types    =            1
     number of electrons       =         3.00
     number of Kohn-Sham states=            6
     kinetic-energy cutoff     =      60.0000  Ry
     charge density cutoff     =     480.0000  Ry
     Exchange-correlation      =  SLA  PW   PBX  PBC ( 1  4  3  4 0 0)

     celldm(1)=   7.862262  celldm(2)=   0.000000  celldm(3)=   0.000000
     celldm(4)=   0.000000  celldm(5)=   0.000000  celldm(6)=   0.000000

     crystal axes: (cart. coord. in units of alat)
               a(1) = (  -0.500000   0.000000   0.500000 )  
               a(2) = (   0.000000   0.500000   0.500000 )  
               a(3) = (  -0.500000   0.500000   0.000000 )  

     reciprocal axes: (cart. coord. in units 2 pi/alat)
               b(1) = ( -1.000000 -1.000000  1.000000 )  
               b(2) = (  1.000000  1.000000  1.000000 )  
               b(3) = ( -1.000000  1.000000 -1.000000 )  


     PseudoPot. # 1 for Li read from file:
     ../Li.pbe-s-gbrv14.UPF
     MD5 check sum: 7ca33c4f951f001da2db5c8738379802
     Pseudo is Ultrasoft, Zval =  3.0
     Generated by new atomic code, or converted to UPF format
     Using radial grid of  751 points,  5 beta functions with: 
                l(1) =   0
                l(2) =   0
                l(3) =   0
                l(4) =   1
                l(5) =   1
     Q(r) pseudized with 10 coefficients,  rinner =    1.150   1.150   1.150


     atomic species   valence    mass     pseudopotential
        Li             3.00     6.94100     Li( 1.00)

     48 Sym. Ops., with inversion, found



   Cartesian axes

     site n.     atom                  positions (alat units)
         1           Li  tau(   1) = (   0.0000000   0.0000000   0.0000000  )

     number of k points= 21952  Marzari-Vanderbilt smearing, width (Ry)=  0.0200

     Number of k-points >= 100: set verbosity='high' to print them.

     Dense  grid:    21595 G-vectors     FFT dimensions: (  40,  40,  40)

     Smooth grid:     7631 G-vectors     FFT dimensions: (  27,  27,  27)

     Largest allocated arrays     est. size (Mb)     dimensions
        Kohn-Sham Wavefunctions         0.09 Mb     (     968,    6)
        NL pseudopotentials             0.13 Mb     (     968,    9)
        Each V/rho on FFT grid          0.98 Mb     (   64000)
        Each G-vector array             0.16 Mb     (   21595)
        G-vector shells                 0.00 Mb     (     253)
     Largest temporary arrays     est. size (Mb)     dimensions
        Auxiliary wavefunctions         0.35 Mb     (     968,   24)
        Each subspace H/S matrix        0.01 Mb     (      24,   24)
        Each <psi_i|beta_j> matrix      0.00 Mb     (       9,    6)

     The potential is recalculated from file :
     ./tmp/_ph0/li-fcc.save/charge-density.dat

     Starting wfc are    5 atomic +    1 random wfc

     Band Structure Calculation
     Davidson diagonalization with overlap

     ethr =  3.33E-10,  avg # of iterations = 15.1

     total cpu time spent up to now is      598.2 secs

     End of band structure calculation

     Number of k-points >= 100: set verbosity='high' to print the bands.

     the Fermi energy is     1.3250 ev

                                                                                

     bravais-lattice index     =            2
     lattice parameter (alat)  =       7.8623  a.u.
     unit-cell volume          =     121.5018 (a.u.)^3
     number of atoms/cell      =            1
     number of atomic types    =            1
     kinetic-energy cut-off    =      60.0000  Ry
     charge density cut-off    =     480.0000  Ry
     convergence threshold     =      1.0E-16
     beta                      =       0.7000
     number of iterations used =            4
     Exchange-correlation      =  SLA  PW   PBX  PBC ( 1  4  3  4 0 0)


     celldm(1)=    7.86226  celldm(2)=    0.00000  celldm(3)=    0.00000
     celldm(4)=    0.00000  celldm(5)=    0.00000  celldm(6)=    0.00000

     crystal axes: (cart. coord. in units of alat)
               a(1) = ( -0.5000  0.0000  0.5000 )  
               a(2) = (  0.0000  0.5000  0.5000 )  
               a(3) = ( -0.5000  0.5000  0.0000 )  

     reciprocal axes: (cart. coord. in units 2 pi/alat)
               b(1) = ( -1.0000 -1.0000  1.0000 )  
               b(2) = (  1.0000  1.0000  1.0000 )  
               b(3) = ( -1.0000  1.0000 -1.0000 )  


     Atoms inside the unit cell: 

     Cartesian axes

     site n.  atom      mass           positions (alat units)
        1     Li   6.9410   tau(    1) = (    0.00000    0.00000    0.00000  )

     Computing dynamical matrix for 
                    q = (  -0.5000000  -1.0000000   0.0000000 )
 
      8 Sym.Ops. (no q -> -q+G )


     G cutoff =  751.5823  (  21595 G-vectors)     FFT grid: ( 40, 40, 40)
     G cutoff =  375.7911  (   7631 G-vectors)  smooth grid: ( 27, 27, 27)

     number of k points= 21952  Marzari-Vanderbilt smearing, width (Ry)=  0.0200

     PseudoPot. # 1 for Li read from file:
     ../Li.pbe-s-gbrv14.UPF
     MD5 check sum: 7ca33c4f951f001da2db5c8738379802
     Pseudo is Ultrasoft, Zval =  3.0
     Generated by new atomic code, or converted to UPF format
     Using radial grid of  751 points,  5 beta functions with: 
                l(1) =   0
                l(2) =   0
                l(3) =   0
                l(4) =   1
                l(5) =   1
     Q(r) pseudized with 10 coefficients,  rinner =    1.150   1.150   1.150


     Mode symmetry, D_2d (-42m) point group:


     Atomic displacements:
     There are   2 irreducible representations

     Representation     1      1 modes -B_2  X_3  W_2  To be done

     Representation     2      2 modes -E    X_5  W_3  To be done



     Alpha used in Ewald sum =   2.8000
     PHONON       : 54m16.64s CPU    59m21.46s WALL



     Representation #  1 mode #   1

     Self-consistent Calculation

      iter #   1 total cpu time :  3562.2 secs   av.it.:   6.1
      thresh= 1.000E-02 alpha_mix =  0.700 |ddv_scf|^2 =  2.298E-06

      iter #   2 total cpu time :  3564.2 secs   av.it.:   8.8
      thresh= 1.516E-04 alpha_mix =  0.700 |ddv_scf|^2 =  1.029E-07

      iter #   3 total cpu time :  3567.2 secs   av.it.:   8.7
      thresh= 3.208E-05 alpha_mix =  0.700 |ddv_scf|^2 =  5.663E-09

      iter #   4 total cpu time :  3568.8 secs   av.it.:   8.9
      thresh= 7.526E-06 alpha_mix =  0.700 |ddv_scf|^2 =  2.386E-11

      iter #   5 total cpu time :  3571.1 secs   av.it.:   8.8
      thresh= 4.885E-07 alpha_mix =  0.700 |ddv_scf|^2 =  5.503E-14

      iter #   6 total cpu time :  3583.5 secs   av.it.:   8.6
      thresh= 2.346E-08 alpha_mix =  0.700 |ddv_scf|^2 =  1.502E-15

      iter #   7 total cpu time :  3595.7 secs   av.it.:   8.4
      thresh= 3.875E-09 alpha_mix =  0.700 |ddv_scf|^2 =  8.282E-19

     End of self-consistent calculation

     Convergence has been achieved 


     Representation #  2 modes #   2  3

     Self-consistent Calculation

      iter #   1 total cpu time :  3600.4 secs   av.it.:   6.3
      thresh= 1.000E-02 alpha_mix =  0.700 |ddv_scf|^2 =  8.508E-07

      iter #   2 total cpu time :  3603.5 secs   av.it.:   9.4
      thresh= 9.224E-05 alpha_mix =  0.700 |ddv_scf|^2 =  3.403E-08

      iter #   3 total cpu time :  3606.5 secs   av.it.:   8.8
      thresh= 1.845E-05 alpha_mix =  0.700 |ddv_scf|^2 =  2.089E-09

      iter #   4 total cpu time :  3611.5 secs   av.it.:   9.2
      thresh= 4.571E-06 alpha_mix =  0.700 |ddv_scf|^2 =  1.866E-12

      iter #   5 total cpu time :  3615.7 secs   av.it.:   9.2
      thresh= 1.366E-07 alpha_mix =  0.700 |ddv_scf|^2 =  5.074E-15

      iter #   6 total cpu time :  3619.5 secs   av.it.:   9.0
      thresh= 7.123E-09 alpha_mix =  0.700 |ddv_scf|^2 =  2.718E-16

      iter #   7 total cpu time :  3622.9 secs   av.it.:   9.0
      thresh= 1.649E-09 alpha_mix =  0.700 |ddv_scf|^2 =  2.812E-19

     End of self-consistent calculation

     Convergence has been achieved 
 
     Number of q in the star =    6
     List of q in the star:
          1  -0.500000000  -1.000000000   0.000000000
          2   0.000000000   1.000000000   0.500000000
          3   0.500000000  -1.000000000   0.000000000
          4   0.000000000   1.000000000  -0.500000000
          5  -1.000000000  -0.500000000   0.000000000
          6   0.000000000  -0.500000000  -1.000000000

     Diagonalizing the dynamical matrix

     q = (   -0.500000000  -1.000000000   0.000000000 ) 

 **************************************************************************
     freq (    1) =       7.407419 [THz] =     247.084906 [cm-1]
     freq (    2) =      10.384478 [THz] =     346.388896 [cm-1]
     freq (    3) =      10.384478 [THz] =     346.388896 [cm-1]
 **************************************************************************

     Mode symmetry, D_2d (-42m) point group:

     freq (  1 -  1) =        247.1  [cm-1]   --> B_2  X_3  W_2      
     freq (  2 -  3) =        346.4  [cm-1]   --> E    X_5  W_3      
 
     init_run     :      8.52s CPU      8.80s WALL (      28 calls)
     electrons    :    493.29s CPU    498.62s WALL (      28 calls)

     Called by init_run:
     wfcinit      :      0.00s CPU      0.03s WALL (      28 calls)
     potinit      :      2.17s CPU      2.31s WALL (      28 calls)

     Called by electrons:
     c_bands      :    492.88s CPU    498.14s WALL (      28 calls)
     v_of_rho     :      1.16s CPU      1.17s WALL (      29 calls)
     newd         :      0.42s CPU      0.50s WALL (      29 calls)

     Called by c_bands:
     init_us_2    :     13.86s CPU     14.06s WALL (   80691 calls)
     cegterg      :    322.69s CPU    325.21s WALL (    6368 calls)

     Called by sum_band:

     Called by *egterg:
     h_psi        :    312.21s CPU    314.75s WALL (  101127 calls)
     s_psi        :     19.13s CPU     19.78s WALL ( 1286365 calls)
     g_psi        :      2.14s CPU      2.15s WALL (   89791 calls)
     cdiaghg      :     12.56s CPU     12.70s WALL (   94759 calls)

     Called by h_psi:
     add_vuspsi   :     11.48s CPU     11.62s WALL (  663570 calls)

     General routines
     calbec       :     25.88s CPU     26.47s WALL ( 1418909 calls)
     fft          :     19.05s CPU     18.55s WALL (   10753 calls)
     ffts         :      5.05s CPU      5.36s WALL (    9278 calls)
     fftw         :   1239.11s CPU   1253.46s WALL ( 3350358 calls)
     interpolate  :      3.82s CPU      3.77s WALL (    1481 calls)
     davcio       :      0.38s CPU     14.37s WALL (   14916 calls)
 
     Parallel routines
     fft_scatter  :     67.13s CPU     67.69s WALL ( 3370389 calls)
 
     PHONON       :     0h55m CPU        1h 0m WALL

     INITIALIZATION: 
     phq_setup    :      3.22s CPU      7.47s WALL (      29 calls)
     phq_init     :     97.90s CPU    104.63s WALL (      29 calls)
 
     phq_init     :     97.90s CPU    104.63s WALL (      29 calls)
     init_vloc    :      0.06s CPU      0.04s WALL (      29 calls)
     init_us_1    :      4.40s CPU      4.42s WALL (      29 calls)
     newd         :      0.42s CPU      0.50s WALL (      29 calls)
     dvanqq       :      3.02s CPU      3.05s WALL (      29 calls)
     drho         :     88.15s CPU     88.50s WALL (      29 calls)
 
     DYNAMICAL MATRIX:
     dynmat0      :      1.78s CPU      5.63s WALL (      29 calls)
     phqscf       :   2593.94s CPU   2836.05s WALL (      29 calls)
     dynmatrix    :     32.81s CPU     39.21s WALL (      29 calls)
 
     phqscf       :   2593.94s CPU   2836.05s WALL (      29 calls)
     solve_linter :   2590.27s CPU   2819.09s WALL (      76 calls)
     drhodv       :      3.41s CPU      3.68s WALL (      76 calls)
 
     dynmat0      :      1.78s CPU      5.63s WALL (      29 calls)
     dynmat_us    :      1.66s CPU      1.71s WALL (      29 calls)
     d2ionq       :      0.08s CPU      0.09s WALL (      29 calls)
 
     dynmat_us    :      1.66s CPU      1.71s WALL (      29 calls)
     addusdynmat  :      0.00s CPU      0.00s WALL (      29 calls)
 
     phqscf       :   2593.94s CPU   2836.05s WALL (      29 calls)
     solve_linter :   2590.27s CPU   2819.09s WALL (      76 calls)
 
     solve_linter :   2590.27s CPU   2819.09s WALL (      76 calls)
     dvqpsi_us    :     42.18s CPU     42.87s WALL (    7470 calls)
     ortho        :      7.11s CPU      7.10s WALL (   60352 calls)
     cgsolve      :    930.43s CPU    941.41s WALL (   60352 calls)
     incdrhoscf   :    105.83s CPU    107.03s WALL (   60352 calls)
     addusddens   :     14.18s CPU     14.30s WALL (     677 calls)
     vpsifft      :     85.13s CPU     86.99s WALL (   52882 calls)
     dv_of_drho   :     25.54s CPU     25.87s WALL (     668 calls)
     mix_pot      :      3.48s CPU      3.50s WALL (     601 calls)
     ef_shift     :      0.07s CPU      0.08s WALL (       7 calls)
     localdos     :      0.03s CPU      0.04s WALL (       1 calls)
     psymdvscf    :     10.61s CPU     10.63s WALL (     549 calls)
     newdq        :     13.44s CPU     13.52s WALL (     601 calls)
     adddvscf     :      2.66s CPU      2.75s WALL (   52882 calls)
     drhodvus     :      0.22s CPU      0.20s WALL (      76 calls)
 
     dvqpsi_us    :     42.18s CPU     42.87s WALL (    7470 calls)
     dvqpsi_us_on :      2.07s CPU      2.08s WALL (    7470 calls)
 
     cgsolve      :    930.43s CPU    941.41s WALL (   60352 calls)
     ch_psi       :    919.60s CPU    930.13s WALL (  562443 calls)
 
     ch_psi       :    919.60s CPU    930.13s WALL (  562443 calls)
     h_psiq       :    889.02s CPU    898.84s WALL (  562443 calls)
     last         :     27.20s CPU     27.88s WALL (  562443 calls)
 
     h_psiq       :    889.02s CPU    898.84s WALL (  562443 calls)
     firstfft     :    453.41s CPU    458.54s WALL ( 1028680 calls)
     secondfft    :    376.50s CPU    380.29s WALL ( 1028680 calls)
     add_vuspsi   :     11.48s CPU     11.62s WALL (  663570 calls)
 
     incdrhoscf   :    105.83s CPU    107.03s WALL (   60352 calls)
     addusdbec    :      3.21s CPU      3.10s WALL (   67822 calls)
 
     drhodvus     :      0.22s CPU      0.20s WALL (      76 calls)
 
      General routines
     calbec       :     25.88s CPU     26.47s WALL ( 1418909 calls)
     fft          :     19.05s CPU     18.55s WALL (   10753 calls)
     ffts         :      5.05s CPU      5.36s WALL (    9278 calls)
     fftw         :   1239.11s CPU   1253.46s WALL ( 3350358 calls)
     davcio       :      0.38s CPU     14.37s WALL (   14916 calls)
     write_rec    :      1.70s CPU    224.52s WALL (     677 calls)
 
 
     PHONON       :     0h55m CPU        1h 0m WALL

 
   This run was terminated on:   7: 5:21   6Jun2016            

=------------------------------------------------------------------------------=
   JOB DONE.
=------------------------------------------------------------------------------=
Application 21950088 resources: utime ~1334861s, stime ~6622s, Rss ~187108, inblocks ~771346111, outblocks ~1357543211
