
     Program PHONON v.5.4.0 starts on  7Jun2016 at  9:39: 2 

     This program is part of the open-source Quantum ESPRESSO suite
     for quantum simulation of materials; please cite
         "P. Giannozzi et al., J. Phys.:Condens. Matter 21 395502 (2009);
          URL http://www.quantum-espresso.org", 
     in publications or presentations arising from this work. More details at
     http://www.quantum-espresso.org/quote

     Parallel version (MPI), running on   384 processors
     K-points division:     npool     =     384

     Reading data from directory:
     ./tmp/li-fcc.save

   Info: using nr1, nr2, nr3 values from input

   Info: using nr1, nr2, nr3 values from input

     IMPORTANT: XC functional enforced from input :
     Exchange-correlation      =  SLA  PW   PBX  PBC ( 1  4  3  4 0 0)
     Any further DFT definition will be discarded
     Please, verify this is what you really want

 
     G-vector sticks info
     --------------------
     sticks:   dense  smooth     PW     G-vecs:    dense   smooth      PW
     Sum        1123     559    187                24693     8801    1687
 


     Dynamical matrices for ( 8, 8, 8)  uniform grid of q-points
     (  29q-points):
       N         xq(1)         xq(2)         xq(3) 
       1   0.000000000   0.000000000   0.000000000
       2  -0.125000000   0.125000000  -0.125000000
       3  -0.250000000   0.250000000  -0.250000000
       4  -0.375000000   0.375000000  -0.375000000
       5   0.500000000  -0.500000000   0.500000000
       6   0.000000000   0.250000000   0.000000000
       7  -0.125000000   0.375000000  -0.125000000
       8  -0.250000000   0.500000000  -0.250000000
       9   0.625000000  -0.375000000   0.625000000
      10   0.500000000  -0.250000000   0.500000000
      11   0.375000000  -0.125000000   0.375000000
      12   0.250000000   0.000000000   0.250000000
      13   0.000000000   0.500000000   0.000000000
      14  -0.125000000   0.625000000  -0.125000000
      15   0.750000000  -0.250000000   0.750000000
      16   0.625000000  -0.125000000   0.625000000
      17   0.500000000   0.000000000   0.500000000
      18   0.000000000   0.750000000   0.000000000
      19   0.875000000  -0.125000000   0.875000000
      20   0.750000000   0.000000000   0.750000000
      21   0.000000000  -1.000000000   0.000000000
      22  -0.250000000   0.500000000   0.000000000
      23   0.625000000  -0.375000000   0.875000000
      24   0.500000000  -0.250000000   0.750000000
      25   0.750000000  -0.250000000   1.000000000
      26   0.625000000  -0.125000000   0.875000000
      27   0.500000000   0.000000000   0.750000000
      28  -0.250000000  -1.000000000   0.000000000
      29  -0.500000000  -1.000000000   0.000000000

     Calculation of q =    0.0000000   0.0000000   0.0000000

                                                                                

     bravais-lattice index     =            2
     lattice parameter (alat)  =       8.2290  a.u.
     unit-cell volume          =     139.3078 (a.u.)^3
     number of atoms/cell      =            1
     number of atomic types    =            1
     kinetic-energy cut-off    =      60.0000  Ry
     charge density cut-off    =     480.0000  Ry
     convergence threshold     =      1.0E-16
     beta                      =       0.7000
     number of iterations used =            4
     Exchange-correlation      =  SLA  PW   PBX  PBC ( 1  4  3  4 0 0)


     celldm(1)=    8.22896  celldm(2)=    0.00000  celldm(3)=    0.00000
     celldm(4)=    0.00000  celldm(5)=    0.00000  celldm(6)=    0.00000

     crystal axes: (cart. coord. in units of alat)
               a(1) = ( -0.5000  0.0000  0.5000 )  
               a(2) = (  0.0000  0.5000  0.5000 )  
               a(3) = ( -0.5000  0.5000  0.0000 )  

     reciprocal axes: (cart. coord. in units 2 pi/alat)
               b(1) = ( -1.0000 -1.0000  1.0000 )  
               b(2) = (  1.0000  1.0000  1.0000 )  
               b(3) = ( -1.0000  1.0000 -1.0000 )  


     Atoms inside the unit cell: 

     Cartesian axes

     site n.  atom      mass           positions (alat units)
        1     Li   6.9410   tau(    1) = (    0.00000    0.00000    0.00000  )

     Computing dynamical matrix for 
                    q = (   0.0000000   0.0000000   0.0000000 )
 
     49 Sym.Ops. (with q -> -q+G )


     G cutoff =  823.3258  (  24693 G-vectors)     FFT grid: ( 45, 45, 45)
     G cutoff =  411.6629  (   8801 G-vectors)  smooth grid: ( 30, 30, 30)

     number of k points=  2030  Marzari-Vanderbilt smearing, width (Ry)=  0.0200

     PseudoPot. # 1 for Li read from file:
     ../Li.pbe-s-gbrv14.UPF
     MD5 check sum: 7ca33c4f951f001da2db5c8738379802
     Pseudo is Ultrasoft, Zval =  3.0
     Generated by new atomic code, or converted to UPF format
     Using radial grid of  751 points,  5 beta functions with: 
                l(1) =   0
                l(2) =   0
                l(3) =   0
                l(4) =   1
                l(5) =   1
     Q(r) pseudized with 10 coefficients,  rinner =    1.150   1.150   1.150


     Mode symmetry, O_h (m-3m)  point group:


     Atomic displacements:
     There are   1 irreducible representations

     Representation     1      3 modes -T_1u G_15  G_4-  To be done



     Alpha used in Ewald sum =   2.8000
     PHONON       :    22.53s CPU        36.20s WALL



     Representation #  1 modes #   1  2  3

     Self-consistent Calculation
 
     Pert. #  1: Fermi energy shift (Ry) =     2.0680E-25     1.2539E-37
     Pert. #  2: Fermi energy shift (Ry) =     1.2925E-25     7.8366E-38
     Pert. #  3: Fermi energy shift (Ry) =     3.4466E-25     6.6611E-38

      iter #   1 total cpu time :    37.4 secs   av.it.:   5.2
      thresh= 1.000E-02 alpha_mix =  0.700 |ddv_scf|^2 =  7.686E-08
 
     Pert. #  1: Fermi energy shift (Ry) =    -4.7391E-26     0.0000E+00
     Pert. #  2: Fermi energy shift (Ry) =     7.1355E-27     0.0000E+00
     Pert. #  3: Fermi energy shift (Ry) =     5.1160E-26     0.0000E+00

      iter #   2 total cpu time :    39.3 secs   av.it.:   9.6
      thresh= 2.772E-05 alpha_mix =  0.700 |ddv_scf|^2 =  4.739E-09
 
     Pert. #  1: Fermi energy shift (Ry) =    -7.7548E-26    -4.4005E-41
     Pert. #  2: Fermi energy shift (Ry) =     7.5394E-26     2.2481E-41
     Pert. #  3: Fermi energy shift (Ry) =    -5.6007E-26     2.8699E-42

      iter #   3 total cpu time :    41.9 secs   av.it.:   9.9
      thresh= 6.884E-06 alpha_mix =  0.700 |ddv_scf|^2 =  3.239E-11
 
     Pert. #  1: Fermi energy shift (Ry) =     1.3786E-25    -1.1958E-43
     Pert. #  2: Fermi energy shift (Ry) =    -5.3853E-26    -2.8101E-42
     Pert. #  3: Fermi energy shift (Ry) =     2.5849E-26    -3.3482E-42

      iter #   4 total cpu time :    44.5 secs   av.it.:   9.4
      thresh= 5.691E-07 alpha_mix =  0.700 |ddv_scf|^2 =  7.658E-14
 
     Pert. #  1: Fermi energy shift (Ry) =    -7.7548E-26    -2.3915E-42
     Pert. #  2: Fermi energy shift (Ry) =    -3.4466E-26     1.9730E-42
     Pert. #  3: Fermi energy shift (Ry) =    -8.6165E-27     1.6741E-42

      iter #   5 total cpu time :    47.6 secs   av.it.:   9.2
      thresh= 2.767E-08 alpha_mix =  0.700 |ddv_scf|^2 =  1.165E-15
 
     Pert. #  1: Fermi energy shift (Ry) =     4.3082E-26    -1.4349E-42
     Pert. #  2: Fermi energy shift (Ry) =    -8.6165E-26     1.2556E-42
     Pert. #  3: Fermi energy shift (Ry) =    -3.4466E-26    -5.9789E-43

      iter #   6 total cpu time :    51.0 secs   av.it.:   8.7
      thresh= 3.413E-09 alpha_mix =  0.700 |ddv_scf|^2 =  4.236E-19

     End of self-consistent calculation

     Convergence has been achieved 
 
     Number of q in the star =    1
     List of q in the star:
          1   0.000000000   0.000000000   0.000000000

     Diagonalizing the dynamical matrix

     q = (    0.000000000   0.000000000   0.000000000 ) 

 **************************************************************************
     freq (    1) =      -0.102582 [THz] =      -3.421759 [cm-1]
     freq (    2) =      -0.102582 [THz] =      -3.421759 [cm-1]
     freq (    3) =      -0.102582 [THz] =      -3.421759 [cm-1]
 **************************************************************************

     Mode symmetry, O_h (m-3m)  point group:

     freq (  1 -  3) =         -3.4  [cm-1]   --> T_1u G_15  G_4- I  

     Calculation of q =   -0.1250000   0.1250000  -0.1250000
 
     G-vector sticks info
     --------------------
     sticks:   dense  smooth     PW     G-vecs:    dense   smooth      PW
     Sum        1123     559    199                24693     8801    1807
 


     bravais-lattice index     =            2
     lattice parameter (alat)  =       8.2290  a.u.
     unit-cell volume          =     139.3078 (a.u.)^3
     number of atoms/cell      =            1
     number of atomic types    =            1
     number of electrons       =         3.00
     number of Kohn-Sham states=            6
     kinetic-energy cutoff     =      60.0000  Ry
     charge density cutoff     =     480.0000  Ry
     Exchange-correlation      =  SLA  PW   PBX  PBC ( 1  4  3  4 0 0)

     celldm(1)=   8.228963  celldm(2)=   0.000000  celldm(3)=   0.000000
     celldm(4)=   0.000000  celldm(5)=   0.000000  celldm(6)=   0.000000

     crystal axes: (cart. coord. in units of alat)
               a(1) = (  -0.500000   0.000000   0.500000 )  
               a(2) = (   0.000000   0.500000   0.500000 )  
               a(3) = (  -0.500000   0.500000   0.000000 )  

     reciprocal axes: (cart. coord. in units 2 pi/alat)
               b(1) = ( -1.000000 -1.000000  1.000000 )  
               b(2) = (  1.000000  1.000000  1.000000 )  
               b(3) = ( -1.000000  1.000000 -1.000000 )  


     PseudoPot. # 1 for Li read from file:
     ../Li.pbe-s-gbrv14.UPF
     MD5 check sum: 7ca33c4f951f001da2db5c8738379802
     Pseudo is Ultrasoft, Zval =  3.0
     Generated by new atomic code, or converted to UPF format
     Using radial grid of  751 points,  5 beta functions with: 
                l(1) =   0
                l(2) =   0
                l(3) =   0
                l(4) =   1
                l(5) =   1
     Q(r) pseudized with 10 coefficients,  rinner =    1.150   1.150   1.150


     atomic species   valence    mass     pseudopotential
        Li             3.00     6.94100     Li( 1.00)

     48 Sym. Ops., with inversion, found



   Cartesian axes

     site n.     atom                  positions (alat units)
         1           Li  tau(   1) = (   0.0000000   0.0000000   0.0000000  )

     number of k points= 30856  Marzari-Vanderbilt smearing, width (Ry)=  0.0200

     Number of k-points >= 100: set verbosity='high' to print them.

     Dense  grid:    24693 G-vectors     FFT dimensions: (  45,  45,  45)

     Smooth grid:     8801 G-vectors     FFT dimensions: (  30,  30,  30)

     Largest allocated arrays     est. size (Mb)     dimensions
        Kohn-Sham Wavefunctions         0.10 Mb     (    1113,    6)
        NL pseudopotentials             0.15 Mb     (    1113,    9)
        Each V/rho on FFT grid          1.39 Mb     (   91125)
        Each G-vector array             0.19 Mb     (   24693)
        G-vector shells                 0.00 Mb     (     277)
     Largest temporary arrays     est. size (Mb)     dimensions
        Auxiliary wavefunctions         0.41 Mb     (    1113,   24)
        Each subspace H/S matrix        0.01 Mb     (      24,   24)
        Each <psi_i|beta_j> matrix      0.00 Mb     (       9,    6)

     The potential is recalculated from file :
     ./tmp/_ph0/li-fcc.save/charge-density.dat

     Starting wfc are    5 atomic +    1 random wfc

     Band Structure Calculation
     Davidson diagonalization with overlap

     ethr =  3.33E-10,  avg # of iterations = 15.6

     total cpu time spent up to now is       10.9 secs

     End of band structure calculation

     Number of k-points >= 100: set verbosity='high' to print the bands.

     the Fermi energy is     0.8806 ev

                                                                                

     bravais-lattice index     =            2
     lattice parameter (alat)  =       8.2290  a.u.
     unit-cell volume          =     139.3078 (a.u.)^3
     number of atoms/cell      =            1
     number of atomic types    =            1
     kinetic-energy cut-off    =      60.0000  Ry
     charge density cut-off    =     480.0000  Ry
     convergence threshold     =      1.0E-16
     beta                      =       0.7000
     number of iterations used =            4
     Exchange-correlation      =  SLA  PW   PBX  PBC ( 1  4  3  4 0 0)


     celldm(1)=    8.22896  celldm(2)=    0.00000  celldm(3)=    0.00000
     celldm(4)=    0.00000  celldm(5)=    0.00000  celldm(6)=    0.00000

     crystal axes: (cart. coord. in units of alat)
               a(1) = ( -0.5000  0.0000  0.5000 )  
               a(2) = (  0.0000  0.5000  0.5000 )  
               a(3) = ( -0.5000  0.5000  0.0000 )  

     reciprocal axes: (cart. coord. in units 2 pi/alat)
               b(1) = ( -1.0000 -1.0000  1.0000 )  
               b(2) = (  1.0000  1.0000  1.0000 )  
               b(3) = ( -1.0000  1.0000 -1.0000 )  


     Atoms inside the unit cell: 

     Cartesian axes

     site n.  atom      mass           positions (alat units)
        1     Li   6.9410   tau(    1) = (    0.00000    0.00000    0.00000  )

     Computing dynamical matrix for 
                    q = (  -0.1250000   0.1250000  -0.1250000 )
 
      6 Sym.Ops. (no q -> -q+G )


     G cutoff =  823.3258  (  24693 G-vectors)     FFT grid: ( 45, 45, 45)
     G cutoff =  411.6629  (   8801 G-vectors)  smooth grid: ( 30, 30, 30)

     number of k points= 30856  Marzari-Vanderbilt smearing, width (Ry)=  0.0200

     PseudoPot. # 1 for Li read from file:
     ../Li.pbe-s-gbrv14.UPF
     MD5 check sum: 7ca33c4f951f001da2db5c8738379802
     Pseudo is Ultrasoft, Zval =  3.0
     Generated by new atomic code, or converted to UPF format
     Using radial grid of  751 points,  5 beta functions with: 
                l(1) =   0
                l(2) =   0
                l(3) =   0
                l(4) =   1
                l(5) =   1
     Q(r) pseudized with 10 coefficients,  rinner =    1.150   1.150   1.150


     Mode symmetry, C_3v (3m)   point group:


     Atomic displacements:
     There are   2 irreducible representations

     Representation     1      1 modes -A_1  L_1  To be done

     Representation     2      2 modes -E    L_3  To be done



     Alpha used in Ewald sum =   2.8000
     PHONON       :  0m56.84s CPU     1m13.64s WALL



     Representation #  1 mode #   1

     Self-consistent Calculation

      iter #   1 total cpu time :    75.0 secs   av.it.:   6.3
      thresh= 1.000E-02 alpha_mix =  0.700 |ddv_scf|^2 =  5.349E-02

      iter #   2 total cpu time :    77.6 secs   av.it.:   7.9
      thresh= 1.000E-02 alpha_mix =  0.700 |ddv_scf|^2 =  4.601E+01

      iter #   3 total cpu time :    80.0 secs   av.it.:   7.9
      thresh= 1.000E-02 alpha_mix =  0.700 |ddv_scf|^2 =  3.637E-04

      iter #   4 total cpu time :    81.8 secs   av.it.:   5.2
      thresh= 1.907E-03 alpha_mix =  0.700 |ddv_scf|^2 =  3.033E-08

      iter #   5 total cpu time :    83.4 secs   av.it.:   8.5
      thresh= 1.742E-05 alpha_mix =  0.700 |ddv_scf|^2 =  2.743E-10

      iter #   6 total cpu time :    86.1 secs   av.it.:   8.8
      thresh= 1.656E-06 alpha_mix =  0.700 |ddv_scf|^2 =  3.374E-09

      iter #   7 total cpu time :    87.4 secs   av.it.:   3.7
      thresh= 5.808E-06 alpha_mix =  0.700 |ddv_scf|^2 =  1.730E-10

      iter #   8 total cpu time :    90.7 secs   av.it.:   7.1
      thresh= 1.315E-06 alpha_mix =  0.700 |ddv_scf|^2 =  5.655E-14

      iter #   9 total cpu time :    98.5 secs   av.it.:   8.5
      thresh= 2.378E-08 alpha_mix =  0.700 |ddv_scf|^2 =  1.461E-14

      iter #  10 total cpu time :   152.6 secs   av.it.:   7.0
      thresh= 1.209E-08 alpha_mix =  0.700 |ddv_scf|^2 =  3.523E-15

      iter #  11 total cpu time :   199.9 secs   av.it.:   6.4
      thresh= 5.936E-09 alpha_mix =  0.700 |ddv_scf|^2 =  9.582E-19

     End of self-consistent calculation

     Convergence has been achieved 


     Representation #  2 modes #   2  3

     Self-consistent Calculation

      iter #   1 total cpu time :   304.6 secs   av.it.:   5.3
      thresh= 1.000E-02 alpha_mix =  0.700 |ddv_scf|^2 =  1.744E-07

      iter #   2 total cpu time :   347.7 secs   av.it.:   9.4
      thresh= 4.176E-05 alpha_mix =  0.700 |ddv_scf|^2 =  1.073E-08

      iter #   3 total cpu time :   395.6 secs   av.it.:   9.6
      thresh= 1.036E-05 alpha_mix =  0.700 |ddv_scf|^2 =  8.097E-11

      iter #   4 total cpu time :   440.9 secs   av.it.:   9.2
      thresh= 8.999E-07 alpha_mix =  0.700 |ddv_scf|^2 =  1.715E-13

      iter #   5 total cpu time :   486.7 secs   av.it.:   9.1
      thresh= 4.141E-08 alpha_mix =  0.700 |ddv_scf|^2 =  2.697E-15

      iter #   6 total cpu time :   538.8 secs   av.it.:   8.2
      thresh= 5.193E-09 alpha_mix =  0.700 |ddv_scf|^2 =  1.256E-18

     End of self-consistent calculation

     Convergence has been achieved 
 
     Number of q in the star =    8
     List of q in the star:
          1  -0.125000000   0.125000000  -0.125000000
          2   0.125000000  -0.125000000  -0.125000000
          3   0.125000000  -0.125000000   0.125000000
          4  -0.125000000   0.125000000   0.125000000
          5   0.125000000   0.125000000  -0.125000000
          6  -0.125000000  -0.125000000  -0.125000000
          7  -0.125000000  -0.125000000   0.125000000
          8   0.125000000   0.125000000   0.125000000

     Diagonalizing the dynamical matrix

     q = (   -0.125000000   0.125000000  -0.125000000 ) 

 **************************************************************************
     freq (    1) =       1.395728 [THz] =      46.556474 [cm-1]
     freq (    2) =       1.395728 [THz] =      46.556474 [cm-1]
     freq (    3) =       3.516004 [THz] =     117.281271 [cm-1]
 **************************************************************************

     Mode symmetry, C_3v (3m)   point group:

     freq (  1 -  2) =         46.6  [cm-1]   --> E    L_3           
     freq (  3 -  3) =        117.3  [cm-1]   --> A_1  L_1           

     Calculation of q =   -0.2500000   0.2500000  -0.2500000
 
     G-vector sticks info
     --------------------
     sticks:   dense  smooth     PW     G-vecs:    dense   smooth      PW
     Sum        1123     559    199                24693     8801    1893
 


     bravais-lattice index     =            2
     lattice parameter (alat)  =       8.2290  a.u.
     unit-cell volume          =     139.3078 (a.u.)^3
     number of atoms/cell      =            1
     number of atomic types    =            1
     number of electrons       =         3.00
     number of Kohn-Sham states=            6
     kinetic-energy cutoff     =      60.0000  Ry
     charge density cutoff     =     480.0000  Ry
     Exchange-correlation      =  SLA  PW   PBX  PBC ( 1  4  3  4 0 0)

     celldm(1)=   8.228963  celldm(2)=   0.000000  celldm(3)=   0.000000
     celldm(4)=   0.000000  celldm(5)=   0.000000  celldm(6)=   0.000000

     crystal axes: (cart. coord. in units of alat)
               a(1) = (  -0.500000   0.000000   0.500000 )  
               a(2) = (   0.000000   0.500000   0.500000 )  
               a(3) = (  -0.500000   0.500000   0.000000 )  

     reciprocal axes: (cart. coord. in units 2 pi/alat)
               b(1) = ( -1.000000 -1.000000  1.000000 )  
               b(2) = (  1.000000  1.000000  1.000000 )  
               b(3) = ( -1.000000  1.000000 -1.000000 )  


     PseudoPot. # 1 for Li read from file:
     ../Li.pbe-s-gbrv14.UPF
     MD5 check sum: 7ca33c4f951f001da2db5c8738379802
     Pseudo is Ultrasoft, Zval =  3.0
     Generated by new atomic code, or converted to UPF format
     Using radial grid of  751 points,  5 beta functions with: 
                l(1) =   0
                l(2) =   0
                l(3) =   0
                l(4) =   1
                l(5) =   1
     Q(r) pseudized with 10 coefficients,  rinner =    1.150   1.150   1.150


     atomic species   valence    mass     pseudopotential
        Li             3.00     6.94100     Li( 1.00)

     48 Sym. Ops., with inversion, found



   Cartesian axes

     site n.     atom                  positions (alat units)
         1           Li  tau(   1) = (   0.0000000   0.0000000   0.0000000  )

     number of k points= 30856  Marzari-Vanderbilt smearing, width (Ry)=  0.0200

     Number of k-points >= 100: set verbosity='high' to print them.

     Dense  grid:    24693 G-vectors     FFT dimensions: (  45,  45,  45)

     Smooth grid:     8801 G-vectors     FFT dimensions: (  30,  30,  30)

     Largest allocated arrays     est. size (Mb)     dimensions
        Kohn-Sham Wavefunctions         0.10 Mb     (    1113,    6)
        NL pseudopotentials             0.15 Mb     (    1113,    9)
        Each V/rho on FFT grid          1.39 Mb     (   91125)
        Each G-vector array             0.19 Mb     (   24693)
        G-vector shells                 0.00 Mb     (     277)
     Largest temporary arrays     est. size (Mb)     dimensions
        Auxiliary wavefunctions         0.41 Mb     (    1113,   24)
        Each subspace H/S matrix        0.01 Mb     (      24,   24)
        Each <psi_i|beta_j> matrix      0.00 Mb     (       9,    6)

     The potential is recalculated from file :
     ./tmp/_ph0/li-fcc.save/charge-density.dat

     Starting wfc are    5 atomic +    1 random wfc

     Band Structure Calculation
     Davidson diagonalization with overlap

     ethr =  3.33E-10,  avg # of iterations = 15.6

     total cpu time spent up to now is       25.8 secs

     End of band structure calculation

     Number of k-points >= 100: set verbosity='high' to print the bands.

     the Fermi energy is     0.8806 ev

                                                                                

     bravais-lattice index     =            2
     lattice parameter (alat)  =       8.2290  a.u.
     unit-cell volume          =     139.3078 (a.u.)^3
     number of atoms/cell      =            1
     number of atomic types    =            1
     kinetic-energy cut-off    =      60.0000  Ry
     charge density cut-off    =     480.0000  Ry
     convergence threshold     =      1.0E-16
     beta                      =       0.7000
     number of iterations used =            4
     Exchange-correlation      =  SLA  PW   PBX  PBC ( 1  4  3  4 0 0)


     celldm(1)=    8.22896  celldm(2)=    0.00000  celldm(3)=    0.00000
     celldm(4)=    0.00000  celldm(5)=    0.00000  celldm(6)=    0.00000

     crystal axes: (cart. coord. in units of alat)
               a(1) = ( -0.5000  0.0000  0.5000 )  
               a(2) = (  0.0000  0.5000  0.5000 )  
               a(3) = ( -0.5000  0.5000  0.0000 )  

     reciprocal axes: (cart. coord. in units 2 pi/alat)
               b(1) = ( -1.0000 -1.0000  1.0000 )  
               b(2) = (  1.0000  1.0000  1.0000 )  
               b(3) = ( -1.0000  1.0000 -1.0000 )  


     Atoms inside the unit cell: 

     Cartesian axes

     site n.  atom      mass           positions (alat units)
        1     Li   6.9410   tau(    1) = (    0.00000    0.00000    0.00000  )

     Computing dynamical matrix for 
                    q = (  -0.2500000   0.2500000  -0.2500000 )
 
      6 Sym.Ops. (no q -> -q+G )


     G cutoff =  823.3258  (  24693 G-vectors)     FFT grid: ( 45, 45, 45)
     G cutoff =  411.6629  (   8801 G-vectors)  smooth grid: ( 30, 30, 30)

     number of k points= 30856  Marzari-Vanderbilt smearing, width (Ry)=  0.0200

     PseudoPot. # 1 for Li read from file:
     ../Li.pbe-s-gbrv14.UPF
     MD5 check sum: 7ca33c4f951f001da2db5c8738379802
     Pseudo is Ultrasoft, Zval =  3.0
     Generated by new atomic code, or converted to UPF format
     Using radial grid of  751 points,  5 beta functions with: 
                l(1) =   0
                l(2) =   0
                l(3) =   0
                l(4) =   1
                l(5) =   1
     Q(r) pseudized with 10 coefficients,  rinner =    1.150   1.150   1.150


     Mode symmetry, C_3v (3m)   point group:


     Atomic displacements:
     There are   2 irreducible representations

     Representation     1      1 modes -A_1  L_1  To be done

     Representation     2      2 modes -E    L_3  To be done



     Alpha used in Ewald sum =   2.8000
     PHONON       :  7m24.13s CPU    13m37.72s WALL



     Representation #  1 mode #   1

     Self-consistent Calculation

      iter #   1 total cpu time :   819.0 secs   av.it.:   6.4
      thresh= 1.000E-02 alpha_mix =  0.700 |ddv_scf|^2 =  6.486E-04

      iter #   2 total cpu time :   916.0 secs   av.it.:   7.9
      thresh= 2.547E-03 alpha_mix =  0.700 |ddv_scf|^2 =  2.360E-02

      iter #   3 total cpu time :   964.4 secs   av.it.:   6.4
      thresh= 1.000E-02 alpha_mix =  0.700 |ddv_scf|^2 =  6.248E-08

      iter #   4 total cpu time :  1017.2 secs   av.it.:   9.0
      thresh= 2.500E-05 alpha_mix =  0.700 |ddv_scf|^2 =  2.953E-09

      iter #   5 total cpu time :  1059.4 secs   av.it.:   9.0
      thresh= 5.434E-06 alpha_mix =  0.700 |ddv_scf|^2 =  6.074E-11

      iter #   6 total cpu time :  1116.7 secs   av.it.:   8.7
      thresh= 7.794E-07 alpha_mix =  0.700 |ddv_scf|^2 =  1.922E-13

      iter #   7 total cpu time :  1170.5 secs   av.it.:   9.6
      thresh= 4.384E-08 alpha_mix =  0.700 |ddv_scf|^2 =  1.667E-14

      iter #   8 total cpu time :  1221.5 secs   av.it.:   8.5
      thresh= 1.291E-08 alpha_mix =  0.700 |ddv_scf|^2 =  1.530E-14

      iter #   9 total cpu time :  1259.3 secs   av.it.:   6.9
      thresh= 1.237E-08 alpha_mix =  0.700 |ddv_scf|^2 =  1.800E-14

      iter #  10 total cpu time :  1285.7 secs   av.it.:   6.7
      thresh= 1.342E-08 alpha_mix =  0.700 |ddv_scf|^2 =  3.570E-17

     End of self-consistent calculation

     Convergence has been achieved 


     Representation #  2 modes #   2  3

     Self-consistent Calculation

      iter #   1 total cpu time :  1303.6 secs   av.it.:   5.4
      thresh= 1.000E-02 alpha_mix =  0.700 |ddv_scf|^2 =  1.779E-07

      iter #   2 total cpu time :  1308.4 secs   av.it.:   9.5
      thresh= 4.218E-05 alpha_mix =  0.700 |ddv_scf|^2 =  1.088E-08

      iter #   3 total cpu time :  1312.8 secs   av.it.:   9.7
      thresh= 1.043E-05 alpha_mix =  0.700 |ddv_scf|^2 =  9.832E-11

      iter #   4 total cpu time :  1317.2 secs   av.it.:   9.1
      thresh= 9.916E-07 alpha_mix =  0.700 |ddv_scf|^2 =  1.774E-13

      iter #   5 total cpu time :  1320.1 secs   av.it.:   9.2
      thresh= 4.212E-08 alpha_mix =  0.700 |ddv_scf|^2 =  2.855E-15

      iter #   6 total cpu time :  1325.3 secs   av.it.:   7.8
      thresh= 5.343E-09 alpha_mix =  0.700 |ddv_scf|^2 =  1.542E-18

     End of self-consistent calculation

     Convergence has been achieved 
 
     Number of q in the star =    8
     List of q in the star:
          1  -0.250000000   0.250000000  -0.250000000
          2   0.250000000  -0.250000000  -0.250000000
          3   0.250000000  -0.250000000   0.250000000
          4  -0.250000000   0.250000000   0.250000000
          5   0.250000000   0.250000000  -0.250000000
          6  -0.250000000  -0.250000000  -0.250000000
          7  -0.250000000  -0.250000000   0.250000000
          8   0.250000000   0.250000000   0.250000000

     Diagonalizing the dynamical matrix

     q = (   -0.250000000   0.250000000  -0.250000000 ) 

 **************************************************************************
     freq (    1) =       2.600540 [THz] =      86.744686 [cm-1]
     freq (    2) =       2.600540 [THz] =      86.744686 [cm-1]
     freq (    3) =       6.745446 [THz] =     225.003859 [cm-1]
 **************************************************************************

     Mode symmetry, C_3v (3m)   point group:

     freq (  1 -  2) =         86.7  [cm-1]   --> E    L_3           
     freq (  3 -  3) =        225.0  [cm-1]   --> A_1  L_1           

     Calculation of q =   -0.3750000   0.3750000  -0.3750000
 
     G-vector sticks info
     --------------------
     sticks:   dense  smooth     PW     G-vecs:    dense   smooth      PW
     Sum        1123     559    211                24693     8801    1989
 


     bravais-lattice index     =            2
     lattice parameter (alat)  =       8.2290  a.u.
     unit-cell volume          =     139.3078 (a.u.)^3
     number of atoms/cell      =            1
     number of atomic types    =            1
     number of electrons       =         3.00
     number of Kohn-Sham states=            6
     kinetic-energy cutoff     =      60.0000  Ry
     charge density cutoff     =     480.0000  Ry
     Exchange-correlation      =  SLA  PW   PBX  PBC ( 1  4  3  4 0 0)

     celldm(1)=   8.228963  celldm(2)=   0.000000  celldm(3)=   0.000000
     celldm(4)=   0.000000  celldm(5)=   0.000000  celldm(6)=   0.000000

     crystal axes: (cart. coord. in units of alat)
               a(1) = (  -0.500000   0.000000   0.500000 )  
               a(2) = (   0.000000   0.500000   0.500000 )  
               a(3) = (  -0.500000   0.500000   0.000000 )  

     reciprocal axes: (cart. coord. in units 2 pi/alat)
               b(1) = ( -1.000000 -1.000000  1.000000 )  
               b(2) = (  1.000000  1.000000  1.000000 )  
               b(3) = ( -1.000000  1.000000 -1.000000 )  


     PseudoPot. # 1 for Li read from file:
     ../Li.pbe-s-gbrv14.UPF
     MD5 check sum: 7ca33c4f951f001da2db5c8738379802
     Pseudo is Ultrasoft, Zval =  3.0
     Generated by new atomic code, or converted to UPF format
     Using radial grid of  751 points,  5 beta functions with: 
                l(1) =   0
                l(2) =   0
                l(3) =   0
                l(4) =   1
                l(5) =   1
     Q(r) pseudized with 10 coefficients,  rinner =    1.150   1.150   1.150


     atomic species   valence    mass     pseudopotential
        Li             3.00     6.94100     Li( 1.00)

     48 Sym. Ops., with inversion, found



   Cartesian axes

     site n.     atom                  positions (alat units)
         1           Li  tau(   1) = (   0.0000000   0.0000000   0.0000000  )

     number of k points= 30856  Marzari-Vanderbilt smearing, width (Ry)=  0.0200

     Number of k-points >= 100: set verbosity='high' to print them.

     Dense  grid:    24693 G-vectors     FFT dimensions: (  45,  45,  45)

     Smooth grid:     8801 G-vectors     FFT dimensions: (  30,  30,  30)

     Largest allocated arrays     est. size (Mb)     dimensions
        Kohn-Sham Wavefunctions         0.10 Mb     (    1113,    6)
        NL pseudopotentials             0.15 Mb     (    1113,    9)
        Each V/rho on FFT grid          1.39 Mb     (   91125)
        Each G-vector array             0.19 Mb     (   24693)
        G-vector shells                 0.00 Mb     (     277)
     Largest temporary arrays     est. size (Mb)     dimensions
        Auxiliary wavefunctions         0.41 Mb     (    1113,   24)
        Each subspace H/S matrix        0.01 Mb     (      24,   24)
        Each <psi_i|beta_j> matrix      0.00 Mb     (       9,    6)

     The potential is recalculated from file :
     ./tmp/_ph0/li-fcc.save/charge-density.dat

     Starting wfc are    5 atomic +    1 random wfc

     Band Structure Calculation
     Davidson diagonalization with overlap

     ethr =  3.33E-10,  avg # of iterations = 15.6

     total cpu time spent up to now is       56.7 secs

     End of band structure calculation

     Number of k-points >= 100: set verbosity='high' to print the bands.

     the Fermi energy is     0.8806 ev

                                                                                

     bravais-lattice index     =            2
     lattice parameter (alat)  =       8.2290  a.u.
     unit-cell volume          =     139.3078 (a.u.)^3
     number of atoms/cell      =            1
     number of atomic types    =            1
     kinetic-energy cut-off    =      60.0000  Ry
     charge density cut-off    =     480.0000  Ry
     convergence threshold     =      1.0E-16
     beta                      =       0.7000
     number of iterations used =            4
     Exchange-correlation      =  SLA  PW   PBX  PBC ( 1  4  3  4 0 0)


     celldm(1)=    8.22896  celldm(2)=    0.00000  celldm(3)=    0.00000
     celldm(4)=    0.00000  celldm(5)=    0.00000  celldm(6)=    0.00000

     crystal axes: (cart. coord. in units of alat)
               a(1) = ( -0.5000  0.0000  0.5000 )  
               a(2) = (  0.0000  0.5000  0.5000 )  
               a(3) = ( -0.5000  0.5000  0.0000 )  

     reciprocal axes: (cart. coord. in units 2 pi/alat)
               b(1) = ( -1.0000 -1.0000  1.0000 )  
               b(2) = (  1.0000  1.0000  1.0000 )  
               b(3) = ( -1.0000  1.0000 -1.0000 )  


     Atoms inside the unit cell: 

     Cartesian axes

     site n.  atom      mass           positions (alat units)
        1     Li   6.9410   tau(    1) = (    0.00000    0.00000    0.00000  )

     Computing dynamical matrix for 
                    q = (  -0.3750000   0.3750000  -0.3750000 )
 
      6 Sym.Ops. (no q -> -q+G )


     G cutoff =  823.3258  (  24693 G-vectors)     FFT grid: ( 45, 45, 45)
     G cutoff =  411.6629  (   8801 G-vectors)  smooth grid: ( 30, 30, 30)

     number of k points= 30856  Marzari-Vanderbilt smearing, width (Ry)=  0.0200

     PseudoPot. # 1 for Li read from file:
     ../Li.pbe-s-gbrv14.UPF
     MD5 check sum: 7ca33c4f951f001da2db5c8738379802
     Pseudo is Ultrasoft, Zval =  3.0
     Generated by new atomic code, or converted to UPF format
     Using radial grid of  751 points,  5 beta functions with: 
                l(1) =   0
                l(2) =   0
                l(3) =   0
                l(4) =   1
                l(5) =   1
     Q(r) pseudized with 10 coefficients,  rinner =    1.150   1.150   1.150


     Mode symmetry, C_3v (3m)   point group:


     Atomic displacements:
     There are   2 irreducible representations

     Representation     1      1 modes -A_1  L_1  To be done

     Representation     2      2 modes -E    L_3  To be done



     Alpha used in Ewald sum =   2.8000
     PHONON       : 12m50.66s CPU    22m21.41s WALL



     Representation #  1 mode #   1

     Self-consistent Calculation

      iter #   1 total cpu time :  1342.7 secs   av.it.:   6.4
      thresh= 1.000E-02 alpha_mix =  0.700 |ddv_scf|^2 =  4.387E-05

      iter #   2 total cpu time :  1345.9 secs   av.it.:   8.6
      thresh= 6.623E-04 alpha_mix =  0.700 |ddv_scf|^2 =  1.667E-04

      iter #   3 total cpu time :  1354.4 secs   av.it.:   7.1
      thresh= 1.291E-03 alpha_mix =  0.700 |ddv_scf|^2 =  4.185E-08

      iter #   4 total cpu time :  1358.0 secs   av.it.:   8.8
      thresh= 2.046E-05 alpha_mix =  0.700 |ddv_scf|^2 =  2.301E-09

      iter #   5 total cpu time :  1361.0 secs   av.it.:   8.9
      thresh= 4.797E-06 alpha_mix =  0.700 |ddv_scf|^2 =  2.794E-12

      iter #   6 total cpu time :  1362.4 secs   av.it.:   9.1
      thresh= 1.672E-07 alpha_mix =  0.700 |ddv_scf|^2 =  1.618E-13

      iter #   7 total cpu time :  1363.8 secs   av.it.:   9.2
      thresh= 4.023E-08 alpha_mix =  0.700 |ddv_scf|^2 =  8.200E-16

      iter #   8 total cpu time :  1367.2 secs   av.it.:   9.6
      thresh= 2.864E-09 alpha_mix =  0.700 |ddv_scf|^2 =  5.880E-16

      iter #   9 total cpu time :  1369.0 secs   av.it.:   8.5
      thresh= 2.425E-09 alpha_mix =  0.700 |ddv_scf|^2 =  1.924E-17

     End of self-consistent calculation

     Convergence has been achieved 


     Representation #  2 modes #   2  3

     Self-consistent Calculation

      iter #   1 total cpu time :  1373.3 secs   av.it.:   5.5
      thresh= 1.000E-02 alpha_mix =  0.700 |ddv_scf|^2 =  1.813E-07

      iter #   2 total cpu time :  1377.7 secs   av.it.:   9.5
      thresh= 4.257E-05 alpha_mix =  0.700 |ddv_scf|^2 =  1.102E-08

      iter #   3 total cpu time :  1384.0 secs   av.it.:   9.8
      thresh= 1.050E-05 alpha_mix =  0.700 |ddv_scf|^2 =  1.110E-10

      iter #   4 total cpu time :  1390.5 secs   av.it.:   9.2
      thresh= 1.053E-06 alpha_mix =  0.700 |ddv_scf|^2 =  1.839E-13

      iter #   5 total cpu time :  1395.1 secs   av.it.:   9.3
      thresh= 4.288E-08 alpha_mix =  0.700 |ddv_scf|^2 =  3.095E-15

      iter #   6 total cpu time :  1398.0 secs   av.it.:   8.2
      thresh= 5.563E-09 alpha_mix =  0.700 |ddv_scf|^2 =  1.129E-18

     End of self-consistent calculation

     Convergence has been achieved 
 
     Number of q in the star =    8
     List of q in the star:
          1  -0.375000000   0.375000000  -0.375000000
          2   0.375000000  -0.375000000  -0.375000000
          3   0.375000000  -0.375000000   0.375000000
          4  -0.375000000   0.375000000   0.375000000
          5   0.375000000   0.375000000  -0.375000000
          6  -0.375000000  -0.375000000  -0.375000000
          7  -0.375000000  -0.375000000   0.375000000
          8   0.375000000   0.375000000   0.375000000

     Diagonalizing the dynamical matrix

     q = (   -0.375000000   0.375000000  -0.375000000 ) 

 **************************************************************************
     freq (    1) =       3.455273 [THz] =     115.255513 [cm-1]
     freq (    2) =       3.455273 [THz] =     115.255513 [cm-1]
     freq (    3) =       8.645229 [THz] =     288.373784 [cm-1]
 **************************************************************************

     Mode symmetry, C_3v (3m)   point group:

     freq (  1 -  2) =        115.3  [cm-1]   --> E    L_3           
     freq (  3 -  3) =        288.4  [cm-1]   --> A_1  L_1           

     Calculation of q =    0.5000000  -0.5000000   0.5000000
 
     G-vector sticks info
     --------------------
     sticks:   dense  smooth     PW     G-vecs:    dense   smooth      PW
     Sum        1123     559    211                24693     8801    2085
 


     bravais-lattice index     =            2
     lattice parameter (alat)  =       8.2290  a.u.
     unit-cell volume          =     139.3078 (a.u.)^3
     number of atoms/cell      =            1
     number of atomic types    =            1
     number of electrons       =         3.00
     number of Kohn-Sham states=            6
     kinetic-energy cutoff     =      60.0000  Ry
     charge density cutoff     =     480.0000  Ry
     Exchange-correlation      =  SLA  PW   PBX  PBC ( 1  4  3  4 0 0)

     celldm(1)=   8.228963  celldm(2)=   0.000000  celldm(3)=   0.000000
     celldm(4)=   0.000000  celldm(5)=   0.000000  celldm(6)=   0.000000

     crystal axes: (cart. coord. in units of alat)
               a(1) = (  -0.500000   0.000000   0.500000 )  
               a(2) = (   0.000000   0.500000   0.500000 )  
               a(3) = (  -0.500000   0.500000   0.000000 )  

     reciprocal axes: (cart. coord. in units 2 pi/alat)
               b(1) = ( -1.000000 -1.000000  1.000000 )  
               b(2) = (  1.000000  1.000000  1.000000 )  
               b(3) = ( -1.000000  1.000000 -1.000000 )  


     PseudoPot. # 1 for Li read from file:
     ../Li.pbe-s-gbrv14.UPF
     MD5 check sum: 7ca33c4f951f001da2db5c8738379802
     Pseudo is Ultrasoft, Zval =  3.0
     Generated by new atomic code, or converted to UPF format
     Using radial grid of  751 points,  5 beta functions with: 
                l(1) =   0
                l(2) =   0
                l(3) =   0
                l(4) =   1
                l(5) =   1
     Q(r) pseudized with 10 coefficients,  rinner =    1.150   1.150   1.150


     atomic species   valence    mass     pseudopotential
        Li             3.00     6.94100     Li( 1.00)

     48 Sym. Ops., with inversion, found



   Cartesian axes

     site n.     atom                  positions (alat units)
         1           Li  tau(   1) = (   0.0000000   0.0000000   0.0000000  )

     number of k points= 15428  Marzari-Vanderbilt smearing, width (Ry)=  0.0200

     Number of k-points >= 100: set verbosity='high' to print them.

     Dense  grid:    24693 G-vectors     FFT dimensions: (  45,  45,  45)

     Smooth grid:     8801 G-vectors     FFT dimensions: (  30,  30,  30)

     Largest allocated arrays     est. size (Mb)     dimensions
        Kohn-Sham Wavefunctions         0.10 Mb     (    1113,    6)
        NL pseudopotentials             0.15 Mb     (    1113,    9)
        Each V/rho on FFT grid          1.39 Mb     (   91125)
        Each G-vector array             0.19 Mb     (   24693)
        G-vector shells                 0.00 Mb     (     277)
     Largest temporary arrays     est. size (Mb)     dimensions
        Auxiliary wavefunctions         0.41 Mb     (    1113,   24)
        Each subspace H/S matrix        0.01 Mb     (      24,   24)
        Each <psi_i|beta_j> matrix      0.00 Mb     (       9,    6)

     The potential is recalculated from file :
     ./tmp/_ph0/li-fcc.save/charge-density.dat

     Starting wfc are    5 atomic +    1 random wfc

     Band Structure Calculation
     Davidson diagonalization with overlap

     ethr =  3.33E-10,  avg # of iterations = 15.6

     total cpu time spent up to now is       63.3 secs

     End of band structure calculation

     Number of k-points >= 100: set verbosity='high' to print the bands.

     the Fermi energy is     0.8806 ev

                                                                                

     bravais-lattice index     =            2
     lattice parameter (alat)  =       8.2290  a.u.
     unit-cell volume          =     139.3078 (a.u.)^3
     number of atoms/cell      =            1
     number of atomic types    =            1
     kinetic-energy cut-off    =      60.0000  Ry
     charge density cut-off    =     480.0000  Ry
     convergence threshold     =      1.0E-16
     beta                      =       0.7000
     number of iterations used =            4
     Exchange-correlation      =  SLA  PW   PBX  PBC ( 1  4  3  4 0 0)


     celldm(1)=    8.22896  celldm(2)=    0.00000  celldm(3)=    0.00000
     celldm(4)=    0.00000  celldm(5)=    0.00000  celldm(6)=    0.00000

     crystal axes: (cart. coord. in units of alat)
               a(1) = ( -0.5000  0.0000  0.5000 )  
               a(2) = (  0.0000  0.5000  0.5000 )  
               a(3) = ( -0.5000  0.5000  0.0000 )  

     reciprocal axes: (cart. coord. in units 2 pi/alat)
               b(1) = ( -1.0000 -1.0000  1.0000 )  
               b(2) = (  1.0000  1.0000  1.0000 )  
               b(3) = ( -1.0000  1.0000 -1.0000 )  


     Atoms inside the unit cell: 

     Cartesian axes

     site n.  atom      mass           positions (alat units)
        1     Li   6.9410   tau(    1) = (    0.00000    0.00000    0.00000  )

     Computing dynamical matrix for 
                    q = (   0.5000000  -0.5000000   0.5000000 )
 
     13 Sym.Ops. (with q -> -q+G )


     G cutoff =  823.3258  (  24693 G-vectors)     FFT grid: ( 45, 45, 45)
     G cutoff =  411.6629  (   8801 G-vectors)  smooth grid: ( 30, 30, 30)

     number of k points= 15428  Marzari-Vanderbilt smearing, width (Ry)=  0.0200

     PseudoPot. # 1 for Li read from file:
     ../Li.pbe-s-gbrv14.UPF
     MD5 check sum: 7ca33c4f951f001da2db5c8738379802
     Pseudo is Ultrasoft, Zval =  3.0
     Generated by new atomic code, or converted to UPF format
     Using radial grid of  751 points,  5 beta functions with: 
                l(1) =   0
                l(2) =   0
                l(3) =   0
                l(4) =   1
                l(5) =   1
     Q(r) pseudized with 10 coefficients,  rinner =    1.150   1.150   1.150


     Mode symmetry, D_3d (-3m)  point group:


     Atomic displacements:
     There are   2 irreducible representations

     Representation     1      1 modes -A_2u L_2'  To be done

     Representation     2      2 modes -E_u  L_3'  To be done



     Alpha used in Ewald sum =   2.8000
     PHONON       : 13m53.83s CPU    23m29.08s WALL



     Representation #  1 mode #   1

     Self-consistent Calculation

      iter #   1 total cpu time :  1409.9 secs   av.it.:   6.3
      thresh= 1.000E-02 alpha_mix =  0.700 |ddv_scf|^2 =  1.160E-05

      iter #   2 total cpu time :  1412.8 secs   av.it.:   8.8
      thresh= 3.406E-04 alpha_mix =  0.700 |ddv_scf|^2 =  5.182E-06

      iter #   3 total cpu time :  1414.8 secs   av.it.:   8.0
      thresh= 2.276E-04 alpha_mix =  0.700 |ddv_scf|^2 =  1.390E-08

      iter #   4 total cpu time :  1416.7 secs   av.it.:   9.0
      thresh= 1.179E-05 alpha_mix =  0.700 |ddv_scf|^2 =  8.265E-12

      iter #   5 total cpu time :  1417.8 secs   av.it.:   8.7
      thresh= 2.875E-07 alpha_mix =  0.700 |ddv_scf|^2 =  5.147E-13

      iter #   6 total cpu time :  1418.7 secs   av.it.:   8.3
      thresh= 7.174E-08 alpha_mix =  0.700 |ddv_scf|^2 =  2.547E-15

      iter #   7 total cpu time :  1420.6 secs   av.it.:   9.1
      thresh= 5.047E-09 alpha_mix =  0.700 |ddv_scf|^2 =  2.077E-18

     End of self-consistent calculation

     Convergence has been achieved 


     Representation #  2 modes #   2  3

     Self-consistent Calculation

      iter #   1 total cpu time :  1426.6 secs   av.it.:   5.4
      thresh= 1.000E-02 alpha_mix =  0.700 |ddv_scf|^2 =  1.826E-07

      iter #   2 total cpu time :  1428.8 secs   av.it.:   9.3
      thresh= 4.273E-05 alpha_mix =  0.700 |ddv_scf|^2 =  1.107E-08

      iter #   3 total cpu time :  1430.9 secs   av.it.:   9.6
      thresh= 1.052E-05 alpha_mix =  0.700 |ddv_scf|^2 =  1.144E-10

      iter #   4 total cpu time :  1432.5 secs   av.it.:   9.0
      thresh= 1.069E-06 alpha_mix =  0.700 |ddv_scf|^2 =  1.858E-13

      iter #   5 total cpu time :  1434.1 secs   av.it.:   9.1
      thresh= 4.311E-08 alpha_mix =  0.700 |ddv_scf|^2 =  3.385E-15

      iter #   6 total cpu time :  1437.9 secs   av.it.:   8.0
      thresh= 5.818E-09 alpha_mix =  0.700 |ddv_scf|^2 =  7.425E-19

     End of self-consistent calculation

     Convergence has been achieved 
 
     Number of q in the star =    4
     List of q in the star:
          1   0.500000000  -0.500000000   0.500000000
          2   0.500000000   0.500000000   0.500000000
          3  -0.500000000   0.500000000   0.500000000
          4   0.500000000   0.500000000  -0.500000000

     Diagonalizing the dynamical matrix

     q = (    0.500000000  -0.500000000   0.500000000 ) 

 **************************************************************************
     freq (    1) =       3.774777 [THz] =     125.913000 [cm-1]
     freq (    2) =       3.774777 [THz] =     125.913000 [cm-1]
     freq (    3) =       9.253369 [THz] =     308.659170 [cm-1]
 **************************************************************************

     Mode symmetry, D_3d (-3m)  point group:

     freq (  1 -  2) =        125.9  [cm-1]   --> E_u  L_3'          
     freq (  3 -  3) =        308.7  [cm-1]   --> A_2u L_2'          

     Calculation of q =    0.0000000   0.2500000   0.0000000
 
     G-vector sticks info
     --------------------
     sticks:   dense  smooth     PW     G-vecs:    dense   smooth      PW
     Sum        1123     559    199                24693     8801    1807
 


     bravais-lattice index     =            2
     lattice parameter (alat)  =       8.2290  a.u.
     unit-cell volume          =     139.3078 (a.u.)^3
     number of atoms/cell      =            1
     number of atomic types    =            1
     number of electrons       =         3.00
     number of Kohn-Sham states=            6
     kinetic-energy cutoff     =      60.0000  Ry
     charge density cutoff     =     480.0000  Ry
     Exchange-correlation      =  SLA  PW   PBX  PBC ( 1  4  3  4 0 0)

     celldm(1)=   8.228963  celldm(2)=   0.000000  celldm(3)=   0.000000
     celldm(4)=   0.000000  celldm(5)=   0.000000  celldm(6)=   0.000000

     crystal axes: (cart. coord. in units of alat)
               a(1) = (  -0.500000   0.000000   0.500000 )  
               a(2) = (   0.000000   0.500000   0.500000 )  
               a(3) = (  -0.500000   0.500000   0.000000 )  

     reciprocal axes: (cart. coord. in units 2 pi/alat)
               b(1) = ( -1.000000 -1.000000  1.000000 )  
               b(2) = (  1.000000  1.000000  1.000000 )  
               b(3) = ( -1.000000  1.000000 -1.000000 )  


     PseudoPot. # 1 for Li read from file:
     ../Li.pbe-s-gbrv14.UPF
     MD5 check sum: 7ca33c4f951f001da2db5c8738379802
     Pseudo is Ultrasoft, Zval =  3.0
     Generated by new atomic code, or converted to UPF format
     Using radial grid of  751 points,  5 beta functions with: 
                l(1) =   0
                l(2) =   0
                l(3) =   0
                l(4) =   1
                l(5) =   1
     Q(r) pseudized with 10 coefficients,  rinner =    1.150   1.150   1.150


     atomic species   valence    mass     pseudopotential
        Li             3.00     6.94100     Li( 1.00)

     48 Sym. Ops., with inversion, found



   Cartesian axes

     site n.     atom                  positions (alat units)
         1           Li  tau(   1) = (   0.0000000   0.0000000   0.0000000  )

     number of k points= 22736  Marzari-Vanderbilt smearing, width (Ry)=  0.0200

     Number of k-points >= 100: set verbosity='high' to print them.

     Dense  grid:    24693 G-vectors     FFT dimensions: (  45,  45,  45)

     Smooth grid:     8801 G-vectors     FFT dimensions: (  30,  30,  30)

     Largest allocated arrays     est. size (Mb)     dimensions
        Kohn-Sham Wavefunctions         0.10 Mb     (    1113,    6)
        NL pseudopotentials             0.15 Mb     (    1113,    9)
        Each V/rho on FFT grid          1.39 Mb     (   91125)
        Each G-vector array             0.19 Mb     (   24693)
        G-vector shells                 0.00 Mb     (     277)
     Largest temporary arrays     est. size (Mb)     dimensions
        Auxiliary wavefunctions         0.41 Mb     (    1113,   24)
        Each subspace H/S matrix        0.01 Mb     (      24,   24)
        Each <psi_i|beta_j> matrix      0.00 Mb     (       9,    6)

     The potential is recalculated from file :
     ./tmp/_ph0/li-fcc.save/charge-density.dat

     Starting wfc are    5 atomic +    1 random wfc

     Band Structure Calculation
     Davidson diagonalization with overlap

     ethr =  3.33E-10,  avg # of iterations = 15.5

     total cpu time spent up to now is       71.5 secs

     End of band structure calculation

     Number of k-points >= 100: set verbosity='high' to print the bands.

     the Fermi energy is     0.8806 ev

                                                                                

     bravais-lattice index     =            2
     lattice parameter (alat)  =       8.2290  a.u.
     unit-cell volume          =     139.3078 (a.u.)^3
     number of atoms/cell      =            1
     number of atomic types    =            1
     kinetic-energy cut-off    =      60.0000  Ry
     charge density cut-off    =     480.0000  Ry
     convergence threshold     =      1.0E-16
     beta                      =       0.7000
     number of iterations used =            4
     Exchange-correlation      =  SLA  PW   PBX  PBC ( 1  4  3  4 0 0)


     celldm(1)=    8.22896  celldm(2)=    0.00000  celldm(3)=    0.00000
     celldm(4)=    0.00000  celldm(5)=    0.00000  celldm(6)=    0.00000

     crystal axes: (cart. coord. in units of alat)
               a(1) = ( -0.5000  0.0000  0.5000 )  
               a(2) = (  0.0000  0.5000  0.5000 )  
               a(3) = ( -0.5000  0.5000  0.0000 )  

     reciprocal axes: (cart. coord. in units 2 pi/alat)
               b(1) = ( -1.0000 -1.0000  1.0000 )  
               b(2) = (  1.0000  1.0000  1.0000 )  
               b(3) = ( -1.0000  1.0000 -1.0000 )  


     Atoms inside the unit cell: 

     Cartesian axes

     site n.  atom      mass           positions (alat units)
        1     Li   6.9410   tau(    1) = (    0.00000    0.00000    0.00000  )

     Computing dynamical matrix for 
                    q = (   0.0000000   0.2500000   0.0000000 )
 
      8 Sym.Ops. (no q -> -q+G )


     G cutoff =  823.3258  (  24693 G-vectors)     FFT grid: ( 45, 45, 45)
     G cutoff =  411.6629  (   8801 G-vectors)  smooth grid: ( 30, 30, 30)

     number of k points= 22736  Marzari-Vanderbilt smearing, width (Ry)=  0.0200

     PseudoPot. # 1 for Li read from file:
     ../Li.pbe-s-gbrv14.UPF
     MD5 check sum: 7ca33c4f951f001da2db5c8738379802
     Pseudo is Ultrasoft, Zval =  3.0
     Generated by new atomic code, or converted to UPF format
     Using radial grid of  751 points,  5 beta functions with: 
                l(1) =   0
                l(2) =   0
                l(3) =   0
                l(4) =   1
                l(5) =   1
     Q(r) pseudized with 10 coefficients,  rinner =    1.150   1.150   1.150


     Mode symmetry, C_4v (4mm)  point group:


     Atomic displacements:
     There are   2 irreducible representations

     Representation     1      1 modes -A_1  G_1 D_1  To be done

     Representation     2      2 modes -E    G_5 D_5  To be done



     Alpha used in Ewald sum =   2.8000
     PHONON       : 14m32.08s CPU    24m10.72s WALL



     Representation #  1 mode #   1

     Self-consistent Calculation

      iter #   1 total cpu time :  1451.8 secs   av.it.:   6.4
      thresh= 1.000E-02 alpha_mix =  0.700 |ddv_scf|^2 =  2.285E-02

      iter #   2 total cpu time :  1454.4 secs   av.it.:   7.7
      thresh= 1.000E-02 alpha_mix =  0.700 |ddv_scf|^2 =  1.107E+01

      iter #   3 total cpu time :  1457.5 secs   av.it.:   7.6
      thresh= 1.000E-02 alpha_mix =  0.700 |ddv_scf|^2 =  4.400E-05

      iter #   4 total cpu time :  1459.0 secs   av.it.:   6.4
      thresh= 6.633E-04 alpha_mix =  0.700 |ddv_scf|^2 =  2.164E-08

      iter #   5 total cpu time :  1466.0 secs   av.it.:   8.7
      thresh= 1.471E-05 alpha_mix =  0.700 |ddv_scf|^2 =  9.963E-11

      iter #   6 total cpu time :  1467.2 secs   av.it.:   8.5
      thresh= 9.981E-07 alpha_mix =  0.700 |ddv_scf|^2 =  3.849E-11

      iter #   7 total cpu time :  1468.3 secs   av.it.:   7.2
      thresh= 6.204E-07 alpha_mix =  0.700 |ddv_scf|^2 =  2.329E-09

      iter #   8 total cpu time :  1469.2 secs   av.it.:   5.7
      thresh= 4.826E-06 alpha_mix =  0.700 |ddv_scf|^2 =  4.932E-14

      iter #   9 total cpu time :  1471.9 secs   av.it.:   8.4
      thresh= 2.221E-08 alpha_mix =  0.700 |ddv_scf|^2 =  6.159E-16

      iter #  10 total cpu time :  1474.4 secs   av.it.:   8.9
      thresh= 2.482E-09 alpha_mix =  0.700 |ddv_scf|^2 =  8.612E-15

      iter #  11 total cpu time :  1479.8 secs   av.it.:   6.0
      thresh= 9.280E-09 alpha_mix =  0.700 |ddv_scf|^2 =  1.881E-17

     End of self-consistent calculation

     Convergence has been achieved 


     Representation #  2 modes #   2  3

     Self-consistent Calculation

      iter #   1 total cpu time :  1487.6 secs   av.it.:   5.4
      thresh= 1.000E-02 alpha_mix =  0.700 |ddv_scf|^2 =  1.788E-07

      iter #   2 total cpu time :  1490.0 secs   av.it.:   9.4
      thresh= 4.229E-05 alpha_mix =  0.700 |ddv_scf|^2 =  1.088E-08

      iter #   3 total cpu time :  1493.4 secs   av.it.:   9.6
      thresh= 1.043E-05 alpha_mix =  0.700 |ddv_scf|^2 =  1.116E-10

      iter #   4 total cpu time :  1497.2 secs   av.it.:   9.0
      thresh= 1.056E-06 alpha_mix =  0.700 |ddv_scf|^2 =  1.704E-13

      iter #   5 total cpu time :  1501.2 secs   av.it.:   9.0
      thresh= 4.128E-08 alpha_mix =  0.700 |ddv_scf|^2 =  2.912E-15

      iter #   6 total cpu time :  1512.3 secs   av.it.:   8.4
      thresh= 5.396E-09 alpha_mix =  0.700 |ddv_scf|^2 =  2.164E-18

     End of self-consistent calculation

     Convergence has been achieved 
 
     Number of q in the star =    6
     List of q in the star:
          1   0.000000000   0.250000000   0.000000000
          2   0.000000000  -0.250000000   0.000000000
          3   0.250000000   0.000000000   0.000000000
          4   0.000000000   0.000000000   0.250000000
          5   0.000000000   0.000000000  -0.250000000
          6  -0.250000000   0.000000000   0.000000000

     Diagonalizing the dynamical matrix

     q = (    0.000000000   0.250000000   0.000000000 ) 

 **************************************************************************
     freq (    1) =       2.433161 [THz] =      81.161498 [cm-1]
     freq (    2) =       2.433161 [THz] =      81.161498 [cm-1]
     freq (    3) =       3.010809 [THz] =     100.429769 [cm-1]
 **************************************************************************

     Mode symmetry, C_4v (4mm)  point group:

     freq (  1 -  2) =         81.2  [cm-1]   --> E    G_5 D_5       
     freq (  3 -  3) =        100.4  [cm-1]   --> A_1  G_1 D_1       

     Calculation of q =   -0.1250000   0.3750000  -0.1250000
 
     G-vector sticks info
     --------------------
     sticks:   dense  smooth     PW     G-vecs:    dense   smooth      PW
     Sum        1123     559    199                24693     8801    1893
 


     bravais-lattice index     =            2
     lattice parameter (alat)  =       8.2290  a.u.
     unit-cell volume          =     139.3078 (a.u.)^3
     number of atoms/cell      =            1
     number of atomic types    =            1
     number of electrons       =         3.00
     number of Kohn-Sham states=            6
     kinetic-energy cutoff     =      60.0000  Ry
     charge density cutoff     =     480.0000  Ry
     Exchange-correlation      =  SLA  PW   PBX  PBC ( 1  4  3  4 0 0)

     celldm(1)=   8.228963  celldm(2)=   0.000000  celldm(3)=   0.000000
     celldm(4)=   0.000000  celldm(5)=   0.000000  celldm(6)=   0.000000

     crystal axes: (cart. coord. in units of alat)
               a(1) = (  -0.500000   0.000000   0.500000 )  
               a(2) = (   0.000000   0.500000   0.500000 )  
               a(3) = (  -0.500000   0.500000   0.000000 )  

     reciprocal axes: (cart. coord. in units 2 pi/alat)
               b(1) = ( -1.000000 -1.000000  1.000000 )  
               b(2) = (  1.000000  1.000000  1.000000 )  
               b(3) = ( -1.000000  1.000000 -1.000000 )  


     PseudoPot. # 1 for Li read from file:
     ../Li.pbe-s-gbrv14.UPF
     MD5 check sum: 7ca33c4f951f001da2db5c8738379802
     Pseudo is Ultrasoft, Zval =  3.0
     Generated by new atomic code, or converted to UPF format
     Using radial grid of  751 points,  5 beta functions with: 
                l(1) =   0
                l(2) =   0
                l(3) =   0
                l(4) =   1
                l(5) =   1
     Q(r) pseudized with 10 coefficients,  rinner =    1.150   1.150   1.150


     atomic species   valence    mass     pseudopotential
        Li             3.00     6.94100     Li( 1.00)

     48 Sym. Ops., with inversion, found



   Cartesian axes

     site n.     atom                  positions (alat units)
         1           Li  tau(   1) = (   0.0000000   0.0000000   0.0000000  )

     number of k points= 89376  Marzari-Vanderbilt smearing, width (Ry)=  0.0200

     Number of k-points >= 100: set verbosity='high' to print them.

     Dense  grid:    24693 G-vectors     FFT dimensions: (  45,  45,  45)

     Smooth grid:     8801 G-vectors     FFT dimensions: (  30,  30,  30)

     Largest allocated arrays     est. size (Mb)     dimensions
        Kohn-Sham Wavefunctions         0.10 Mb     (    1113,    6)
        NL pseudopotentials             0.15 Mb     (    1113,    9)
        Each V/rho on FFT grid          1.39 Mb     (   91125)
        Each G-vector array             0.19 Mb     (   24693)
        G-vector shells                 0.00 Mb     (     277)
     Largest temporary arrays     est. size (Mb)     dimensions
        Auxiliary wavefunctions         0.41 Mb     (    1113,   24)
        Each subspace H/S matrix        0.01 Mb     (      24,   24)
        Each <psi_i|beta_j> matrix      0.00 Mb     (       9,    6)

     The potential is recalculated from file :
     ./tmp/_ph0/li-fcc.save/charge-density.dat

     Starting wfc are    5 atomic +    1 random wfc

     Band Structure Calculation
     Davidson diagonalization with overlap

     ethr =  3.33E-10,  avg # of iterations = 15.5

     total cpu time spent up to now is      102.1 secs

     End of band structure calculation

     Number of k-points >= 100: set verbosity='high' to print the bands.

     the Fermi energy is     0.8806 ev

                                                                                

     bravais-lattice index     =            2
     lattice parameter (alat)  =       8.2290  a.u.
     unit-cell volume          =     139.3078 (a.u.)^3
     number of atoms/cell      =            1
     number of atomic types    =            1
     kinetic-energy cut-off    =      60.0000  Ry
     charge density cut-off    =     480.0000  Ry
     convergence threshold     =      1.0E-16
     beta                      =       0.7000
     number of iterations used =            4
     Exchange-correlation      =  SLA  PW   PBX  PBC ( 1  4  3  4 0 0)


     celldm(1)=    8.22896  celldm(2)=    0.00000  celldm(3)=    0.00000
     celldm(4)=    0.00000  celldm(5)=    0.00000  celldm(6)=    0.00000

     crystal axes: (cart. coord. in units of alat)
               a(1) = ( -0.5000  0.0000  0.5000 )  
               a(2) = (  0.0000  0.5000  0.5000 )  
               a(3) = ( -0.5000  0.5000  0.0000 )  

     reciprocal axes: (cart. coord. in units 2 pi/alat)
               b(1) = ( -1.0000 -1.0000  1.0000 )  
               b(2) = (  1.0000  1.0000  1.0000 )  
               b(3) = ( -1.0000  1.0000 -1.0000 )  


     Atoms inside the unit cell: 

     Cartesian axes

     site n.  atom      mass           positions (alat units)
        1     Li   6.9410   tau(    1) = (    0.00000    0.00000    0.00000  )

     Computing dynamical matrix for 
                    q = (  -0.1250000   0.3750000  -0.1250000 )
 
      2 Sym.Ops. (no q -> -q+G )


     G cutoff =  823.3258  (  24693 G-vectors)     FFT grid: ( 45, 45, 45)
     G cutoff =  411.6629  (   8801 G-vectors)  smooth grid: ( 30, 30, 30)

     number of k points= 89376  Marzari-Vanderbilt smearing, width (Ry)=  0.0200

     PseudoPot. # 1 for Li read from file:
     ../Li.pbe-s-gbrv14.UPF
     MD5 check sum: 7ca33c4f951f001da2db5c8738379802
     Pseudo is Ultrasoft, Zval =  3.0
     Generated by new atomic code, or converted to UPF format
     Using radial grid of  751 points,  5 beta functions with: 
                l(1) =   0
                l(2) =   0
                l(3) =   0
                l(4) =   1
                l(5) =   1
     Q(r) pseudized with 10 coefficients,  rinner =    1.150   1.150   1.150


     Mode symmetry, C_s (m)     point group:


     Atomic displacements:
     There are   3 irreducible representations

     Representation     1      1 modes -A'  To be done

     Representation     2      1 modes -A'  To be done

     Representation     3      1 modes -A''  To be done



     Alpha used in Ewald sum =   2.8000
     PHONON       : 16m 4.92s CPU    25m59.11s WALL



     Representation #  1 mode #   1

     Self-consistent Calculation

      iter #   1 total cpu time :  1562.6 secs   av.it.:   6.4
      thresh= 1.000E-02 alpha_mix =  0.700 |ddv_scf|^2 =  7.728E-04

      iter #   2 total cpu time :  1566.4 secs   av.it.:   7.9
      thresh= 2.780E-03 alpha_mix =  0.700 |ddv_scf|^2 =  3.602E-02

      iter #   3 total cpu time :  1570.2 secs   av.it.:   6.4
      thresh= 1.000E-02 alpha_mix =  0.700 |ddv_scf|^2 =  7.139E-08

      iter #   4 total cpu time :  1574.0 secs   av.it.:   9.2
      thresh= 2.672E-05 alpha_mix =  0.700 |ddv_scf|^2 =  4.230E-09

      iter #   5 total cpu time :  1578.9 secs   av.it.:   9.1
      thresh= 6.504E-06 alpha_mix =  0.700 |ddv_scf|^2 =  6.614E-11

      iter #   6 total cpu time :  1583.4 secs   av.it.:   8.8
      thresh= 8.133E-07 alpha_mix =  0.700 |ddv_scf|^2 =  1.766E-12

      iter #   7 total cpu time :  1587.8 secs   av.it.:   8.1
      thresh= 1.329E-07 alpha_mix =  0.700 |ddv_scf|^2 =  1.504E-11

      iter #   8 total cpu time :  1599.6 secs   av.it.:   6.7
      thresh= 3.878E-07 alpha_mix =  0.700 |ddv_scf|^2 =  4.124E-14

      iter #   9 total cpu time :  1604.1 secs   av.it.:   9.0
      thresh= 2.031E-08 alpha_mix =  0.700 |ddv_scf|^2 =  3.659E-14

      iter #  10 total cpu time :  1607.8 secs   av.it.:   7.4
      thresh= 1.913E-08 alpha_mix =  0.700 |ddv_scf|^2 =  2.927E-16

      iter #  11 total cpu time :  1611.3 secs   av.it.:   8.7
      thresh= 1.711E-09 alpha_mix =  0.700 |ddv_scf|^2 =  9.716E-19

     End of self-consistent calculation

     Convergence has been achieved 


     Representation #  2 mode #   2

     Self-consistent Calculation

      iter #   1 total cpu time :  1615.8 secs   av.it.:   6.1
      thresh= 1.000E-02 alpha_mix =  0.700 |ddv_scf|^2 =  1.172E-04

      iter #   2 total cpu time :  1619.2 secs   av.it.:   8.1
      thresh= 1.082E-03 alpha_mix =  0.700 |ddv_scf|^2 =  5.429E-03

      iter #   3 total cpu time :  1622.4 secs   av.it.:   5.8
      thresh= 7.368E-03 alpha_mix =  0.700 |ddv_scf|^2 =  3.678E-08

      iter #   4 total cpu time :  1626.2 secs   av.it.:   9.3
      thresh= 1.918E-05 alpha_mix =  0.700 |ddv_scf|^2 =  2.039E-09

      iter #   5 total cpu time :  1631.0 secs   av.it.:   9.1
      thresh= 4.516E-06 alpha_mix =  0.700 |ddv_scf|^2 =  3.852E-11

      iter #   6 total cpu time :  1636.9 secs   av.it.:   9.0
      thresh= 6.207E-07 alpha_mix =  0.700 |ddv_scf|^2 =  1.560E-12

      iter #   7 total cpu time :  1640.6 secs   av.it.:   8.2
      thresh= 1.249E-07 alpha_mix =  0.700 |ddv_scf|^2 =  2.223E-11

      iter #   8 total cpu time :  1643.9 secs   av.it.:   6.7
      thresh= 4.714E-07 alpha_mix =  0.700 |ddv_scf|^2 =  1.364E-12

      iter #   9 total cpu time :  1648.3 secs   av.it.:   6.9
      thresh= 1.168E-07 alpha_mix =  0.700 |ddv_scf|^2 =  4.239E-13

      iter #  10 total cpu time :  1653.4 secs   av.it.:   7.6
      thresh= 6.511E-08 alpha_mix =  0.700 |ddv_scf|^2 =  1.097E-16

      iter #  11 total cpu time :  1658.0 secs   av.it.:   9.2
      thresh= 1.048E-09 alpha_mix =  0.700 |ddv_scf|^2 =  6.547E-18

     End of self-consistent calculation

     Convergence has been achieved 


     Representation #  3 mode #   3

     Self-consistent Calculation

      iter #   1 total cpu time :  1668.7 secs   av.it.:   5.5
      thresh= 1.000E-02 alpha_mix =  0.700 |ddv_scf|^2 =  7.396E-07

      iter #   2 total cpu time :  1675.4 secs   av.it.:   8.8
      thresh= 8.600E-05 alpha_mix =  0.700 |ddv_scf|^2 =  4.448E-08

      iter #   3 total cpu time :  1681.6 secs   av.it.:   9.2
      thresh= 2.109E-05 alpha_mix =  0.700 |ddv_scf|^2 =  6.182E-10

      iter #   4 total cpu time :  1690.2 secs   av.it.:   8.3
      thresh= 2.486E-06 alpha_mix =  0.700 |ddv_scf|^2 =  7.308E-13

      iter #   5 total cpu time :  1699.2 secs   av.it.:   8.5
      thresh= 8.549E-08 alpha_mix =  0.700 |ddv_scf|^2 =  1.231E-14

      iter #   6 total cpu time :  1704.9 secs   av.it.:   7.8
      thresh= 1.110E-08 alpha_mix =  0.700 |ddv_scf|^2 =  1.610E-17

     End of self-consistent calculation

     Convergence has been achieved 
 
     Number of q in the star =   24
     List of q in the star:
          1  -0.125000000   0.375000000  -0.125000000
          2  -0.125000000   0.375000000   0.125000000
          3   0.125000000   0.375000000  -0.125000000
          4   0.125000000   0.375000000   0.125000000
          5   0.125000000  -0.375000000   0.125000000
          6   0.375000000  -0.125000000   0.125000000
          7   0.125000000  -0.125000000   0.375000000
          8  -0.125000000  -0.375000000  -0.125000000
          9   0.125000000  -0.375000000  -0.125000000
         10  -0.125000000  -0.375000000   0.125000000
         11   0.125000000  -0.125000000  -0.375000000
         12   0.375000000  -0.125000000  -0.125000000
         13  -0.375000000  -0.125000000   0.125000000
         14   0.375000000   0.125000000   0.125000000
         15  -0.125000000  -0.125000000   0.375000000
         16   0.125000000   0.125000000   0.375000000
         17  -0.375000000   0.125000000  -0.125000000
         18  -0.125000000   0.125000000  -0.375000000
         19  -0.375000000  -0.125000000  -0.125000000
         20   0.125000000   0.125000000  -0.375000000
         21   0.375000000   0.125000000  -0.125000000
         22  -0.125000000  -0.125000000  -0.375000000
         23  -0.375000000   0.125000000   0.125000000
         24  -0.125000000   0.125000000   0.375000000

     Diagonalizing the dynamical matrix

     q = (   -0.125000000   0.375000000  -0.125000000 ) 

 **************************************************************************
     freq (    1) =       3.317367 [THz] =     110.655446 [cm-1]
     freq (    2) =       3.519844 [THz] =     117.409348 [cm-1]
     freq (    3) =       5.856753 [THz] =     195.360254 [cm-1]
 **************************************************************************

     Mode symmetry, C_s (m)     point group:

     freq (  1 -  1) =        110.7  [cm-1]   --> A'                 
     freq (  2 -  2) =        117.4  [cm-1]   --> A''                
     freq (  3 -  3) =        195.4  [cm-1]   --> A'                 

     Calculation of q =   -0.2500000   0.5000000  -0.2500000
 
     G-vector sticks info
     --------------------
     sticks:   dense  smooth     PW     G-vecs:    dense   smooth      PW
     Sum        1123     559    211                24693     8801    1989
 


     bravais-lattice index     =            2
     lattice parameter (alat)  =       8.2290  a.u.
     unit-cell volume          =     139.3078 (a.u.)^3
     number of atoms/cell      =            1
     number of atomic types    =            1
     number of electrons       =         3.00
     number of Kohn-Sham states=            6
     kinetic-energy cutoff     =      60.0000  Ry
     charge density cutoff     =     480.0000  Ry
     Exchange-correlation      =  SLA  PW   PBX  PBC ( 1  4  3  4 0 0)

     celldm(1)=   8.228963  celldm(2)=   0.000000  celldm(3)=   0.000000
     celldm(4)=   0.000000  celldm(5)=   0.000000  celldm(6)=   0.000000

     crystal axes: (cart. coord. in units of alat)
               a(1) = (  -0.500000   0.000000   0.500000 )  
               a(2) = (   0.000000   0.500000   0.500000 )  
               a(3) = (  -0.500000   0.500000   0.000000 )  

     reciprocal axes: (cart. coord. in units 2 pi/alat)
               b(1) = ( -1.000000 -1.000000  1.000000 )  
               b(2) = (  1.000000  1.000000  1.000000 )  
               b(3) = ( -1.000000  1.000000 -1.000000 )  


     PseudoPot. # 1 for Li read from file:
     ../Li.pbe-s-gbrv14.UPF
     MD5 check sum: 7ca33c4f951f001da2db5c8738379802
     Pseudo is Ultrasoft, Zval =  3.0
     Generated by new atomic code, or converted to UPF format
     Using radial grid of  751 points,  5 beta functions with: 
                l(1) =   0
                l(2) =   0
                l(3) =   0
                l(4) =   1
                l(5) =   1
     Q(r) pseudized with 10 coefficients,  rinner =    1.150   1.150   1.150


     atomic species   valence    mass     pseudopotential
        Li             3.00     6.94100     Li( 1.00)

     48 Sym. Ops., with inversion, found



   Cartesian axes

     site n.     atom                  positions (alat units)
         1           Li  tau(   1) = (   0.0000000   0.0000000   0.0000000  )

     number of k points= 89376  Marzari-Vanderbilt smearing, width (Ry)=  0.0200

     Number of k-points >= 100: set verbosity='high' to print them.

     Dense  grid:    24693 G-vectors     FFT dimensions: (  45,  45,  45)

     Smooth grid:     8801 G-vectors     FFT dimensions: (  30,  30,  30)

     Largest allocated arrays     est. size (Mb)     dimensions
        Kohn-Sham Wavefunctions         0.10 Mb     (    1113,    6)
        NL pseudopotentials             0.15 Mb     (    1113,    9)
        Each V/rho on FFT grid          1.39 Mb     (   91125)
        Each G-vector array             0.19 Mb     (   24693)
        G-vector shells                 0.00 Mb     (     277)
     Largest temporary arrays     est. size (Mb)     dimensions
        Auxiliary wavefunctions         0.41 Mb     (    1113,   24)
        Each subspace H/S matrix        0.01 Mb     (      24,   24)
        Each <psi_i|beta_j> matrix      0.00 Mb     (       9,    6)

     The potential is recalculated from file :
     ./tmp/_ph0/li-fcc.save/charge-density.dat

     Starting wfc are    5 atomic +    1 random wfc

     Band Structure Calculation
     Davidson diagonalization with overlap

     ethr =  3.33E-10,  avg # of iterations = 15.5

     total cpu time spent up to now is      143.2 secs

     End of band structure calculation

     Number of k-points >= 100: set verbosity='high' to print the bands.

     the Fermi energy is     0.8806 ev

                                                                                

     bravais-lattice index     =            2
     lattice parameter (alat)  =       8.2290  a.u.
     unit-cell volume          =     139.3078 (a.u.)^3
     number of atoms/cell      =            1
     number of atomic types    =            1
     kinetic-energy cut-off    =      60.0000  Ry
     charge density cut-off    =     480.0000  Ry
     convergence threshold     =      1.0E-16
     beta                      =       0.7000
     number of iterations used =            4
     Exchange-correlation      =  SLA  PW   PBX  PBC ( 1  4  3  4 0 0)


     celldm(1)=    8.22896  celldm(2)=    0.00000  celldm(3)=    0.00000
     celldm(4)=    0.00000  celldm(5)=    0.00000  celldm(6)=    0.00000

     crystal axes: (cart. coord. in units of alat)
               a(1) = ( -0.5000  0.0000  0.5000 )  
               a(2) = (  0.0000  0.5000  0.5000 )  
               a(3) = ( -0.5000  0.5000  0.0000 )  

     reciprocal axes: (cart. coord. in units 2 pi/alat)
               b(1) = ( -1.0000 -1.0000  1.0000 )  
               b(2) = (  1.0000  1.0000  1.0000 )  
               b(3) = ( -1.0000  1.0000 -1.0000 )  


     Atoms inside the unit cell: 

     Cartesian axes

     site n.  atom      mass           positions (alat units)
        1     Li   6.9410   tau(    1) = (    0.00000    0.00000    0.00000  )

     Computing dynamical matrix for 
                    q = (  -0.2500000   0.5000000  -0.2500000 )
 
      2 Sym.Ops. (no q -> -q+G )


     G cutoff =  823.3258  (  24693 G-vectors)     FFT grid: ( 45, 45, 45)
     G cutoff =  411.6629  (   8801 G-vectors)  smooth grid: ( 30, 30, 30)

     number of k points= 89376  Marzari-Vanderbilt smearing, width (Ry)=  0.0200

     PseudoPot. # 1 for Li read from file:
     ../Li.pbe-s-gbrv14.UPF
     MD5 check sum: 7ca33c4f951f001da2db5c8738379802
     Pseudo is Ultrasoft, Zval =  3.0
     Generated by new atomic code, or converted to UPF format
     Using radial grid of  751 points,  5 beta functions with: 
                l(1) =   0
                l(2) =   0
                l(3) =   0
                l(4) =   1
                l(5) =   1
     Q(r) pseudized with 10 coefficients,  rinner =    1.150   1.150   1.150


     Mode symmetry, C_s (m)     point group:


     Atomic displacements:
     There are   3 irreducible representations

     Representation     1      1 modes -A'  To be done

     Representation     2      1 modes -A'  To be done

     Representation     3      1 modes -A''  To be done



     Alpha used in Ewald sum =   2.8000
     PHONON       : 19m43.54s CPU    29m50.38s WALL



     Representation #  1 mode #   1

     Self-consistent Calculation

      iter #   1 total cpu time :  1793.8 secs   av.it.:   6.4
      thresh= 1.000E-02 alpha_mix =  0.700 |ddv_scf|^2 =  5.360E-05

      iter #   2 total cpu time :  1800.0 secs   av.it.:   8.6
      thresh= 7.321E-04 alpha_mix =  0.700 |ddv_scf|^2 =  3.114E-04

      iter #   3 total cpu time :  1805.6 secs   av.it.:   7.0
      thresh= 1.765E-03 alpha_mix =  0.700 |ddv_scf|^2 =  3.695E-08

      iter #   4 total cpu time :  1811.5 secs   av.it.:   9.1
      thresh= 1.922E-05 alpha_mix =  0.700 |ddv_scf|^2 =  9.462E-10

      iter #   5 total cpu time :  1818.2 secs   av.it.:   9.1
      thresh= 3.076E-06 alpha_mix =  0.700 |ddv_scf|^2 =  1.510E-11

      iter #   6 total cpu time :  1824.9 secs   av.it.:   9.0
      thresh= 3.886E-07 alpha_mix =  0.700 |ddv_scf|^2 =  9.044E-14

      iter #   7 total cpu time :  1836.2 secs   av.it.:   9.2
      thresh= 3.007E-08 alpha_mix =  0.700 |ddv_scf|^2 =  1.761E-13

      iter #   8 total cpu time :  1842.2 secs   av.it.:   7.3
      thresh= 4.196E-08 alpha_mix =  0.700 |ddv_scf|^2 =  5.583E-15

      iter #   9 total cpu time :  1848.1 secs   av.it.:   9.0
      thresh= 7.472E-09 alpha_mix =  0.700 |ddv_scf|^2 =  4.882E-16

      iter #  10 total cpu time :  1853.2 secs   av.it.:   8.0
      thresh= 2.209E-09 alpha_mix =  0.700 |ddv_scf|^2 =  5.231E-18

     End of self-consistent calculation

     Convergence has been achieved 


     Representation #  2 mode #   2

     Self-consistent Calculation

      iter #   1 total cpu time :  1861.4 secs   av.it.:   6.3
      thresh= 1.000E-02 alpha_mix =  0.700 |ddv_scf|^2 =  1.413E-05

      iter #   2 total cpu time :  1869.4 secs   av.it.:   8.8
      thresh= 3.759E-04 alpha_mix =  0.700 |ddv_scf|^2 =  7.674E-05

      iter #   3 total cpu time :  1876.5 secs   av.it.:   7.1
      thresh= 8.760E-04 alpha_mix =  0.700 |ddv_scf|^2 =  3.653E-08

      iter #   4 total cpu time :  1881.9 secs   av.it.:   9.1
      thresh= 1.911E-05 alpha_mix =  0.700 |ddv_scf|^2 =  1.240E-09

      iter #   5 total cpu time :  1887.2 secs   av.it.:   9.1
      thresh= 3.521E-06 alpha_mix =  0.700 |ddv_scf|^2 =  1.443E-11

      iter #   6 total cpu time :  1893.1 secs   av.it.:   9.4
      thresh= 3.798E-07 alpha_mix =  0.700 |ddv_scf|^2 =  1.822E-13

      iter #   7 total cpu time :  1901.6 secs   av.it.:   9.2
      thresh= 4.268E-08 alpha_mix =  0.700 |ddv_scf|^2 =  7.843E-13

      iter #   8 total cpu time :  1910.0 secs   av.it.:   7.2
      thresh= 8.856E-08 alpha_mix =  0.700 |ddv_scf|^2 =  5.029E-15

      iter #   9 total cpu time :  1917.2 secs   av.it.:   9.2
      thresh= 7.091E-09 alpha_mix =  0.700 |ddv_scf|^2 =  8.028E-15

      iter #  10 total cpu time :  1949.1 secs   av.it.:   8.0
      thresh= 8.960E-09 alpha_mix =  0.700 |ddv_scf|^2 =  1.104E-17

     End of self-consistent calculation

     Convergence has been achieved 


     Representation #  3 mode #   3

     Self-consistent Calculation

      iter #   1 total cpu time :  1960.0 secs   av.it.:   5.6
      thresh= 1.000E-02 alpha_mix =  0.700 |ddv_scf|^2 =  7.551E-07

      iter #   2 total cpu time :  1969.4 secs   av.it.:   8.8
      thresh= 8.690E-05 alpha_mix =  0.700 |ddv_scf|^2 =  4.521E-08

      iter #   3 total cpu time :  1974.9 secs   av.it.:   9.2
      thresh= 2.126E-05 alpha_mix =  0.700 |ddv_scf|^2 =  7.214E-10

      iter #   4 total cpu time :  1983.7 secs   av.it.:   8.3
      thresh= 2.686E-06 alpha_mix =  0.700 |ddv_scf|^2 =  8.026E-13

      iter #   5 total cpu time :  1992.5 secs   av.it.:   8.5
      thresh= 8.959E-08 alpha_mix =  0.700 |ddv_scf|^2 =  1.301E-14

      iter #   6 total cpu time :  1998.8 secs   av.it.:   7.9
      thresh= 1.141E-08 alpha_mix =  0.700 |ddv_scf|^2 =  2.064E-17

     End of self-consistent calculation

     Convergence has been achieved 
 
     Number of q in the star =   24
     List of q in the star:
          1  -0.250000000   0.500000000  -0.250000000
          2  -0.250000000   0.500000000   0.250000000
          3   0.250000000   0.500000000  -0.250000000
          4   0.250000000   0.500000000   0.250000000
          5   0.250000000  -0.500000000   0.250000000
[...]
      thresh= 1.095E-04 alpha_mix =  0.700 |ddv_scf|^2 =  7.241E-08

      iter #   3 total cpu time :  5689.9 secs   av.it.:   8.9
      thresh= 2.691E-05 alpha_mix =  0.700 |ddv_scf|^2 =  4.519E-09

      iter #   4 total cpu time :  5693.5 secs   av.it.:   9.0
      thresh= 6.722E-06 alpha_mix =  0.700 |ddv_scf|^2 =  1.429E-10

      iter #   5 total cpu time :  5696.6 secs   av.it.:   8.5
      thresh= 1.195E-06 alpha_mix =  0.700 |ddv_scf|^2 =  1.558E-12

      iter #   6 total cpu time :  5705.2 secs   av.it.:   9.5
      thresh= 1.248E-07 alpha_mix =  0.700 |ddv_scf|^2 =  2.506E-15

      iter #   7 total cpu time :  5716.4 secs   av.it.:   9.6
      thresh= 5.006E-09 alpha_mix =  0.700 |ddv_scf|^2 =  2.087E-16

      iter #   8 total cpu time :  5718.5 secs   av.it.:   9.5
      thresh= 1.445E-09 alpha_mix =  0.700 |ddv_scf|^2 =  3.809E-19

     End of self-consistent calculation

     Convergence has been achieved 


     Representation #  2 mode #   2

     Self-consistent Calculation

      iter #   1 total cpu time :  5722.5 secs   av.it.:   6.1
      thresh= 1.000E-02 alpha_mix =  0.700 |ddv_scf|^2 =  1.173E-06

      iter #   2 total cpu time :  5724.6 secs   av.it.:   8.9
      thresh= 1.083E-04 alpha_mix =  0.700 |ddv_scf|^2 =  4.805E-08

      iter #   3 total cpu time :  5727.4 secs   av.it.:   8.9
      thresh= 2.192E-05 alpha_mix =  0.700 |ddv_scf|^2 =  2.689E-09

      iter #   4 total cpu time :  5730.1 secs   av.it.:   8.8
      thresh= 5.185E-06 alpha_mix =  0.700 |ddv_scf|^2 =  8.860E-12

      iter #   5 total cpu time :  5732.9 secs   av.it.:   8.8
      thresh= 2.977E-07 alpha_mix =  0.700 |ddv_scf|^2 =  7.194E-15

      iter #   6 total cpu time :  5736.7 secs   av.it.:   8.0
      thresh= 8.482E-09 alpha_mix =  0.700 |ddv_scf|^2 =  4.498E-16

      iter #   7 total cpu time :  5740.2 secs   av.it.:   8.2
      thresh= 2.121E-09 alpha_mix =  0.700 |ddv_scf|^2 =  1.712E-19

     End of self-consistent calculation

     Convergence has been achieved 


     Representation #  3 mode #   3

     Self-consistent Calculation

      iter #   1 total cpu time :  5743.1 secs   av.it.:   6.3
      thresh= 1.000E-02 alpha_mix =  0.700 |ddv_scf|^2 =  3.798E-06

      iter #   2 total cpu time :  5746.9 secs   av.it.:   8.9
      thresh= 1.949E-04 alpha_mix =  0.700 |ddv_scf|^2 =  3.473E-07

      iter #   3 total cpu time :  5750.4 secs   av.it.:   8.3
      thresh= 5.893E-05 alpha_mix =  0.700 |ddv_scf|^2 =  8.612E-09

      iter #   4 total cpu time :  5752.4 secs   av.it.:   8.9
      thresh= 9.280E-06 alpha_mix =  0.700 |ddv_scf|^2 =  3.792E-12

      iter #   5 total cpu time :  5755.6 secs   av.it.:   9.0
      thresh= 1.947E-07 alpha_mix =  0.700 |ddv_scf|^2 =  5.873E-14

      iter #   6 total cpu time :  5757.5 secs   av.it.:   8.7
      thresh= 2.423E-08 alpha_mix =  0.700 |ddv_scf|^2 =  1.110E-15

      iter #   7 total cpu time :  5759.5 secs   av.it.:   8.6
      thresh= 3.332E-09 alpha_mix =  0.700 |ddv_scf|^2 =  1.732E-18

     End of self-consistent calculation

     Convergence has been achieved 
 
     Number of q in the star =   12
     List of q in the star:
          1  -0.250000000  -1.000000000   0.000000000
          2   0.000000000  -1.000000000   0.250000000
          3   0.000000000  -1.000000000  -0.250000000
          4   0.250000000  -1.000000000   0.000000000
          5  -1.000000000   0.000000000  -0.250000000
          6   1.000000000   0.000000000   0.250000000
          7  -1.000000000  -0.250000000   0.000000000
          8   0.000000000  -0.250000000  -1.000000000
          9   0.000000000   0.250000000  -1.000000000
         10   1.000000000   0.250000000   0.000000000
         11  -0.250000000   0.000000000   1.000000000
         12   0.250000000   0.000000000   1.000000000

     Diagonalizing the dynamical matrix

     q = (   -0.250000000  -1.000000000   0.000000000 ) 

 **************************************************************************
     freq (    1) =       6.751644 [THz] =     225.210588 [cm-1]
     freq (    2) =       7.830170 [THz] =     261.186363 [cm-1]
     freq (    3) =       9.754105 [THz] =     325.361935 [cm-1]
 **************************************************************************

     Mode symmetry, C_2v (mm2)  point group:

     freq (  1 -  1) =        225.2  [cm-1]   --> A_1  D_1  S_1      
     freq (  2 -  2) =        261.2  [cm-1]   --> B_1  D_3  S_3      
     freq (  3 -  3) =        325.4  [cm-1]   --> B_2  D_4  S_4      

     Calculation of q =   -0.5000000  -1.0000000   0.0000000
 
     G-vector sticks info
     --------------------
     sticks:   dense  smooth     PW     G-vecs:    dense   smooth      PW
     Sum        1123     559    223                24693     8801    2133
 


     bravais-lattice index     =            2
     lattice parameter (alat)  =       8.2290  a.u.
     unit-cell volume          =     139.3078 (a.u.)^3
     number of atoms/cell      =            1
     number of atomic types    =            1
     number of electrons       =         3.00
     number of Kohn-Sham states=            6
     kinetic-energy cutoff     =      60.0000  Ry
     charge density cutoff     =     480.0000  Ry
     Exchange-correlation      =  SLA  PW   PBX  PBC ( 1  4  3  4 0 0)

     celldm(1)=   8.228963  celldm(2)=   0.000000  celldm(3)=   0.000000
     celldm(4)=   0.000000  celldm(5)=   0.000000  celldm(6)=   0.000000

     crystal axes: (cart. coord. in units of alat)
               a(1) = (  -0.500000   0.000000   0.500000 )  
               a(2) = (   0.000000   0.500000   0.500000 )  
               a(3) = (  -0.500000   0.500000   0.000000 )  

     reciprocal axes: (cart. coord. in units 2 pi/alat)
               b(1) = ( -1.000000 -1.000000  1.000000 )  
               b(2) = (  1.000000  1.000000  1.000000 )  
               b(3) = ( -1.000000  1.000000 -1.000000 )  


     PseudoPot. # 1 for Li read from file:
     ../Li.pbe-s-gbrv14.UPF
     MD5 check sum: 7ca33c4f951f001da2db5c8738379802
     Pseudo is Ultrasoft, Zval =  3.0
     Generated by new atomic code, or converted to UPF format
     Using radial grid of  751 points,  5 beta functions with: 
                l(1) =   0
                l(2) =   0
                l(3) =   0
                l(4) =   1
                l(5) =   1
     Q(r) pseudized with 10 coefficients,  rinner =    1.150   1.150   1.150


     atomic species   valence    mass     pseudopotential
        Li             3.00     6.94100     Li( 1.00)

     48 Sym. Ops., with inversion, found



   Cartesian axes

     site n.     atom                  positions (alat units)
         1           Li  tau(   1) = (   0.0000000   0.0000000   0.0000000  )

     number of k points= 21952  Marzari-Vanderbilt smearing, width (Ry)=  0.0200

     Number of k-points >= 100: set verbosity='high' to print them.

     Dense  grid:    24693 G-vectors     FFT dimensions: (  45,  45,  45)

     Smooth grid:     8801 G-vectors     FFT dimensions: (  30,  30,  30)

     Largest allocated arrays     est. size (Mb)     dimensions
        Kohn-Sham Wavefunctions         0.10 Mb     (    1113,    6)
        NL pseudopotentials             0.15 Mb     (    1113,    9)
        Each V/rho on FFT grid          1.39 Mb     (   91125)
        Each G-vector array             0.19 Mb     (   24693)
        G-vector shells                 0.00 Mb     (     277)
     Largest temporary arrays     est. size (Mb)     dimensions
        Auxiliary wavefunctions         0.41 Mb     (    1113,   24)
        Each subspace H/S matrix        0.01 Mb     (      24,   24)
        Each <psi_i|beta_j> matrix      0.00 Mb     (       9,    6)

     The potential is recalculated from file :
     ./tmp/_ph0/li-fcc.save/charge-density.dat

     Starting wfc are    5 atomic +    1 random wfc

     Band Structure Calculation
     Davidson diagonalization with overlap

     ethr =  3.33E-10,  avg # of iterations = 15.5

     total cpu time spent up to now is      803.9 secs

     End of band structure calculation

     Number of k-points >= 100: set verbosity='high' to print the bands.

     the Fermi energy is     0.8806 ev

                                                                                

     bravais-lattice index     =            2
     lattice parameter (alat)  =       8.2290  a.u.
     unit-cell volume          =     139.3078 (a.u.)^3
     number of atoms/cell      =            1
     number of atomic types    =            1
     kinetic-energy cut-off    =      60.0000  Ry
     charge density cut-off    =     480.0000  Ry
     convergence threshold     =      1.0E-16
     beta                      =       0.7000
     number of iterations used =            4
     Exchange-correlation      =  SLA  PW   PBX  PBC ( 1  4  3  4 0 0)


     celldm(1)=    8.22896  celldm(2)=    0.00000  celldm(3)=    0.00000
     celldm(4)=    0.00000  celldm(5)=    0.00000  celldm(6)=    0.00000

     crystal axes: (cart. coord. in units of alat)
               a(1) = ( -0.5000  0.0000  0.5000 )  
               a(2) = (  0.0000  0.5000  0.5000 )  
               a(3) = ( -0.5000  0.5000  0.0000 )  

     reciprocal axes: (cart. coord. in units 2 pi/alat)
               b(1) = ( -1.0000 -1.0000  1.0000 )  
               b(2) = (  1.0000  1.0000  1.0000 )  
               b(3) = ( -1.0000  1.0000 -1.0000 )  


     Atoms inside the unit cell: 

     Cartesian axes

     site n.  atom      mass           positions (alat units)
        1     Li   6.9410   tau(    1) = (    0.00000    0.00000    0.00000  )

     Computing dynamical matrix for 
                    q = (  -0.5000000  -1.0000000   0.0000000 )
 
      8 Sym.Ops. (no q -> -q+G )


     G cutoff =  823.3258  (  24693 G-vectors)     FFT grid: ( 45, 45, 45)
     G cutoff =  411.6629  (   8801 G-vectors)  smooth grid: ( 30, 30, 30)

     number of k points= 21952  Marzari-Vanderbilt smearing, width (Ry)=  0.0200

     PseudoPot. # 1 for Li read from file:
     ../Li.pbe-s-gbrv14.UPF
     MD5 check sum: 7ca33c4f951f001da2db5c8738379802
     Pseudo is Ultrasoft, Zval =  3.0
     Generated by new atomic code, or converted to UPF format
     Using radial grid of  751 points,  5 beta functions with: 
                l(1) =   0
                l(2) =   0
                l(3) =   0
                l(4) =   1
                l(5) =   1
     Q(r) pseudized with 10 coefficients,  rinner =    1.150   1.150   1.150


     Mode symmetry, D_2d (-42m) point group:


     Atomic displacements:
     There are   2 irreducible representations

     Representation     1      1 modes -B_2  X_3  W_2  To be done

     Representation     2      2 modes -E    X_5  W_3  To be done



     Alpha used in Ewald sum =   2.8000
     PHONON       :     1h19m CPU        1h36m WALL



     Representation #  1 mode #   1

     Self-consistent Calculation

      iter #   1 total cpu time :  5778.2 secs   av.it.:   6.1
      thresh= 1.000E-02 alpha_mix =  0.700 |ddv_scf|^2 =  1.430E-06

      iter #   2 total cpu time :  5781.6 secs   av.it.:   8.9
      thresh= 1.196E-04 alpha_mix =  0.700 |ddv_scf|^2 =  6.688E-08

      iter #   3 total cpu time :  5785.1 secs   av.it.:   8.8
      thresh= 2.586E-05 alpha_mix =  0.700 |ddv_scf|^2 =  3.737E-09

      iter #   4 total cpu time :  5786.3 secs   av.it.:   9.0
      thresh= 6.113E-06 alpha_mix =  0.700 |ddv_scf|^2 =  1.766E-11

      iter #   5 total cpu time :  5787.5 secs   av.it.:   9.0
      thresh= 4.203E-07 alpha_mix =  0.700 |ddv_scf|^2 =  3.938E-14

      iter #   6 total cpu time :  5789.5 secs   av.it.:   8.7
      thresh= 1.985E-08 alpha_mix =  0.700 |ddv_scf|^2 =  9.806E-16

      iter #   7 total cpu time :  5790.7 secs   av.it.:   8.4
      thresh= 3.131E-09 alpha_mix =  0.700 |ddv_scf|^2 =  7.109E-19

     End of self-consistent calculation

     Convergence has been achieved 


     Representation #  2 modes #   2  3

     Self-consistent Calculation

      iter #   1 total cpu time :  5793.4 secs   av.it.:   6.3
      thresh= 1.000E-02 alpha_mix =  0.700 |ddv_scf|^2 =  5.342E-07

      iter #   2 total cpu time :  5795.7 secs   av.it.:   9.5
      thresh= 7.309E-05 alpha_mix =  0.700 |ddv_scf|^2 =  2.374E-08

      iter #   3 total cpu time :  5799.8 secs   av.it.:   8.9
      thresh= 1.541E-05 alpha_mix =  0.700 |ddv_scf|^2 =  1.423E-09

      iter #   4 total cpu time :  5803.8 secs   av.it.:   9.5
      thresh= 3.772E-06 alpha_mix =  0.700 |ddv_scf|^2 =  1.381E-12

      iter #   5 total cpu time :  5807.3 secs   av.it.:   9.3
      thresh= 1.175E-07 alpha_mix =  0.700 |ddv_scf|^2 =  3.916E-15

      iter #   6 total cpu time :  5811.2 secs   av.it.:   9.3
      thresh= 6.258E-09 alpha_mix =  0.700 |ddv_scf|^2 =  2.088E-16

      iter #   7 total cpu time :  5813.4 secs   av.it.:   9.4
      thresh= 1.445E-09 alpha_mix =  0.700 |ddv_scf|^2 =  2.836E-19

     End of self-consistent calculation

     Convergence has been achieved 
 
     Number of q in the star =    6
     List of q in the star:
          1  -0.500000000  -1.000000000   0.000000000
          2   0.000000000   1.000000000   0.500000000
          3   0.500000000  -1.000000000   0.000000000
          4   0.000000000   1.000000000  -0.500000000
          5  -1.000000000  -0.500000000   0.000000000
          6   0.000000000  -0.500000000  -1.000000000

     Diagonalizing the dynamical matrix

     q = (   -0.500000000  -1.000000000   0.000000000 ) 

 **************************************************************************
     freq (    1) =       6.457998 [THz] =     215.415642 [cm-1]
     freq (    2) =       8.964999 [THz] =     299.040169 [cm-1]
     freq (    3) =       8.964999 [THz] =     299.040169 [cm-1]
 **************************************************************************

     Mode symmetry, D_2d (-42m) point group:

     freq (  1 -  1) =        215.4  [cm-1]   --> B_2  X_3  W_2      
     freq (  2 -  3) =        299.0  [cm-1]   --> E    X_5  W_3      
 
     init_run     :      9.39s CPU      9.84s WALL (      28 calls)
     electrons    :    630.04s CPU    635.46s WALL (      28 calls)

     Called by init_run:
     wfcinit      :      0.00s CPU      0.08s WALL (      28 calls)
     potinit      :      2.66s CPU      2.84s WALL (      28 calls)

     Called by electrons:
     c_bands      :    629.70s CPU    635.07s WALL (      28 calls)
     v_of_rho     :      1.80s CPU      1.85s WALL (      29 calls)
     newd         :      0.51s CPU      0.66s WALL (      29 calls)

     Called by c_bands:
     init_us_2    :     15.70s CPU     16.44s WALL (   80546 calls)
     cegterg      :    428.25s CPU    431.35s WALL (    6713 calls)

     Called by sum_band:

     Called by *egterg:
     h_psi        :    413.72s CPU    415.90s WALL (  105875 calls)
     s_psi        :     45.98s CPU     47.03s WALL ( 1300166 calls)
     g_psi        :      2.52s CPU      2.57s WALL (   94194 calls)
     cdiaghg      :     13.44s CPU     13.61s WALL (   99162 calls)

     Called by h_psi:
     add_vuspsi   :     33.63s CPU     34.43s WALL (  672917 calls)

     General routines
     calbec       :     31.00s CPU     30.74s WALL ( 1432565 calls)
     fft          :     29.29s CPU     29.74s WALL (   10723 calls)
     ffts         :      6.24s CPU      6.43s WALL (    9274 calls)
     fftw         :   1532.35s CPU   1547.50s WALL ( 3396106 calls)
     interpolate  :      5.62s CPU      5.62s WALL (    1477 calls)
     davcio       :      0.40s CPU     16.38s WALL (   14916 calls)
 
     Parallel routines
     fft_scatter  :     82.04s CPU     82.48s WALL ( 3416103 calls)
 
     PHONON       :     1h20m CPU        1h36m WALL

     INITIALIZATION: 
     phq_setup    :      4.46s CPU     45.07s WALL (      29 calls)
     phq_init     :    185.59s CPU    198.52s WALL (      29 calls)
 
     phq_init     :    185.59s CPU    198.52s WALL (      29 calls)
     init_vloc    :      0.04s CPU      0.04s WALL (      29 calls)
     init_us_1    :      4.55s CPU      4.54s WALL (      29 calls)
     newd         :      0.51s CPU      0.66s WALL (      29 calls)
     dvanqq       :      3.46s CPU      3.55s WALL (      29 calls)
     drho         :    174.55s CPU    175.29s WALL (      29 calls)
 
     DYNAMICAL MATRIX:
     dynmat0      :      2.03s CPU      6.81s WALL (      29 calls)
     phqscf       :   3685.59s CPU   4504.25s WALL (      29 calls)
     dynmatrix    :    102.18s CPU    127.20s WALL (      29 calls)
 
     phqscf       :   3685.59s CPU   4504.25s WALL (      29 calls)
     solve_linter :   3681.56s CPU   4410.43s WALL (      76 calls)
     drhodv       :      3.80s CPU      4.09s WALL (      76 calls)
 
     dynmat0      :      2.03s CPU      6.81s WALL (      29 calls)
     dynmat_us    :      1.87s CPU      1.94s WALL (      29 calls)
     d2ionq       :      0.10s CPU      0.09s WALL (      29 calls)
 
     dynmat_us    :      1.87s CPU      1.94s WALL (      29 calls)
     addusdynmat  :      0.00s CPU      0.00s WALL (      29 calls)
 
     phqscf       :   3685.59s CPU   4504.25s WALL (      29 calls)
     solve_linter :   3681.56s CPU   4410.43s WALL (      76 calls)
 
     solve_linter :   3681.56s CPU   4410.43s WALL (      76 calls)
     dvqpsi_us    :     51.62s CPU     52.51s WALL (    7470 calls)
     ortho        :     11.06s CPU     11.20s WALL (   60207 calls)
     cgsolve      :   1227.48s CPU   1240.54s WALL (   60207 calls)
     incdrhoscf   :    128.89s CPU    130.70s WALL (   60207 calls)
     addusddens   :     16.98s CPU     17.09s WALL (     675 calls)
     vpsifft      :    106.03s CPU    107.57s WALL (   52737 calls)
     dv_of_drho   :     40.94s CPU     41.32s WALL (     666 calls)
     mix_pot      :      7.30s CPU      7.49s WALL (     599 calls)
     ef_shift     :      0.12s CPU      0.12s WALL (       7 calls)
     localdos     :      0.04s CPU      0.05s WALL (       1 calls)
     psymdvscf    :     15.94s CPU     15.91s WALL (     547 calls)
     newdq        :     16.18s CPU     16.23s WALL (     599 calls)
     adddvscf     :      3.53s CPU      3.48s WALL (   52737 calls)
     drhodvus     :      0.32s CPU      0.33s WALL (      76 calls)
 
     dvqpsi_us    :     51.62s CPU     52.51s WALL (    7470 calls)
     dvqpsi_us_on :      2.59s CPU      2.59s WALL (    7470 calls)
 
     cgsolve      :   1227.48s CPU   1240.54s WALL (   60207 calls)
     ch_psi       :   1212.64s CPU   1225.51s WALL (  567042 calls)
 
     ch_psi       :   1212.64s CPU   1225.51s WALL (  567042 calls)
     h_psiq       :   1162.17s CPU   1174.68s WALL (  567042 calls)
     last         :     46.72s CPU     46.93s WALL (  567042 calls)
 
     h_psiq       :   1162.17s CPU   1174.68s WALL (  567042 calls)
     firstfft     :    583.99s CPU    591.15s WALL ( 1039932 calls)
     secondfft    :    473.54s CPU    476.98s WALL ( 1039932 calls)
     add_vuspsi   :     33.63s CPU     34.43s WALL (  672917 calls)
 
     incdrhoscf   :    128.89s CPU    130.70s WALL (   60207 calls)
     addusdbec    :      3.73s CPU      3.66s WALL (   67677 calls)
 
     drhodvus     :      0.32s CPU      0.33s WALL (      76 calls)
 
      General routines
     calbec       :     31.00s CPU     30.74s WALL ( 1432565 calls)
     fft          :     29.29s CPU     29.74s WALL (   10723 calls)
     ffts         :      6.24s CPU      6.43s WALL (    9274 calls)
     fftw         :   1532.35s CPU   1547.50s WALL ( 3396106 calls)
     davcio       :      0.40s CPU     16.38s WALL (   14916 calls)
     write_rec    :      1.64s CPU    796.52s WALL (     675 calls)
 
 
     PHONON       :     1h20m CPU        1h36m WALL

 
   This run was terminated on:  11:15:59   7Jun2016            

=------------------------------------------------------------------------------=
   JOB DONE.
=------------------------------------------------------------------------------=
Application 22025816 resources: utime ~2056440s, stime ~7795s, Rss ~215460, inblocks ~884930827, outblocks ~1734257797
