
     Program PHONON v.6.1 (svn rev. 13369) starts on 31Jan2018 at  0:48:27 

     This program is part of the open-source Quantum ESPRESSO suite
     for quantum simulation of materials; please cite
         "P. Giannozzi et al., J. Phys.:Condens. Matter 21 395502 (2009);
          URL http://www.quantum-espresso.org", 
     in publications or presentations arising from this work. More details at
     http://www.quantum-espresso.org/quote

     Parallel version (MPI), running on    64 processors
     K-points division:     npool     =       4
     R & G space division:  proc/nbgrp/npool/nimage =      16

     Reading data from directory:
     ./na.bcc.save

   Info: using nr1, nr2, nr3 values from input

   Info: using nr1, nr2, nr3 values from input

     IMPORTANT: XC functional enforced from input :
     Exchange-correlation      = SLA  PW   PBE  PBE ( 1  4  3  4 0 0)
     Any further DFT definition will be discarded
     Please, verify this is what you really want


     Parallelization info
     --------------------
     sticks:   dense  smooth     PW     G-vecs:    dense   smooth      PW
     Min          50      24      8                  911      315      59
     Max          51      25      9                  912      319      62
     Sum         809     399    129                14579     5089     959



     Dynamical matrices for ( 6, 6, 6)  uniform grid of q-points
     (  16q-points):
       N         xq(1)         xq(2)         xq(3) 
       1   0.000000000   0.000000000   0.000000000
       2   0.000000000  -0.166666667   0.166666667
       3   0.000000000  -0.333333333   0.333333333
       4   0.000000000   0.500000000  -0.500000000
       5  -0.166666667  -0.166666667   0.333333333
       6  -0.166666667   0.666666667  -0.500000000
       7  -0.333333333   0.666666667  -0.333333333
       8   0.000000000   0.000000000   0.333333333
       9   0.000000000  -0.166666667   0.500000000
      10   0.000000000   0.666666667  -0.333333333
      11  -0.166666667   0.833333333  -0.333333333
      12   0.666666667  -0.666666667   0.333333333
      13   0.500000000  -0.500000000   0.333333333
      14   0.000000000   0.000000000   0.666666667
      15   0.000000000   0.833333333  -0.166666667
      16   0.000000000   0.000000000  -1.000000000

     Calculation of q =    0.0000000   0.0000000   0.0000000

                                                                                

     bravais-lattice index     =            3
     lattice parameter (alat)  =       6.6862  a.u.
     unit-cell volume          =     149.4567 (a.u.)^3
     number of atoms/cell      =            1
     number of atomic types    =            1
     kinetic-energy cut-off    =      40.0000  Ry
     charge density cut-off    =     320.0000  Ry
     convergence threshold     =      1.0E-16
     beta                      =       0.7000
     number of iterations used =            4
     Exchange-correlation      = SLA  PW   PBE  PBE ( 1  4  3  4 0 0)


     celldm(1)=    6.68624  celldm(2)=    0.00000  celldm(3)=    0.00000
     celldm(4)=    0.00000  celldm(5)=    0.00000  celldm(6)=    0.00000

     crystal axes: (cart. coord. in units of alat)
               a(1) = (  0.5000  0.5000  0.5000 )  
               a(2) = ( -0.5000  0.5000  0.5000 )  
               a(3) = ( -0.5000 -0.5000  0.5000 )  

     reciprocal axes: (cart. coord. in units 2 pi/alat)
               b(1) = (  1.0000  0.0000  1.0000 )  
               b(2) = ( -1.0000  1.0000  0.0000 )  
               b(3) = (  0.0000 -1.0000  1.0000 )  


     Atoms inside the unit cell: 

     Cartesian axes

     site n.  atom      mass           positions (alat units)
        1     Na  22.9900   tau(    1) = (    0.00000    0.00000    0.00000  )

     Computing dynamical matrix for 
                    q = (   0.0000000   0.0000000   0.0000000 )

     49 Sym.Ops. (with q -> -q+G )


     G cutoff =  362.3713  (    911 G-vectors)     FFT grid: ( 36, 36, 36)
     G cutoff =  181.1856  (    319 G-vectors)  smooth grid: ( 24, 24, 24)

     number of k points=   250  Marzari-Vanderbilt smearing, width (Ry)=  0.0200

     PseudoPot. # 1 for Na read from file:
     /home/s1333534/quantum_espresso/qe-6.1/pseudo/Na_pbe_v1.uspp.F.UPF
     MD5 check sum: 76a99c7e9422403d3e93cbc85ab7bccb
     Pseudo is Ultrasoft, Zval =  9.0
     Generated by new atomic code, or converted to UPF format
     Using radial grid of  819 points,  5 beta functions with: 
                l(1) =   0
                l(2) =   0
                l(3) =   1
                l(4) =   1
                l(5) =   2
     Q(r) pseudized with  8 coefficients,  rinner =    1.250   1.250   1.250
                                                       1.250   1.250

     Mode symmetry, O_h (m-3m)  point group:


     Atomic displacements:
     There are   1 irreducible representations

     Representation     1      3 modes -T_1u G_15  G_4-  To be done



     Alpha used in Ewald sum =   2.8000
     PHONON       :     2.93s CPU         3.16s WALL



     Representation #  1 modes #   1  2  3

     Self-consistent Calculation

     Pert. #  1: Fermi energy shift (Ry) =    -1.9387E-26    -1.4106E-37
     Pert. #  2: Fermi energy shift (Ry) =    -1.8310E-26     1.0971E-37
     Pert. #  3: Fermi energy shift (Ry) =     3.2312E-27     1.5673E-38

      iter #   1 total cpu time :     6.2 secs   av.it.:   5.5
      thresh= 1.000E-02 alpha_mix =  0.700 |ddv_scf|^2 =  1.556E-06

     Pert. #  1: Fermi energy shift (Ry) =    -6.0315E-26    -4.6530E-39
     Pert. #  2: Fermi energy shift (Ry) =    -7.5394E-26     3.6734E-40
     Pert. #  3: Fermi energy shift (Ry) =    -1.2494E-25    -6.3673E-39

      iter #   2 total cpu time :     9.6 secs   av.it.:   8.5
      thresh= 1.247E-04 alpha_mix =  0.700 |ddv_scf|^2 =  3.140E-08

     Pert. #  1: Fermi energy shift (Ry) =    -2.5849E-26    -1.1632E-39
     Pert. #  2: Fermi energy shift (Ry) =     7.5394E-27     9.1835E-41
     Pert. #  3: Fermi energy shift (Ry) =    -3.9851E-26    -1.5918E-39

      iter #   3 total cpu time :    13.2 secs   av.it.:   8.6
      thresh= 1.772E-05 alpha_mix =  0.700 |ddv_scf|^2 =  2.814E-10

     Pert. #  1: Fermi energy shift (Ry) =    -4.3082E-27     2.4872E-41
     Pert. #  2: Fermi energy shift (Ry) =     9.6935E-27    -1.1479E-41
     Pert. #  3: Fermi energy shift (Ry) =     3.5543E-26    -3.5395E-41

      iter #   4 total cpu time :    16.6 secs   av.it.:   8.3
      thresh= 1.677E-06 alpha_mix =  0.700 |ddv_scf|^2 =  8.085E-13

     Pert. #  1: Fermi energy shift (Ry) =    -2.1541E-27    -3.3482E-42
     Pert. #  2: Fermi energy shift (Ry) =     1.2925E-26     9.5662E-43
     Pert. #  3: Fermi energy shift (Ry) =    -2.4772E-26    -8.3704E-42

      iter #   5 total cpu time :    20.0 secs   av.it.:   8.4
      thresh= 8.992E-08 alpha_mix =  0.700 |ddv_scf|^2 =  5.579E-15

     Pert. #  1: Fermi energy shift (Ry) =    -1.9387E-26     1.4349E-42
     Pert. #  2: Fermi energy shift (Ry) =     3.6620E-26    -2.3915E-42
     Pert. #  3: Fermi energy shift (Ry) =     3.0158E-26    -7.1746E-43

      iter #   6 total cpu time :    23.5 secs   av.it.:   8.5
      thresh= 7.469E-09 alpha_mix =  0.700 |ddv_scf|^2 =  3.421E-17

     End of self-consistent calculation

     Convergence has been achieved 

     Number of q in the star =    1
     List of q in the star:
          1   0.000000000   0.000000000   0.000000000

     Diagonalizing the dynamical matrix

     q = (    0.000000000   0.000000000   0.000000000 ) 

 **************************************************************************
     freq (    1) =      -0.369784 [THz] =     -12.334678 [cm-1]
     freq (    2) =      -0.369784 [THz] =     -12.334678 [cm-1]
     freq (    3) =      -0.369784 [THz] =     -12.334678 [cm-1]
 **************************************************************************

     Mode symmetry, O_h (m-3m)  point group:

     freq (  1 -  3) =        -12.3  [cm-1]   --> T_1u G_15  G_4- I  

     Calculation of q =    0.0000000  -0.1666667   0.1666667

   Info: using nr1, nr2, nr3 values from input

   Info: using nr1, nr2, nr3 values from input

     Parallelization info
     --------------------
     sticks:   dense  smooth     PW     G-vecs:    dense   smooth      PW
     Min          50      24      8                  911      315      65
     Max          51      25      9                  912      319      68
     Sum         809     399    137                14579     5089    1055



     bravais-lattice index     =            3
     lattice parameter (alat)  =       6.6862  a.u.
     unit-cell volume          =     149.4567 (a.u.)^3
     number of atoms/cell      =            1
     number of atomic types    =            1
     number of electrons       =         9.00
     number of Kohn-Sham states=            9
     kinetic-energy cutoff     =      40.0000  Ry
     charge density cutoff     =     320.0000  Ry
     Exchange-correlation      = SLA  PW   PBE  PBE ( 1  4  3  4 0 0)

     celldm(1)=   6.686237  celldm(2)=   0.000000  celldm(3)=   0.000000
     celldm(4)=   0.000000  celldm(5)=   0.000000  celldm(6)=   0.000000

     crystal axes: (cart. coord. in units of alat)
               a(1) = (   0.500000   0.500000   0.500000 )  
               a(2) = (  -0.500000   0.500000   0.500000 )  
               a(3) = (  -0.500000  -0.500000   0.500000 )  

     reciprocal axes: (cart. coord. in units 2 pi/alat)
               b(1) = (  1.000000  0.000000  1.000000 )  
               b(2) = ( -1.000000  1.000000  0.000000 )  
               b(3) = (  0.000000 -1.000000  1.000000 )  


     PseudoPot. # 1 for Na read from file:
     /home/s1333534/quantum_espresso/qe-6.1/pseudo/Na_pbe_v1.uspp.F.UPF
     MD5 check sum: 76a99c7e9422403d3e93cbc85ab7bccb
     Pseudo is Ultrasoft, Zval =  9.0
     Generated by new atomic code, or converted to UPF format
     Using radial grid of  819 points,  5 beta functions with: 
                l(1) =   0
                l(2) =   0
                l(3) =   1
                l(4) =   1
                l(5) =   2
     Q(r) pseudized with  8 coefficients,  rinner =    1.250   1.250   1.250
                                                       1.250   1.250

     atomic species   valence    mass     pseudopotential
        Na             9.00    22.99000     Na( 1.00)

     48 Sym. Ops., with inversion, found



   Cartesian axes

     site n.     atom                  positions (alat units)
         1           Na  tau(   1) = (   0.0000000   0.0000000   0.0000000  )

     number of k points=  4400  Marzari-Vanderbilt smearing, width (Ry)=  0.0200

     Number of k-points >= 100: set verbosity='high' to print them.

     Dense  grid:    14579 G-vectors     FFT dimensions: (  36,  36,  36)

     Smooth grid:     5089 G-vectors     FFT dimensions: (  24,  24,  24)

     Estimated max dynamical RAM per process >       0.50MB

     Estimated total allocated dynamical RAM >      32.03MB

     The potential is recalculated from file :
     ./_ph0/na.bcc.save/charge-density.dat

     Starting wfc are    5 atomic +    4 random wfc

     Band Structure Calculation
     Davidson diagonalization with overlap

     ethr =  1.11E-10,  avg # of iterations = 17.7

     total cpu time spent up to now is       52.8 secs

     End of band structure calculation

     Number of k-points >= 100: set verbosity='high' to print the bands.

     the Fermi energy is     4.4764 ev

     Writing output data file na.bcc.save

                                                                                

     bravais-lattice index     =            3
     lattice parameter (alat)  =       6.6862  a.u.
     unit-cell volume          =     149.4567 (a.u.)^3
     number of atoms/cell      =            1
     number of atomic types    =            1
     kinetic-energy cut-off    =      40.0000  Ry
     charge density cut-off    =     320.0000  Ry
     convergence threshold     =      1.0E-16
     beta                      =       0.7000
     number of iterations used =            4
     Exchange-correlation      = SLA  PW   PBE  PBE ( 1  4  3  4 0 0)


     celldm(1)=    6.68624  celldm(2)=    0.00000  celldm(3)=    0.00000
     celldm(4)=    0.00000  celldm(5)=    0.00000  celldm(6)=    0.00000

     crystal axes: (cart. coord. in units of alat)
               a(1) = (  0.5000  0.5000  0.5000 )  
               a(2) = ( -0.5000  0.5000  0.5000 )  
               a(3) = ( -0.5000 -0.5000  0.5000 )  

     reciprocal axes: (cart. coord. in units 2 pi/alat)
               b(1) = (  1.0000  0.0000  1.0000 )  
               b(2) = ( -1.0000  1.0000  0.0000 )  
               b(3) = (  0.0000 -1.0000  1.0000 )  


     Atoms inside the unit cell: 

     Cartesian axes

     site n.  atom      mass           positions (alat units)
        1     Na  22.9900   tau(    1) = (    0.00000    0.00000    0.00000  )

     Computing dynamical matrix for 
                    q = (   0.0000000  -0.1666667   0.1666667 )

      4 Sym.Ops. (no q -> -q+G )


     G cutoff =  362.3713  (    911 G-vectors)     FFT grid: ( 36, 36, 36)
     G cutoff =  181.1856  (    319 G-vectors)  smooth grid: ( 24, 24, 24)

     number of k points=  4400  Marzari-Vanderbilt smearing, width (Ry)=  0.0200

     PseudoPot. # 1 for Na read from file:
     /home/s1333534/quantum_espresso/qe-6.1/pseudo/Na_pbe_v1.uspp.F.UPF
     MD5 check sum: 76a99c7e9422403d3e93cbc85ab7bccb
     Pseudo is Ultrasoft, Zval =  9.0
     Generated by new atomic code, or converted to UPF format
     Using radial grid of  819 points,  5 beta functions with: 
                l(1) =   0
                l(2) =   0
                l(3) =   1
                l(4) =   1
                l(5) =   2
     Q(r) pseudized with  8 coefficients,  rinner =    1.250   1.250   1.250
                                                       1.250   1.250

     Mode symmetry, C_2v (mm2)  point group:


     Atomic displacements:
     There are   3 irreducible representations

     Representation     1      1 modes -A_1  D_1  S_1  To be done

     Representation     2      1 modes -B_1  D_3  S_3  To be done

     Representation     3      1 modes -B_2  D_4  S_4  To be done



     Alpha used in Ewald sum =   2.8000
     PHONON       :  1m26.55s CPU     1m32.07s WALL



     Representation #  1 mode #   1

     Self-consistent Calculation

      iter #   1 total cpu time :    98.9 secs   av.it.:   5.7
      thresh= 1.000E-02 alpha_mix =  0.700 |ddv_scf|^2 =  4.143E-02

      iter #   2 total cpu time :   105.7 secs   av.it.:   6.8
      thresh= 1.000E-02 alpha_mix =  0.700 |ddv_scf|^2 =  5.066E+00

      iter #   3 total cpu time :   113.0 secs   av.it.:   6.8
      thresh= 1.000E-02 alpha_mix =  0.700 |ddv_scf|^2 =  1.411E-06

      iter #   4 total cpu time :   120.4 secs   av.it.:   7.5
      thresh= 1.188E-04 alpha_mix =  0.700 |ddv_scf|^2 =  1.632E-07

      iter #   5 total cpu time :   127.5 secs   av.it.:   7.2
      thresh= 4.040E-05 alpha_mix =  0.700 |ddv_scf|^2 =  5.198E-09

      iter #   6 total cpu time :   134.5 secs   av.it.:   7.4
      thresh= 7.210E-06 alpha_mix =  0.700 |ddv_scf|^2 =  1.451E-10

      iter #   7 total cpu time :   141.9 secs   av.it.:   7.6
      thresh= 1.205E-06 alpha_mix =  0.700 |ddv_scf|^2 =  8.478E-09

      iter #   8 total cpu time :   147.4 secs   av.it.:   5.5
      thresh= 9.208E-06 alpha_mix =  0.700 |ddv_scf|^2 =  4.447E-11

      iter #   9 total cpu time :   154.3 secs   av.it.:   7.2
      thresh= 6.669E-07 alpha_mix =  0.700 |ddv_scf|^2 =  1.256E-12

      iter #  10 total cpu time :   161.4 secs   av.it.:   7.2
      thresh= 1.121E-07 alpha_mix =  0.700 |ddv_scf|^2 =  6.429E-14

      iter #  11 total cpu time :   168.3 secs   av.it.:   7.2
      thresh= 2.536E-08 alpha_mix =  0.700 |ddv_scf|^2 =  8.932E-16

      iter #  12 total cpu time :   176.0 secs   av.it.:   7.8
      thresh= 2.989E-09 alpha_mix =  0.700 |ddv_scf|^2 =  4.233E-16

      iter #  13 total cpu time :   182.9 secs   av.it.:   7.1
      thresh= 2.057E-09 alpha_mix =  0.700 |ddv_scf|^2 =  5.427E-16

      iter #  14 total cpu time :   188.4 secs   av.it.:   5.3
      thresh= 2.330E-09 alpha_mix =  0.700 |ddv_scf|^2 =  4.545E-17

     End of self-consistent calculation

     Convergence has been achieved 


     Representation #  2 mode #   2

     Self-consistent Calculation

      iter #   1 total cpu time :   195.1 secs   av.it.:   5.4
      thresh= 1.000E-02 alpha_mix =  0.700 |ddv_scf|^2 =  1.418E-05

      iter #   2 total cpu time :   202.4 secs   av.it.:   7.6
      thresh= 3.766E-04 alpha_mix =  0.700 |ddv_scf|^2 =  2.784E-07

      iter #   3 total cpu time :   209.8 secs   av.it.:   7.8
      thresh= 5.277E-05 alpha_mix =  0.700 |ddv_scf|^2 =  2.853E-09

      iter #   4 total cpu time :   217.0 secs   av.it.:   7.5
      thresh= 5.342E-06 alpha_mix =  0.700 |ddv_scf|^2 =  8.127E-12

      iter #   5 total cpu time :   224.4 secs   av.it.:   7.6
      thresh= 2.851E-07 alpha_mix =  0.700 |ddv_scf|^2 =  4.581E-14

      iter #   6 total cpu time :   231.6 secs   av.it.:   7.6
      thresh= 2.140E-08 alpha_mix =  0.700 |ddv_scf|^2 =  3.567E-16

      iter #   7 total cpu time :   239.3 secs   av.it.:   7.7
      thresh= 1.889E-09 alpha_mix =  0.700 |ddv_scf|^2 =  1.886E-19

     End of self-consistent calculation

     Convergence has been achieved 


     Representation #  3 mode #   3

     Self-consistent Calculation

      iter #   1 total cpu time :   246.1 secs   av.it.:   5.5
      thresh= 1.000E-02 alpha_mix =  0.700 |ddv_scf|^2 =  1.473E-05

      iter #   2 total cpu time :   253.4 secs   av.it.:   7.6
      thresh= 3.838E-04 alpha_mix =  0.700 |ddv_scf|^2 =  2.757E-07

      iter #   3 total cpu time :   261.6 secs   av.it.:   7.9
      thresh= 5.251E-05 alpha_mix =  0.700 |ddv_scf|^2 =  3.772E-09

      iter #   4 total cpu time :   268.9 secs   av.it.:   7.5
      thresh= 6.142E-06 alpha_mix =  0.700 |ddv_scf|^2 =  1.128E-11

      iter #   5 total cpu time :   276.8 secs   av.it.:   7.7
      thresh= 3.359E-07 alpha_mix =  0.700 |ddv_scf|^2 =  4.453E-14

      iter #   6 total cpu time :   283.9 secs   av.it.:   7.5
      thresh= 2.110E-08 alpha_mix =  0.700 |ddv_scf|^2 =  8.599E-16

      iter #   7 total cpu time :   291.1 secs   av.it.:   7.6
      thresh= 2.932E-09 alpha_mix =  0.700 |ddv_scf|^2 =  7.142E-19

     End of self-consistent calculation

     Convergence has been achieved 

     Number of q in the star =   12
     List of q in the star:
          1   0.000000000  -0.166666667   0.166666667
          2  -0.166666667   0.000000000   0.166666667
          3   0.166666667   0.000000000   0.166666667
          4   0.000000000   0.166666667   0.166666667
          5   0.166666667   0.166666667   0.000000000
          6  -0.166666667   0.166666667   0.000000000
          7   0.166666667  -0.166666667   0.000000000
          8  -0.166666667  -0.166666667   0.000000000
          9  -0.166666667   0.000000000  -0.166666667
         10   0.000000000  -0.166666667  -0.166666667
         11   0.000000000   0.166666667  -0.166666667
         12   0.166666667   0.000000000  -0.166666667

     Diagonalizing the dynamical matrix

     q = (    0.000000000  -0.166666667   0.166666667 ) 

 **************************************************************************
     freq (    1) =       0.818276 [THz] =      27.294739 [cm-1]
     freq (    2) =       1.831959 [THz] =      61.107578 [cm-1]
     freq (    3) =       3.623382 [THz] =     120.863020 [cm-1]
 **************************************************************************

     Mode symmetry, C_2v (mm2)  point group:

     freq (  1 -  1) =         27.3  [cm-1]   --> B_1  D_3  S_3      
     freq (  2 -  2) =         61.1  [cm-1]   --> B_2  D_4  S_4      
     freq (  3 -  3) =        120.9  [cm-1]   --> A_1  D_1  S_1      

     Calculation of q =    0.0000000  -0.3333333   0.3333333

   Info: using nr1, nr2, nr3 values from input

   Info: using nr1, nr2, nr3 values from input

     Parallelization info
     --------------------
     sticks:   dense  smooth     PW     G-vecs:    dense   smooth      PW
     Min          50      24      9                  911      315      72
     Max          51      25     11                  912      319      73
     Sum         809     399    151                14579     5089    1157



     bravais-lattice index     =            3
     lattice parameter (alat)  =       6.6862  a.u.
     unit-cell volume          =     149.4567 (a.u.)^3
     number of atoms/cell      =            1
     number of atomic types    =            1
     number of electrons       =         9.00
     number of Kohn-Sham states=            9
     kinetic-energy cutoff     =      40.0000  Ry
     charge density cutoff     =     320.0000  Ry
     Exchange-correlation      = SLA  PW   PBE  PBE ( 1  4  3  4 0 0)

     celldm(1)=   6.686237  celldm(2)=   0.000000  celldm(3)=   0.000000
     celldm(4)=   0.000000  celldm(5)=   0.000000  celldm(6)=   0.000000

     crystal axes: (cart. coord. in units of alat)
               a(1) = (   0.500000   0.500000   0.500000 )  
               a(2) = (  -0.500000   0.500000   0.500000 )  
               a(3) = (  -0.500000  -0.500000   0.500000 )  

     reciprocal axes: (cart. coord. in units 2 pi/alat)
               b(1) = (  1.000000  0.000000  1.000000 )  
               b(2) = ( -1.000000  1.000000  0.000000 )  
               b(3) = (  0.000000 -1.000000  1.000000 )  


     PseudoPot. # 1 for Na read from file:
     /home/s1333534/quantum_espresso/qe-6.1/pseudo/Na_pbe_v1.uspp.F.UPF
     MD5 check sum: 76a99c7e9422403d3e93cbc85ab7bccb
     Pseudo is Ultrasoft, Zval =  9.0
     Generated by new atomic code, or converted to UPF format
     Using radial grid of  819 points,  5 beta functions with: 
                l(1) =   0
                l(2) =   0
                l(3) =   1
                l(4) =   1
                l(5) =   2
     Q(r) pseudized with  8 coefficients,  rinner =    1.250   1.250   1.250
                                                       1.250   1.250

     atomic species   valence    mass     pseudopotential
        Na             9.00    22.99000     Na( 1.00)

     48 Sym. Ops., with inversion, found



   Cartesian axes

     site n.     atom                  positions (alat units)
         1           Na  tau(   1) = (   0.0000000   0.0000000   0.0000000  )

     number of k points=  4400  Marzari-Vanderbilt smearing, width (Ry)=  0.0200

     Number of k-points >= 100: set verbosity='high' to print them.

     Dense  grid:    14579 G-vectors     FFT dimensions: (  36,  36,  36)

     Smooth grid:     5089 G-vectors     FFT dimensions: (  24,  24,  24)

     Estimated max dynamical RAM per process >       0.50MB

     Estimated total allocated dynamical RAM >      32.03MB

     The potential is recalculated from file :
     ./_ph0/na.bcc.save/charge-density.dat

     Starting wfc are    5 atomic +    4 random wfc

     Band Structure Calculation
     Davidson diagonalization with overlap

     ethr =  1.11E-10,  avg # of iterations = 17.7

     total cpu time spent up to now is      119.9 secs

     End of band structure calculation

     Number of k-points >= 100: set verbosity='high' to print the bands.

     the Fermi energy is     4.4764 ev

     Writing output data file na.bcc.save

                                                                                

     bravais-lattice index     =            3
     lattice parameter (alat)  =       6.6862  a.u.
     unit-cell volume          =     149.4567 (a.u.)^3
     number of atoms/cell      =            1
     number of atomic types    =            1
     kinetic-energy cut-off    =      40.0000  Ry
     charge density cut-off    =     320.0000  Ry
     convergence threshold     =      1.0E-16
     beta                      =       0.7000
     number of iterations used =            4
     Exchange-correlation      = SLA  PW   PBE  PBE ( 1  4  3  4 0 0)


     celldm(1)=    6.68624  celldm(2)=    0.00000  celldm(3)=    0.00000
     celldm(4)=    0.00000  celldm(5)=    0.00000  celldm(6)=    0.00000

     crystal axes: (cart. coord. in units of alat)
               a(1) = (  0.5000  0.5000  0.5000 )  
               a(2) = ( -0.5000  0.5000  0.5000 )  
               a(3) = ( -0.5000 -0.5000  0.5000 )  

     reciprocal axes: (cart. coord. in units 2 pi/alat)
               b(1) = (  1.0000  0.0000  1.0000 )  
               b(2) = ( -1.0000  1.0000  0.0000 )  
               b(3) = (  0.0000 -1.0000  1.0000 )  


     Atoms inside the unit cell: 

     Cartesian axes

     site n.  atom      mass           positions (alat units)
        1     Na  22.9900   tau(    1) = (    0.00000    0.00000    0.00000  )

     Computing dynamical matrix for 
                    q = (   0.0000000  -0.3333333   0.3333333 )

      4 Sym.Ops. (no q -> -q+G )


     G cutoff =  362.3713  (    911 G-vectors)     FFT grid: ( 36, 36, 36)
     G cutoff =  181.1856  (    319 G-vectors)  smooth grid: ( 24, 24, 24)

     number of k points=  4400  Marzari-Vanderbilt smearing, width (Ry)=  0.0200

     PseudoPot. # 1 for Na read from file:
     /home/s1333534/quantum_espresso/qe-6.1/pseudo/Na_pbe_v1.uspp.F.UPF
     MD5 check sum: 76a99c7e9422403d3e93cbc85ab7bccb
     Pseudo is Ultrasoft, Zval =  9.0
     Generated by new atomic code, or converted to UPF format
     Using radial grid of  819 points,  5 beta functions with: 
                l(1) =   0
                l(2) =   0
                l(3) =   1
                l(4) =   1
                l(5) =   2
     Q(r) pseudized with  8 coefficients,  rinner =    1.250   1.250   1.250
                                                       1.250   1.250

     Mode symmetry, C_2v (mm2)  point group:


     Atomic displacements:
     There are   3 irreducible representations

     Representation     1      1 modes -A_1  D_1  S_1  To be done

     Representation     2      1 modes -B_1  D_3  S_3  To be done

     Representation     3      1 modes -B_2  D_4  S_4  To be done



     Alpha used in Ewald sum =   2.8000
     PHONON       :  5m32.21s CPU     6m 1.81s WALL



     Representation #  1 mode #   1

     Self-consistent Calculation

      iter #   1 total cpu time :   368.9 secs   av.it.:   5.8
      thresh= 1.000E-02 alpha_mix =  0.700 |ddv_scf|^2 =  7.034E-04

      iter #   2 total cpu time :   376.3 secs   av.it.:   6.7
      thresh= 2.652E-03 alpha_mix =  0.700 |ddv_scf|^2 =  3.307E-03

      iter #   3 total cpu time :   383.2 secs   av.it.:   6.1
      thresh= 5.751E-03 alpha_mix =  0.700 |ddv_scf|^2 =  7.069E-07

      iter #   4 total cpu time :   391.1 secs   av.it.:   7.7
      thresh= 8.408E-05 alpha_mix =  0.700 |ddv_scf|^2 =  1.026E-08

      iter #   5 total cpu time :   399.4 secs   av.it.:   8.3
      thresh= 1.013E-05 alpha_mix =  0.700 |ddv_scf|^2 =  1.036E-09

      iter #   6 total cpu time :   407.5 secs   av.it.:   8.0
      thresh= 3.219E-06 alpha_mix =  0.700 |ddv_scf|^2 =  1.413E-11

      iter #   7 total cpu time :   415.3 secs   av.it.:   7.6
      thresh= 3.759E-07 alpha_mix =  0.700 |ddv_scf|^2 =  1.465E-13

      iter #   8 total cpu time :   422.9 secs   av.it.:   7.5
      thresh= 3.827E-08 alpha_mix =  0.700 |ddv_scf|^2 =  1.491E-15

      iter #   9 total cpu time :   431.0 secs   av.it.:   7.6
      thresh= 3.861E-09 alpha_mix =  0.700 |ddv_scf|^2 =  4.486E-16

      iter #  10 total cpu time :   438.5 secs   av.it.:   6.9
      thresh= 2.118E-09 alpha_mix =  0.700 |ddv_scf|^2 =  1.714E-16

      iter #  11 total cpu time :   445.4 secs   av.it.:   6.8
      thresh= 1.309E-09 alpha_mix =  0.700 |ddv_scf|^2 =  1.525E-17

     End of self-consistent calculation

     Convergence has been achieved 


     Representation #  2 mode #   2

     Self-consistent Calculation

      iter #   1 total cpu time :   452.5 secs   av.it.:   5.5
      thresh= 1.000E-02 alpha_mix =  0.700 |ddv_scf|^2 =  1.463E-05

      iter #   2 total cpu time :   460.3 secs   av.it.:   7.7
      thresh= 3.825E-04 alpha_mix =  0.700 |ddv_scf|^2 =  2.660E-07

      iter #   3 total cpu time :   468.2 secs   av.it.:   7.9
      thresh= 5.157E-05 alpha_mix =  0.700 |ddv_scf|^2 =  3.900E-09

      iter #   4 total cpu time :   475.7 secs   av.it.:   7.5
      thresh= 6.245E-06 alpha_mix =  0.700 |ddv_scf|^2 =  1.058E-11

      iter #   5 total cpu time :   483.5 secs   av.it.:   7.7
      thresh= 3.252E-07 alpha_mix =  0.700 |ddv_scf|^2 =  3.511E-14

      iter #   6 total cpu time :   491.0 secs   av.it.:   7.6
      thresh= 1.874E-08 alpha_mix =  0.700 |ddv_scf|^2 =  4.257E-16

      iter #   7 total cpu time :   498.7 secs   av.it.:   7.7
      thresh= 2.063E-09 alpha_mix =  0.700 |ddv_scf|^2 =  2.356E-19

     End of self-consistent calculation

     Convergence has been achieved 


     Representation #  3 mode #   3

     Self-consistent Calculation

      iter #   1 total cpu time :   505.6 secs   av.it.:   5.6
      thresh= 1.000E-02 alpha_mix =  0.700 |ddv_scf|^2 =  1.631E-05

      iter #   2 total cpu time :   513.4 secs   av.it.:   7.6
      thresh= 4.039E-04 alpha_mix =  0.700 |ddv_scf|^2 =  2.589E-07

      iter #   3 total cpu time :   521.3 secs   av.it.:   7.9
      thresh= 5.088E-05 alpha_mix =  0.700 |ddv_scf|^2 =  7.029E-09

      iter #   4 total cpu time :   528.8 secs   av.it.:   7.5
      thresh= 8.384E-06 alpha_mix =  0.700 |ddv_scf|^2 =  2.227E-11

      iter #   5 total cpu time :   536.7 secs   av.it.:   7.7
      thresh= 4.719E-07 alpha_mix =  0.700 |ddv_scf|^2 =  3.698E-14

      iter #   6 total cpu time :   544.2 secs   av.it.:   7.3
      thresh= 1.923E-08 alpha_mix =  0.700 |ddv_scf|^2 =  1.566E-15

      iter #   7 total cpu time :   552.0 secs   av.it.:   7.6
      thresh= 3.957E-09 alpha_mix =  0.700 |ddv_scf|^2 =  1.056E-18

     End of self-consistent calculation

     Convergence has been achieved 

     Number of q in the star =   12
     List of q in the star:
          1   0.000000000  -0.333333333   0.333333333
          2  -0.333333333   0.000000000   0.333333333
          3   0.333333333   0.000000000   0.333333333
          4   0.000000000   0.333333333   0.333333333
          5   0.333333333   0.333333333   0.000000000
          6  -0.333333333   0.333333333   0.000000000
          7   0.333333333  -0.333333333   0.000000000
          8  -0.333333333  -0.333333333   0.000000000
          9  -0.333333333   0.000000000  -0.333333333
         10   0.000000000  -0.333333333  -0.333333333
         11   0.000000000   0.333333333  -0.333333333
         12   0.333333333   0.000000000  -0.333333333

     Diagonalizing the dynamical matrix

     q = (    0.000000000  -0.333333333   0.333333333 ) 

 **************************************************************************
     freq (    1) =       1.328534 [THz] =      44.315116 [cm-1]
     freq (    2) =       3.148861 [THz] =     105.034713 [cm-1]
     freq (    3) =       6.443160 [THz] =     214.920670 [cm-1]
 **************************************************************************

     Mode symmetry, C_2v (mm2)  point group:

     freq (  1 -  1) =         44.3  [cm-1]   --> B_1  D_3  S_3      
     freq (  2 -  2) =        105.0  [cm-1]   --> B_2  D_4  S_4      
     freq (  3 -  3) =        214.9  [cm-1]   --> A_1  D_1  S_1      

     Calculation of q =    0.0000000   0.5000000  -0.5000000

   Info: using nr1, nr2, nr3 values from input

   Info: using nr1, nr2, nr3 values from input

     Parallelization info
     --------------------
     sticks:   dense  smooth     PW     G-vecs:    dense   smooth      PW
     Min          50      24      9                  911      315      76
     Max          51      25     10                  912      319      79
     Sum         809     399    159                14579     5089    1253



     bravais-lattice index     =            3
     lattice parameter (alat)  =       6.6862  a.u.
     unit-cell volume          =     149.4567 (a.u.)^3
     number of atoms/cell      =            1
     number of atomic types    =            1
     number of electrons       =         9.00
     number of Kohn-Sham states=            9
     kinetic-energy cutoff     =      40.0000  Ry
     charge density cutoff     =     320.0000  Ry
     Exchange-correlation      = SLA  PW   PBE  PBE ( 1  4  3  4 0 0)

     celldm(1)=   6.686237  celldm(2)=   0.000000  celldm(3)=   0.000000
     celldm(4)=   0.000000  celldm(5)=   0.000000  celldm(6)=   0.000000

     crystal axes: (cart. coord. in units of alat)
               a(1) = (   0.500000   0.500000   0.500000 )  
               a(2) = (  -0.500000   0.500000   0.500000 )  
               a(3) = (  -0.500000  -0.500000   0.500000 )  

     reciprocal axes: (cart. coord. in units 2 pi/alat)
               b(1) = (  1.000000  0.000000  1.000000 )  
               b(2) = ( -1.000000  1.000000  0.000000 )  
               b(3) = (  0.000000 -1.000000  1.000000 )  


     PseudoPot. # 1 for Na read from file:
     /home/s1333534/quantum_espresso/qe-6.1/pseudo/Na_pbe_v1.uspp.F.UPF
     MD5 check sum: 76a99c7e9422403d3e93cbc85ab7bccb
     Pseudo is Ultrasoft, Zval =  9.0
     Generated by new atomic code, or converted to UPF format
     Using radial grid of  819 points,  5 beta functions with: 
                l(1) =   0
                l(2) =   0
                l(3) =   1
                l(4) =   1
                l(5) =   2
     Q(r) pseudized with  8 coefficients,  rinner =    1.250   1.250   1.250
                                                       1.250   1.250

     atomic species   valence    mass     pseudopotential
        Na             9.00    22.99000     Na( 1.00)

     48 Sym. Ops., with inversion, found



   Cartesian axes

     site n.     atom                  positions (alat units)
         1           Na  tau(   1) = (   0.0000000   0.0000000   0.0000000  )

     number of k points=  2310  Marzari-Vanderbilt smearing, width (Ry)=  0.0200

     Number of k-points >= 100: set verbosity='high' to print them.

     Dense  grid:    14579 G-vectors     FFT dimensions: (  36,  36,  36)

     Smooth grid:     5089 G-vectors     FFT dimensions: (  24,  24,  24)

     Estimated max dynamical RAM per process >       0.50MB

     Estimated total allocated dynamical RAM >      32.03MB

     The potential is recalculated from file :
     ./_ph0/na.bcc.save/charge-density.dat

     Starting wfc are    5 atomic +    4 random wfc

     Band Structure Calculation
     Davidson diagonalization with overlap

     ethr =  1.11E-10,  avg # of iterations = 17.7

     total cpu time spent up to now is      160.5 secs

     End of band structure calculation

     Number of k-points >= 100: set verbosity='high' to print the bands.

     the Fermi energy is     4.4764 ev

     Writing output data file na.bcc.save

                                                                                

     bravais-lattice index     =            3
     lattice parameter (alat)  =       6.6862  a.u.
     unit-cell volume          =     149.4567 (a.u.)^3
     number of atoms/cell      =            1
     number of atomic types    =            1
     kinetic-energy cut-off    =      40.0000  Ry
     charge density cut-off    =     320.0000  Ry
     convergence threshold     =      1.0E-16
     beta                      =       0.7000
     number of iterations used =            4
     Exchange-correlation      = SLA  PW   PBE  PBE ( 1  4  3  4 0 0)


     celldm(1)=    6.68624  celldm(2)=    0.00000  celldm(3)=    0.00000
     celldm(4)=    0.00000  celldm(5)=    0.00000  celldm(6)=    0.00000

     crystal axes: (cart. coord. in units of alat)
               a(1) = (  0.5000  0.5000  0.5000 )  
               a(2) = ( -0.5000  0.5000  0.5000 )  
               a(3) = ( -0.5000 -0.5000  0.5000 )  

     reciprocal axes: (cart. coord. in units 2 pi/alat)
               b(1) = (  1.0000  0.0000  1.0000 )  
               b(2) = ( -1.0000  1.0000  0.0000 )  
               b(3) = (  0.0000 -1.0000  1.0000 )  


     Atoms inside the unit cell: 

     Cartesian axes

     site n.  atom      mass           positions (alat units)
        1     Na  22.9900   tau(    1) = (    0.00000    0.00000    0.00000  )

     Computing dynamical matrix for 
                    q = (   0.0000000   0.5000000  -0.5000000 )

      9 Sym.Ops. (with q -> -q+G )


     G cutoff =  362.3713  (    911 G-vectors)     FFT grid: ( 36, 36, 36)
     G cutoff =  181.1856  (    319 G-vectors)  smooth grid: ( 24, 24, 24)

     number of k points=  2310  Marzari-Vanderbilt smearing, width (Ry)=  0.0200

     PseudoPot. # 1 for Na read from file:
     /home/s1333534/quantum_espresso/qe-6.1/pseudo/Na_pbe_v1.uspp.F.UPF
     MD5 check sum: 76a99c7e9422403d3e93cbc85ab7bccb
     Pseudo is Ultrasoft, Zval =  9.0
     Generated by new atomic code, or converted to UPF format
     Using radial grid of  819 points,  5 beta functions with: 
                l(1) =   0
                l(2) =   0
                l(3) =   1
                l(4) =   1
                l(5) =   2
     Q(r) pseudized with  8 coefficients,  rinner =    1.250   1.250   1.250
                                                       1.250   1.250

     Mode symmetry, D_2h (mmm)  point group:


     Atomic displacements:
     There are   3 irreducible representations

     Representation     1      1 modes -B_1u  To be done

     Representation     2      1 modes -B_2u  To be done

     Representation     3      1 modes -B_3u  To be done



     Alpha used in Ewald sum =   2.8000
     PHONON       :  8m59.12s CPU     9m48.68s WALL



     Representation #  1 mode #   1

     Self-consistent Calculation

      iter #   1 total cpu time :   592.1 secs   av.it.:   5.6
      thresh= 1.000E-02 alpha_mix =  0.700 |ddv_scf|^2 =  1.718E-05

      iter #   2 total cpu time :   596.2 secs   av.it.:   7.6
      thresh= 4.145E-04 alpha_mix =  0.700 |ddv_scf|^2 =  2.500E-07

      iter #   3 total cpu time :   600.3 secs   av.it.:   7.8
      thresh= 5.000E-05 alpha_mix =  0.700 |ddv_scf|^2 =  9.123E-09

      iter #   4 total cpu time :   604.3 secs   av.it.:   7.3
      thresh= 9.551E-06 alpha_mix =  0.700 |ddv_scf|^2 =  2.937E-11

      iter #   5 total cpu time :   608.6 secs   av.it.:   7.6
      thresh= 5.419E-07 alpha_mix =  0.700 |ddv_scf|^2 =  3.505E-14

      iter #   6 total cpu time :   612.3 secs   av.it.:   7.0
      thresh= 1.872E-08 alpha_mix =  0.700 |ddv_scf|^2 =  1.802E-15

      iter #   7 total cpu time :   616.2 secs   av.it.:   7.4
      thresh= 4.245E-09 alpha_mix =  0.700 |ddv_scf|^2 =  9.915E-19

     End of self-consistent calculation

     Convergence has been achieved 


     Representation #  2 mode #   2

     Self-consistent Calculation

      iter #   1 total cpu time :   619.8 secs   av.it.:   5.5
      thresh= 1.000E-02 alpha_mix =  0.700 |ddv_scf|^2 =  1.491E-05

      iter #   2 total cpu time :   623.6 secs   av.it.:   7.6
      thresh= 3.861E-04 alpha_mix =  0.700 |ddv_scf|^2 =  2.581E-07

      iter #   3 total cpu time :   627.5 secs   av.it.:   7.8
      thresh= 5.080E-05 alpha_mix =  0.700 |ddv_scf|^2 =  4.661E-09

      iter #   4 total cpu time :   631.2 secs   av.it.:   7.3
      thresh= 6.827E-06 alpha_mix =  0.700 |ddv_scf|^2 =  1.198E-11

      iter #   5 total cpu time :   635.3 secs   av.it.:   7.6
      thresh= 3.461E-07 alpha_mix =  0.700 |ddv_scf|^2 =  2.911E-14

      iter #   6 total cpu time :   639.2 secs   av.it.:   7.5
      thresh= 1.706E-08 alpha_mix =  0.700 |ddv_scf|^2 =  3.914E-16

      iter #   7 total cpu time :   643.2 secs   av.it.:   7.5
      thresh= 1.978E-09 alpha_mix =  0.700 |ddv_scf|^2 =  8.599E-20

     End of self-consistent calculation

     Convergence has been achieved 


     Representation #  3 mode #   3

     Self-consistent Calculation

      iter #   1 total cpu time :   647.0 secs   av.it.:   5.7
      thresh= 1.000E-02 alpha_mix =  0.700 |ddv_scf|^2 =  1.446E-04

      iter #   2 total cpu time :   650.7 secs   av.it.:   6.9
      thresh= 1.203E-03 alpha_mix =  0.700 |ddv_scf|^2 =  6.538E-05

      iter #   3 total cpu time :   654.9 secs   av.it.:   6.8
      thresh= 8.086E-04 alpha_mix =  0.700 |ddv_scf|^2 =  8.467E-08

      iter #   4 total cpu time :   658.8 secs   av.it.:   7.8
      thresh= 2.910E-05 alpha_mix =  0.700 |ddv_scf|^2 =  2.578E-10

      iter #   5 total cpu time :   662.3 secs   av.it.:   6.5
      thresh= 1.606E-06 alpha_mix =  0.700 |ddv_scf|^2 =  6.229E-12

      iter #   6 total cpu time :   666.1 secs   av.it.:   6.9
      thresh= 2.496E-07 alpha_mix =  0.700 |ddv_scf|^2 =  1.179E-14

      iter #   7 total cpu time :   669.8 secs   av.it.:   7.0
      thresh= 1.086E-08 alpha_mix =  0.700 |ddv_scf|^2 =  1.427E-17

     End of self-consistent calculation

     Convergence has been achieved 

     Number of q in the star =    6
     List of q in the star:
          1   0.000000000   0.500000000  -0.500000000
          2  -0.500000000  -0.500000000   0.000000000
          3   0.500000000  -0.500000000   0.000000000
          4   0.500000000   0.000000000   0.500000000
          5   0.000000000  -0.500000000  -0.500000000
          6   0.500000000   0.000000000  -0.500000000

     Diagonalizing the dynamical matrix

     q = (    0.000000000   0.500000000  -0.500000000 ) 

 **************************************************************************
     freq (    1) =       1.513059 [THz] =      50.470226 [cm-1]
     freq (    2) =       3.637858 [THz] =     121.345876 [cm-1]
     freq (    3) =       7.502026 [THz] =     250.240641 [cm-1]
 **************************************************************************

     Mode symmetry, D_2h (mmm)  point group:

     freq (  1 -  1) =         50.5  [cm-1]   --> B_2u               
     freq (  2 -  2) =        121.3  [cm-1]   --> B_1u               
     freq (  3 -  3) =        250.2  [cm-1]   --> B_3u               

     Calculation of q =   -0.1666667  -0.1666667   0.3333333

   Info: using nr1, nr2, nr3 values from input

   Info: using nr1, nr2, nr3 values from input

     Parallelization info
     --------------------
     sticks:   dense  smooth     PW     G-vecs:    dense   smooth      PW
     Min          50      24      8                  911      315      65
     Max          51      25      9                  912      319      68
     Sum         809     399    139                14579     5089    1061



     bravais-lattice index     =            3
     lattice parameter (alat)  =       6.6862  a.u.
     unit-cell volume          =     149.4567 (a.u.)^3
     number of atoms/cell      =            1
     number of atomic types    =            1
     number of electrons       =         9.00
     number of Kohn-Sham states=            9
     kinetic-energy cutoff     =      40.0000  Ry
     charge density cutoff     =     320.0000  Ry
     Exchange-correlation      = SLA  PW   PBE  PBE ( 1  4  3  4 0 0)

     celldm(1)=   6.686237  celldm(2)=   0.000000  celldm(3)=   0.000000
     celldm(4)=   0.000000  celldm(5)=   0.000000  celldm(6)=   0.000000

     crystal axes: (cart. coord. in units of alat)
               a(1) = (   0.500000   0.500000   0.500000 )  
               a(2) = (  -0.500000   0.500000   0.500000 )  
               a(3) = (  -0.500000  -0.500000   0.500000 )  

     reciprocal axes: (cart. coord. in units 2 pi/alat)
               b(1) = (  1.000000  0.000000  1.000000 )  
               b(2) = ( -1.000000  1.000000  0.000000 )  
               b(3) = (  0.000000 -1.000000  1.000000 )  


     PseudoPot. # 1 for Na read from file:
     /home/s1333534/quantum_espresso/qe-6.1/pseudo/Na_pbe_v1.uspp.F.UPF
     MD5 check sum: 76a99c7e9422403d3e93cbc85ab7bccb
     Pseudo is Ultrasoft, Zval =  9.0
     Generated by new atomic code, or converted to UPF format
     Using radial grid of  819 points,  5 beta functions with: 
                l(1) =   0
                l(2) =   0
                l(3) =   1
                l(4) =   1
                l(5) =   2
     Q(r) pseudized with  8 coefficients,  rinner =    1.250   1.250   1.250
                                                       1.250   1.250

     atomic species   valence    mass     pseudopotential
        Na             9.00    22.99000     Na( 1.00)

     48 Sym. Ops., with inversion, found



   Cartesian axes

     site n.     atom                  positions (alat units)
         1           Na  tau(   1) = (   0.0000000   0.0000000   0.0000000  )

     number of k points=  8400  Marzari-Vanderbilt smearing, width (Ry)=  0.0200

     Number of k-points >= 100: set verbosity='high' to print them.

     Dense  grid:    14579 G-vectors     FFT dimensions: (  36,  36,  36)

     Smooth grid:     5089 G-vectors     FFT dimensions: (  24,  24,  24)

     Estimated max dynamical RAM per process >       0.50MB

     Estimated total allocated dynamical RAM >      32.03MB

     The potential is recalculated from file :
     ./_ph0/na.bcc.save/charge-density.dat

     Starting wfc are    5 atomic +    4 random wfc

     Band Structure Calculation
     Davidson diagonalization with overlap

     ethr =  1.11E-10,  avg # of iterations = 17.7

     total cpu time spent up to now is      266.0 secs

     End of band structure calculation

     Number of k-points >= 100: set verbosity='high' to print the bands.

     the Fermi energy is     4.4764 ev

     Writing output data file na.bcc.save

                                                                                

     bravais-lattice index     =            3
     lattice parameter (alat)  =       6.6862  a.u.
     unit-cell volume          =     149.4567 (a.u.)^3
     number of atoms/cell      =            1
     number of atomic types    =            1
     kinetic-energy cut-off    =      40.0000  Ry
     charge density cut-off    =     320.0000  Ry
     convergence threshold     =      1.0E-16
     beta                      =       0.7000
     number of iterations used =            4
     Exchange-correlation      = SLA  PW   PBE  PBE ( 1  4  3  4 0 0)


     celldm(1)=    6.68624  celldm(2)=    0.00000  celldm(3)=    0.00000
     celldm(4)=    0.00000  celldm(5)=    0.00000  celldm(6)=    0.00000

     crystal axes: (cart. coord. in units of alat)
               a(1) = (  0.5000  0.5000  0.5000 )  
               a(2) = ( -0.5000  0.5000  0.5000 )  
               a(3) = ( -0.5000 -0.5000  0.5000 )  

     reciprocal axes: (cart. coord. in units 2 pi/alat)
               b(1) = (  1.0000  0.0000  1.0000 )  
               b(2) = ( -1.0000  1.0000  0.0000 )  
               b(3) = (  0.0000 -1.0000  1.0000 )  


     Atoms inside the unit cell: 

     Cartesian axes

     site n.  atom      mass           positions (alat units)
        1     Na  22.9900   tau(    1) = (    0.00000    0.00000    0.00000  )

     Computing dynamical matrix for 
                    q = (  -0.1666667  -0.1666667   0.3333333 )

      2 Sym.Ops. (no q -> -q+G )


     G cutoff =  362.3713  (    911 G-vectors)     FFT grid: ( 36, 36, 36)
     G cutoff =  181.1856  (    319 G-vectors)  smooth grid: ( 24, 24, 24)

     number of k points=  8400  Marzari-Vanderbilt smearing, width (Ry)=  0.0200

     PseudoPot. # 1 for Na read from file:
     /home/s1333534/quantum_espresso/qe-6.1/pseudo/Na_pbe_v1.uspp.F.UPF
     MD5 check sum: 76a99c7e9422403d3e93cbc85ab7bccb
     Pseudo is Ultrasoft, Zval =  9.0
     Generated by new atomic code, or converted to UPF format
     Using radial grid of  819 points,  5 beta functions with: 
                l(1) =   0
                l(2) =   0
                l(3) =   1
                l(4) =   1
                l(5) =   2
     Q(r) pseudized with  8 coefficients,  rinner =    1.250   1.250   1.250
                                                       1.250   1.250

     Mode symmetry, C_s (m)     point group:


     Atomic displacements:
     There are   3 irreducible representations

     Representation     1      1 modes -A'  To be done

     Representation     2      1 modes -A'  To be done

     Representation     3      1 modes -A''  To be done



     Alpha used in Ewald sum =   2.8000
     PHONON       : 12m12.09s CPU    13m18.25s WALL



     Representation #  1 mode #   1

     Self-consistent Calculation

      iter #   1 total cpu time :   811.7 secs   av.it.:   5.7
      thresh= 1.000E-02 alpha_mix =  0.700 |ddv_scf|^2 =  1.739E-04

      iter #   2 total cpu time :   825.2 secs   av.it.:   7.3
      thresh= 1.319E-03 alpha_mix =  0.700 |ddv_scf|^2 =  1.576E-03

      iter #   3 total cpu time :   836.4 secs   av.it.:   5.6
      thresh= 3.969E-03 alpha_mix =  0.700 |ddv_scf|^2 =  1.758E-07

      iter #   4 total cpu time :   851.1 secs   av.it.:   8.3
      thresh= 4.193E-05 alpha_mix =  0.700 |ddv_scf|^2 =  4.524E-09

      iter #   5 total cpu time :   865.1 secs   av.it.:   8.0
      thresh= 6.726E-06 alpha_mix =  0.700 |ddv_scf|^2 =  3.264E-10

      iter #   6 total cpu time :   879.6 secs   av.it.:   8.1
      thresh= 1.807E-06 alpha_mix =  0.700 |ddv_scf|^2 =  2.602E-11

      iter #   7 total cpu time :   893.6 secs   av.it.:   7.7
      thresh= 5.101E-07 alpha_mix =  0.700 |ddv_scf|^2 =  7.443E-11

      iter #   8 total cpu time :   906.3 secs   av.it.:   6.5
      thresh= 8.627E-07 alpha_mix =  0.700 |ddv_scf|^2 =  2.581E-11

      iter #   9 total cpu time :   918.0 secs   av.it.:   6.2
      thresh= 5.080E-07 alpha_mix =  0.700 |ddv_scf|^2 =  7.164E-13

      iter #  10 total cpu time :   931.4 secs   av.it.:   7.3
      thresh= 8.464E-08 alpha_mix =  0.700 |ddv_scf|^2 =  7.422E-15

      iter #  11 total cpu time :   945.5 secs   av.it.:   8.0
      thresh= 8.615E-09 alpha_mix =  0.700 |ddv_scf|^2 =  1.615E-16

      iter #  12 total cpu time :   959.9 secs   av.it.:   7.9
      thresh= 1.271E-09 alpha_mix =  0.700 |ddv_scf|^2 =  2.594E-17

     End of self-consistent calculation

     Convergence has been achieved 


     Representation #  2 mode #   2

     Self-consistent Calculation

      iter #   1 total cpu time :   973.3 secs   av.it.:   5.8
      thresh= 1.000E-02 alpha_mix =  0.700 |ddv_scf|^2 =  1.425E-03

      iter #   2 total cpu time :   986.0 secs   av.it.:   6.7
      thresh= 3.774E-03 alpha_mix =  0.700 |ddv_scf|^2 =  1.392E-02

      iter #   3 total cpu time :   997.6 secs   av.it.:   5.8
      thresh= 1.000E-02 alpha_mix =  0.700 |ddv_scf|^2 =  1.501E-06

      iter #   4 total cpu time :  1011.7 secs   av.it.:   7.7
      thresh= 1.225E-04 alpha_mix =  0.700 |ddv_scf|^2 =  6.552E-09

      iter #   5 total cpu time :  1026.9 secs   av.it.:   8.4
      thresh= 8.094E-06 alpha_mix =  0.700 |ddv_scf|^2 =  1.523E-09

      iter #   6 total cpu time :  1040.9 secs   av.it.:   7.8
      thresh= 3.903E-06 alpha_mix =  0.700 |ddv_scf|^2 =  1.168E-11

      iter #   7 total cpu time :  1055.2 secs   av.it.:   7.8
      thresh= 3.418E-07 alpha_mix =  0.700 |ddv_scf|^2 =  7.417E-12

      iter #   8 total cpu time :  1067.8 secs   av.it.:   6.7
      thresh= 2.723E-07 alpha_mix =  0.700 |ddv_scf|^2 =  4.596E-12

      iter #   9 total cpu time :  1081.2 secs   av.it.:   7.1
      thresh= 2.144E-07 alpha_mix =  0.700 |ddv_scf|^2 =  2.457E-13

      iter #  10 total cpu time :  1094.2 secs   av.it.:   7.3
      thresh= 4.957E-08 alpha_mix =  0.700 |ddv_scf|^2 =  5.861E-14

      iter #  11 total cpu time :  1108.0 secs   av.it.:   7.4
      thresh= 2.421E-08 alpha_mix =  0.700 |ddv_scf|^2 =  4.474E-16

      iter #  12 total cpu time :  1122.5 secs   av.it.:   8.1
      thresh= 2.115E-09 alpha_mix =  0.700 |ddv_scf|^2 =  2.376E-17

     End of self-consistent calculation

     Convergence has been achieved 


     Representation #  3 mode #   3

     Self-consistent Calculation

      iter #   1 total cpu time :  1135.8 secs   av.it.:   5.5
      thresh= 1.000E-02 alpha_mix =  0.700 |ddv_scf|^2 =  1.732E-05

      iter #   2 total cpu time :  1149.8 secs   av.it.:   7.7
      thresh= 4.162E-04 alpha_mix =  0.700 |ddv_scf|^2 =  2.351E-07

      iter #   3 total cpu time :  1164.1 secs   av.it.:   7.9
      thresh= 4.848E-05 alpha_mix =  0.700 |ddv_scf|^2 =  8.717E-09

      iter #   4 total cpu time :  1178.2 secs   av.it.:   7.7
      thresh= 9.337E-06 alpha_mix =  0.700 |ddv_scf|^2 =  6.529E-11

      iter #   5 total cpu time :  1192.0 secs   av.it.:   7.5
      thresh= 8.080E-07 alpha_mix =  0.700 |ddv_scf|^2 =  5.857E-14

      iter #   6 total cpu time :  1205.9 secs   av.it.:   7.5
      thresh= 2.420E-08 alpha_mix =  0.700 |ddv_scf|^2 =  3.023E-15

      iter #   7 total cpu time :  1219.5 secs   av.it.:   7.5
      thresh= 5.498E-09 alpha_mix =  0.700 |ddv_scf|^2 =  9.411E-18

     End of self-consistent calculation

     Convergence has been achieved 

     Number of q in the star =   24
     List of q in the star:
          1  -0.166666667  -0.166666667   0.333333333
          2  -0.166666667  -0.333333333   0.166666667
          3   0.166666667  -0.333333333   0.166666667
          4  -0.166666667   0.333333333  -0.166666667
          5   0.166666667   0.333333333  -0.166666667
          6   0.166666667   0.166666667  -0.333333333
          7  -0.166666667   0.166666667  -0.333333333
          8   0.333333333   0.166666667  -0.166666667
          9  -0.333333333   0.166666667   0.166666667
         10   0.333333333  -0.166666667   0.166666667
         11  -0.333333333  -0.166666667  -0.166666667
         12  -0.166666667  -0.166666667  -0.333333333
         13  -0.166666667   0.333333333   0.166666667
         14  -0.166666667  -0.333333333  -0.166666667
         15  -0.166666667   0.166666667   0.333333333
         16   0.166666667  -0.166666667   0.333333333
         17   0.166666667  -0.333333333  -0.166666667
         18  -0.333333333   0.166666667  -0.166666667
         19   0.333333333   0.166666667   0.166666667
         20  -0.333333333  -0.166666667   0.166666667
         21   0.333333333  -0.166666667  -0.166666667
         22   0.166666667  -0.166666667  -0.333333333
         23   0.166666667   0.166666667   0.333333333
         24   0.166666667   0.333333333   0.166666667

     Diagonalizing the dynamical matrix

     q = (   -0.166666667  -0.166666667   0.333333333 ) 

 **************************************************************************
     freq (    1) =       1.896402 [THz] =      63.257155 [cm-1]
     freq (    2) =       3.121149 [THz] =     104.110328 [cm-1]
     freq (    3) =       5.601729 [THz] =     186.853563 [cm-1]
 **************************************************************************

     Mode symmetry, C_s (m)     point group:

     freq (  1 -  1) =         63.3  [cm-1]   --> A'                 
     freq (  2 -  2) =        104.1  [cm-1]   --> A''                
     freq (  3 -  3) =        186.9  [cm-1]   --> A'                 

     Calculation of q =   -0.1666667   0.6666667  -0.5000000

   Info: using nr1, nr2, nr3 values from input

   Info: using nr1, nr2, nr3 values from input

     Parallelization info
     --------------------
     sticks:   dense  smooth     PW     G-vecs:    dense   smooth      PW
     Min          50      24     10                  911      315      80
     Max          51      25     11                  912      319      81
     Sum         809     399    165                14579     5089    1289



     bravais-lattice index     =            3
     lattice parameter (alat)  =       6.6862  a.u.
     unit-cell volume          =     149.4567 (a.u.)^3
     number of atoms/cell      =            1
     number of atomic types    =            1
     number of electrons       =         9.00
     number of Kohn-Sham states=            9
     kinetic-energy cutoff     =      40.0000  Ry
     charge density cutoff     =     320.0000  Ry
     Exchange-correlation      = SLA  PW   PBE  PBE ( 1  4  3  4 0 0)

     celldm(1)=   6.686237  celldm(2)=   0.000000  celldm(3)=   0.000000
     celldm(4)=   0.000000  celldm(5)=   0.000000  celldm(6)=   0.000000

     crystal axes: (cart. coord. in units of alat)
               a(1) = (   0.500000   0.500000   0.500000 )  
               a(2) = (  -0.500000   0.500000   0.500000 )  
               a(3) = (  -0.500000  -0.500000   0.500000 )  

     reciprocal axes: (cart. coord. in units 2 pi/alat)
               b(1) = (  1.000000  0.000000  1.000000 )  
               b(2) = ( -1.000000  1.000000  0.000000 )  
               b(3) = (  0.000000 -1.000000  1.000000 )  


     PseudoPot. # 1 for Na read from file:
     /home/s1333534/quantum_espresso/qe-6.1/pseudo/Na_pbe_v1.uspp.F.UPF
     MD5 check sum: 76a99c7e9422403d3e93cbc85ab7bccb
     Pseudo is Ultrasoft, Zval =  9.0
     Generated by new atomic code, or converted to UPF format
     Using radial grid of  819 points,  5 beta functions with: 
                l(1) =   0
                l(2) =   0
                l(3) =   1
                l(4) =   1
                l(5) =   2
     Q(r) pseudized with  8 coefficients,  rinner =    1.250   1.250   1.250
                                                       1.250   1.250

     atomic species   valence    mass     pseudopotential
        Na             9.00    22.99000     Na( 1.00)

     48 Sym. Ops., with inversion, found



   Cartesian axes

     site n.     atom                  positions (alat units)
         1           Na  tau(   1) = (   0.0000000   0.0000000   0.0000000  )

     number of k points= 16000  Marzari-Vanderbilt smearing, width (Ry)=  0.0200

     Number of k-points >= 100: set verbosity='high' to print them.

     Dense  grid:    14579 G-vectors     FFT dimensions: (  36,  36,  36)

     Smooth grid:     5089 G-vectors     FFT dimensions: (  24,  24,  24)

     Estimated max dynamical RAM per process >       0.50MB

     Estimated total allocated dynamical RAM >      32.03MB

     The potential is recalculated from file :
     ./_ph0/na.bcc.save/charge-density.dat

     Starting wfc are    5 atomic +    4 random wfc

     Band Structure Calculation
     Davidson diagonalization with overlap

     ethr =  1.11E-10,  avg # of iterations = 17.6

     total cpu time spent up to now is      484.4 secs

     End of band structure calculation

     Number of k-points >= 100: set verbosity='high' to print the bands.

     the Fermi energy is     4.4764 ev

     Writing output data file na.bcc.save

                                                                                

     bravais-lattice index     =            3
     lattice parameter (alat)  =       6.6862  a.u.
     unit-cell volume          =     149.4567 (a.u.)^3
     number of atoms/cell      =            1
     number of atomic types    =            1
     kinetic-energy cut-off    =      40.0000  Ry
     charge density cut-off    =     320.0000  Ry
     convergence threshold     =      1.0E-16
     beta                      =       0.7000
     number of iterations used =            4
     Exchange-correlation      = SLA  PW   PBE  PBE ( 1  4  3  4 0 0)


     celldm(1)=    6.68624  celldm(2)=    0.00000  celldm(3)=    0.00000
     celldm(4)=    0.00000  celldm(5)=    0.00000  celldm(6)=    0.00000

     crystal axes: (cart. coord. in units of alat)
               a(1) = (  0.5000  0.5000  0.5000 )  
               a(2) = ( -0.5000  0.5000  0.5000 )  
               a(3) = ( -0.5000 -0.5000  0.5000 )  

     reciprocal axes: (cart. coord. in units 2 pi/alat)
               b(1) = (  1.0000  0.0000  1.0000 )  
               b(2) = ( -1.0000  1.0000  0.0000 )  
               b(3) = (  0.0000 -1.0000  1.0000 )  


     Atoms inside the unit cell: 

     Cartesian axes

     site n.  atom      mass           positions (alat units)
        1     Na  22.9900   tau(    1) = (    0.00000    0.00000    0.00000  )

     Computing dynamical matrix for 
                    q = (  -0.1666667   0.6666667  -0.5000000 )

     No symmetry!

     G cutoff =  362.3713  (    911 G-vectors)     FFT grid: ( 36, 36, 36)
     G cutoff =  181.1856  (    319 G-vectors)  smooth grid: ( 24, 24, 24)

     number of k points= 16000  Marzari-Vanderbilt smearing, width (Ry)=  0.0200

     PseudoPot. # 1 for Na read from file:
     /home/s1333534/quantum_espresso/qe-6.1/pseudo/Na_pbe_v1.uspp.F.UPF
     MD5 check sum: 76a99c7e9422403d3e93cbc85ab7bccb
     Pseudo is Ultrasoft, Zval =  9.0
     Generated by new atomic code, or converted to UPF format
     Using radial grid of  819 points,  5 beta functions with: 
                l(1) =   0
                l(2) =   0
                l(3) =   1
                l(4) =   1
                l(5) =   2
     Q(r) pseudized with  8 coefficients,  rinner =    1.250   1.250   1.250
                                                       1.250   1.250

     Mode symmetry, C_1 (1)     point group:


     Atomic displacements:
     There are   3 irreducible representations

     Representation     1      1 modes -A  To be done

     Representation     2      1 modes -A  To be done

     Representation     3      1 modes -A  To be done



     Alpha used in Ewald sum =   2.8000
     PHONON       : 22m26.95s CPU    24m32.53s WALL



     Representation #  1 mode #   1

     Self-consistent Calculation

      iter #   1 total cpu time :  1498.7 secs   av.it.:   5.8
      thresh= 1.000E-02 alpha_mix =  0.700 |ddv_scf|^2 =  1.919E-05

      iter #   2 total cpu time :  1528.3 secs   av.it.:   7.9
      thresh= 4.381E-04 alpha_mix =  0.700 |ddv_scf|^2 =  2.270E-06

      iter #   3 total cpu time :  1556.8 secs   av.it.:   7.5
      thresh= 1.507E-04 alpha_mix =  0.700 |ddv_scf|^2 =  8.480E-07

      iter #   4 total cpu time :  1584.3 secs   av.it.:   7.4
      thresh= 9.209E-05 alpha_mix =  0.700 |ddv_scf|^2 =  4.431E-09

      iter #   5 total cpu time :  1613.5 secs   av.it.:   7.8
      thresh= 6.657E-06 alpha_mix =  0.700 |ddv_scf|^2 =  3.408E-10

      iter #   6 total cpu time :  1643.1 secs   av.it.:   7.9
      thresh= 1.846E-06 alpha_mix =  0.700 |ddv_scf|^2 =  5.350E-12

      iter #   7 total cpu time :  1674.5 secs   av.it.:   8.3
      thresh= 2.313E-07 alpha_mix =  0.700 |ddv_scf|^2 =  2.990E-13

      iter #   8 total cpu time :  1705.5 secs   av.it.:   8.4
      thresh= 5.468E-08 alpha_mix =  0.700 |ddv_scf|^2 =  1.282E-14

      iter #   9 total cpu time :  1735.7 secs   av.it.:   8.3
      thresh= 1.132E-08 alpha_mix =  0.700 |ddv_scf|^2 =  4.125E-16

      iter #  10 total cpu time :  1764.0 secs   av.it.:   7.5
      thresh= 2.031E-09 alpha_mix =  0.700 |ddv_scf|^2 =  1.034E-16

      iter #  11 total cpu time :  1791.8 secs   av.it.:   7.4
      thresh= 1.017E-09 alpha_mix =  0.700 |ddv_scf|^2 =  1.834E-18

     End of self-consistent calculation

     Convergence has been achieved 


     Representation #  2 mode #   2

     Self-consistent Calculation

      iter #   1 total cpu time :  1819.5 secs   av.it.:   5.8
      thresh= 1.000E-02 alpha_mix =  0.700 |ddv_scf|^2 =  8.623E-05

      iter #   2 total cpu time :  1848.4 secs   av.it.:   7.5
      thresh= 9.286E-04 alpha_mix =  0.700 |ddv_scf|^2 =  6.481E-05

      iter #   3 total cpu time :  1875.2 secs   av.it.:   7.1
      thresh= 8.051E-04 alpha_mix =  0.700 |ddv_scf|^2 =  1.050E-07

      iter #   4 total cpu time :  1906.7 secs   av.it.:   8.3
      thresh= 3.241E-05 alpha_mix =  0.700 |ddv_scf|^2 =  3.971E-09

      iter #   5 total cpu time :  1938.7 secs   av.it.:   8.4
      thresh= 6.302E-06 alpha_mix =  0.700 |ddv_scf|^2 =  5.074E-10

      iter #   6 total cpu time :  1967.9 secs   av.it.:   8.1
      thresh= 2.252E-06 alpha_mix =  0.700 |ddv_scf|^2 =  8.471E-12

      iter #   7 total cpu time :  1996.0 secs   av.it.:   7.6
      thresh= 2.911E-07 alpha_mix =  0.700 |ddv_scf|^2 =  7.194E-13

      iter #   8 total cpu time :  2024.6 secs   av.it.:   7.8
      thresh= 8.482E-08 alpha_mix =  0.700 |ddv_scf|^2 =  3.041E-14

      iter #   9 total cpu time :  2053.5 secs   av.it.:   7.8
      thresh= 1.744E-08 alpha_mix =  0.700 |ddv_scf|^2 =  1.352E-15

      iter #  10 total cpu time :  2082.5 secs   av.it.:   7.7
      thresh= 3.677E-09 alpha_mix =  0.700 |ddv_scf|^2 =  2.569E-17

     End of self-consistent calculation

     Convergence has been achieved 


     Representation #  3 mode #   3

     Self-consistent Calculation

      iter #   1 total cpu time :  2109.8 secs   av.it.:   5.8
      thresh= 1.000E-02 alpha_mix =  0.700 |ddv_scf|^2 =  9.698E-05

      iter #   2 total cpu time :  2138.1 secs   av.it.:   7.5
      thresh= 9.848E-04 alpha_mix =  0.700 |ddv_scf|^2 =  6.567E-05

      iter #   3 total cpu time :  2165.2 secs   av.it.:   7.0
      thresh= 8.104E-04 alpha_mix =  0.700 |ddv_scf|^2 =  3.734E-07

      iter #   4 total cpu time :  2194.6 secs   av.it.:   7.8
      thresh= 6.111E-05 alpha_mix =  0.700 |ddv_scf|^2 =  9.349E-09

      iter #   5 total cpu time :  2224.9 secs   av.it.:   8.4
      thresh= 9.669E-06 alpha_mix =  0.700 |ddv_scf|^2 =  2.643E-10

      iter #   6 total cpu time :  2255.4 secs   av.it.:   8.3
      thresh= 1.626E-06 alpha_mix =  0.700 |ddv_scf|^2 =  2.020E-11

      iter #   7 total cpu time :  2286.0 secs   av.it.:   8.1
      thresh= 4.494E-07 alpha_mix =  0.700 |ddv_scf|^2 =  9.064E-13

      iter #   8 total cpu time :  2316.3 secs   av.it.:   8.2
      thresh= 9.520E-08 alpha_mix =  0.700 |ddv_scf|^2 =  5.515E-14

      iter #   9 total cpu time :  2344.0 secs   av.it.:   7.4
      thresh= 2.348E-08 alpha_mix =  0.700 |ddv_scf|^2 =  2.763E-15

      iter #  10 total cpu time :  2372.7 secs   av.it.:   7.8
      thresh= 5.257E-09 alpha_mix =  0.700 |ddv_scf|^2 =  4.106E-17

     End of self-consistent calculation

     Convergence has been achieved 

     Number of q in the star =   48
     List of q in the star:
          1  -0.166666667   0.666666667  -0.500000000
          2   0.666666667  -0.166666667  -0.500000000
          3  -0.166666667   0.500000000  -0.666666667
          4   0.166666667   0.500000000  -0.666666667
          5  -0.166666667  -0.500000000   0.666666667
          6   0.166666667  -0.500000000   0.666666667
          7   0.166666667  -0.666666667   0.500000000
          8  -0.166666667  -0.666666667   0.500000000
          9  -0.500000000  -0.666666667  -0.166666667
         10   0.500000000  -0.666666667   0.166666667
         11  -0.500000000   0.666666667   0.166666667
         12   0.500000000   0.666666667  -0.166666667
         13   0.666666667  -0.166666667   0.500000000
         14   0.666666667  -0.500000000  -0.166666667
         15  -0.166666667  -0.500000000  -0.666666667
         16  -0.166666667   0.500000000   0.666666667
         17   0.666666667   0.166666667  -0.500000000
         18   0.166666667   0.666666667  -0.500000000
         19   0.666666667   0.500000000   0.166666667
         20  -0.666666667   0.500000000  -0.166666667
         21   0.500000000   0.166666667   0.666666667
         22  -0.500000000   0.166666667  -0.666666667
         23   0.500000000   0.666666667   0.166666667
         24   0.500000000  -0.166666667  -0.666666667
         25  -0.666666667   0.166666667   0.500000000
         26  -0.166666667   0.666666667   0.500000000
         27  -0.500000000  -0.166666667   0.666666667
         28   0.166666667   0.666666667   0.500000000
         29  -0.500000000   0.666666667  -0.166666667
         30  -0.666666667  -0.166666667  -0.500000000
         31  -0.666666667  -0.166666667   0.500000000
         32   0.666666667   0.166666667   0.500000000
         33   0.166666667  -0.666666667  -0.500000000
         34  -0.666666667   0.166666667  -0.500000000
         35   0.500000000  -0.666666667  -0.166666667
         36  -0.500000000  -0.666666667   0.166666667
         37  -0.166666667  -0.666666667  -0.500000000
         38  -0.666666667  -0.500000000   0.166666667
         39   0.166666667   0.500000000   0.666666667
         40   0.166666667  -0.500000000  -0.666666667
         41  -0.666666667   0.500000000   0.166666667
         42   0.666666667   0.500000000  -0.166666667
         43  -0.666666667  -0.500000000  -0.166666667
         44   0.666666667  -0.500000000   0.166666667
         45   0.500000000   0.166666667  -0.666666667
         46   0.500000000  -0.166666667   0.666666667
         47  -0.500000000  -0.166666667  -0.666666667
         48  -0.500000000   0.166666667   0.666666667

     Diagonalizing the dynamical matrix

     q = (   -0.166666667   0.666666667  -0.500000000 ) 

 **************************************************************************
     freq (    1) =       2.345749 [THz] =      78.245770 [cm-1]
     freq (    2) =       4.442387 [THz] =     148.182082 [cm-1]
     freq (    3) =       7.004488 [THz] =     233.644585 [cm-1]
 **************************************************************************

     Mode symmetry, C_1 (1)     point group:

     freq (  1 -  1) =         78.2  [cm-1]   --> A                  
     freq (  2 -  2) =        148.2  [cm-1]   --> A                  
     freq (  3 -  3) =        233.6  [cm-1]   --> A                  

     Calculation of q =   -0.3333333   0.6666667  -0.3333333

   Info: using nr1, nr2, nr3 values from input

   Info: using nr1, nr2, nr3 values from input

     Parallelization info
     --------------------
     sticks:   dense  smooth     PW     G-vecs:    dense   smooth      PW
     Min          50      24     10                  911      315      80
     Max          51      25     11                  912      319      81
     Sum         809     399    165                14579     5089    1289



     bravais-lattice index     =            3
     lattice parameter (alat)  =       6.6862  a.u.
     unit-cell volume          =     149.4567 (a.u.)^3
     number of atoms/cell      =            1
     number of atomic types    =            1
     number of electrons       =         9.00
     number of Kohn-Sham states=            9
     kinetic-energy cutoff     =      40.0000  Ry
     charge density cutoff     =     320.0000  Ry
     Exchange-correlation      = SLA  PW   PBE  PBE ( 1  4  3  4 0 0)

     celldm(1)=   6.686237  celldm(2)=   0.000000  celldm(3)=   0.000000
     celldm(4)=   0.000000  celldm(5)=   0.000000  celldm(6)=   0.000000

     crystal axes: (cart. coord. in units of alat)
               a(1) = (   0.500000   0.500000   0.500000 )  
               a(2) = (  -0.500000   0.500000   0.500000 )  
               a(3) = (  -0.500000  -0.500000   0.500000 )  

     reciprocal axes: (cart. coord. in units 2 pi/alat)
               b(1) = (  1.000000  0.000000  1.000000 )  
               b(2) = ( -1.000000  1.000000  0.000000 )  
               b(3) = (  0.000000 -1.000000  1.000000 )  


     PseudoPot. # 1 for Na read from file:
     /home/s1333534/quantum_espresso/qe-6.1/pseudo/Na_pbe_v1.uspp.F.UPF
     MD5 check sum: 76a99c7e9422403d3e93cbc85ab7bccb
     Pseudo is Ultrasoft, Zval =  9.0
     Generated by new atomic code, or converted to UPF format
     Using radial grid of  819 points,  5 beta functions with: 
                l(1) =   0
                l(2) =   0
                l(3) =   1
                l(4) =   1
                l(5) =   2
     Q(r) pseudized with  8 coefficients,  rinner =    1.250   1.250   1.250
                                                       1.250   1.250

     atomic species   valence    mass     pseudopotential
        Na             9.00    22.99000     Na( 1.00)

     48 Sym. Ops., with inversion, found



   Cartesian axes

     site n.     atom                  positions (alat units)
         1           Na  tau(   1) = (   0.0000000   0.0000000   0.0000000  )

     number of k points=  3080  Marzari-Vanderbilt smearing, width (Ry)=  0.0200

     Number of k-points >= 100: set verbosity='high' to print them.

     Dense  grid:    14579 G-vectors     FFT dimensions: (  36,  36,  36)

     Smooth grid:     5089 G-vectors     FFT dimensions: (  24,  24,  24)

     Estimated max dynamical RAM per process >       0.50MB

     Estimated total allocated dynamical RAM >      32.03MB

     The potential is recalculated from file :
     ./_ph0/na.bcc.save/charge-density.dat

     Starting wfc are    5 atomic +    4 random wfc

     Band Structure Calculation
     Davidson diagonalization with overlap

     ethr =  1.11E-10,  avg # of iterations = 17.9

     total cpu time spent up to now is      572.3 secs

     End of band structure calculation

     Number of k-points >= 100: set verbosity='high' to print the bands.

     the Fermi energy is     4.4764 ev

     Writing output data file na.bcc.save

                                                                                

     bravais-lattice index     =            3
     lattice parameter (alat)  =       6.6862  a.u.
     unit-cell volume          =     149.4567 (a.u.)^3
     number of atoms/cell      =            1
     number of atomic types    =            1
     kinetic-energy cut-off    =      40.0000  Ry
     charge density cut-off    =     320.0000  Ry
     convergence threshold     =      1.0E-16
     beta                      =       0.7000
     number of iterations used =            4
     Exchange-correlation      = SLA  PW   PBE  PBE ( 1  4  3  4 0 0)


     celldm(1)=    6.68624  celldm(2)=    0.00000  celldm(3)=    0.00000
     celldm(4)=    0.00000  celldm(5)=    0.00000  celldm(6)=    0.00000

     crystal axes: (cart. coord. in units of alat)
               a(1) = (  0.5000  0.5000  0.5000 )  
               a(2) = ( -0.5000  0.5000  0.5000 )  
               a(3) = ( -0.5000 -0.5000  0.5000 )  

     reciprocal axes: (cart. coord. in units 2 pi/alat)
               b(1) = (  1.0000  0.0000  1.0000 )  
               b(2) = ( -1.0000  1.0000  0.0000 )  
               b(3) = (  0.0000 -1.0000  1.0000 )  


     Atoms inside the unit cell: 

     Cartesian axes

     site n.  atom      mass           positions (alat units)
        1     Na  22.9900   tau(    1) = (    0.00000    0.00000    0.00000  )

     Computing dynamical matrix for 
                    q = (  -0.3333333   0.6666667  -0.3333333 )

      6 Sym.Ops. (no q -> -q+G )


     G cutoff =  362.3713  (    911 G-vectors)     FFT grid: ( 36, 36, 36)
     G cutoff =  181.1856  (    319 G-vectors)  smooth grid: ( 24, 24, 24)

     number of k points=  3080  Marzari-Vanderbilt smearing, width (Ry)=  0.0200

     PseudoPot. # 1 for Na read from file:
     /home/s1333534/quantum_espresso/qe-6.1/pseudo/Na_pbe_v1.uspp.F.UPF
     MD5 check sum: 76a99c7e9422403d3e93cbc85ab7bccb
     Pseudo is Ultrasoft, Zval =  9.0
     Generated by new atomic code, or converted to UPF format
     Using radial grid of  819 points,  5 beta functions with: 
                l(1) =   0
                l(2) =   0
                l(3) =   1
                l(4) =   1
                l(5) =   2
     Q(r) pseudized with  8 coefficients,  rinner =    1.250   1.250   1.250
                                                       1.250   1.250

     Mode symmetry, C_3v (3m)   point group:


     Atomic displacements:
     There are   2 irreducible representations

     Representation     1      1 modes -A_1  L_1  To be done

     Representation     2      2 modes -E    L_3  To be done



     Alpha used in Ewald sum =   2.8000
     PHONON       : 36m45.07s CPU    40m25.90s WALL



     Representation #  1 mode #   1

     Self-consistent Calculation

      iter #   1 total cpu time :  2430.9 secs   av.it.:   5.4
      thresh= 1.000E-02 alpha_mix =  0.700 |ddv_scf|^2 =  1.606E-05

      iter #   2 total cpu time :  2436.4 secs   av.it.:   7.7
      thresh= 4.007E-04 alpha_mix =  0.700 |ddv_scf|^2 =  2.584E-07

      iter #   3 total cpu time :  2442.0 secs   av.it.:   7.9
      thresh= 5.083E-05 alpha_mix =  0.700 |ddv_scf|^2 =  7.300E-09

      iter #   4 total cpu time :  2447.5 secs   av.it.:   7.6
      thresh= 8.544E-06 alpha_mix =  0.700 |ddv_scf|^2 =  2.486E-10

      iter #   5 total cpu time :  2453.7 secs   av.it.:   7.7
      thresh= 1.577E-06 alpha_mix =  0.700 |ddv_scf|^2 =  5.845E-12

      iter #   6 total cpu time :  2459.6 secs   av.it.:   8.0
      thresh= 2.418E-07 alpha_mix =  0.700 |ddv_scf|^2 =  6.091E-13

      iter #   7 total cpu time :  2465.1 secs   av.it.:   7.9
      thresh= 7.804E-08 alpha_mix =  0.700 |ddv_scf|^2 =  1.952E-15

      iter #   8 total cpu time :  2470.6 secs   av.it.:   7.7
      thresh= 4.419E-09 alpha_mix =  0.700 |ddv_scf|^2 =  4.740E-17

     End of self-consistent calculation

     Convergence has been achieved 


     Representation #  2 modes #   2  3

     Self-consistent Calculation

      iter #   1 total cpu time :  2480.8 secs   av.it.:   5.7
      thresh= 1.000E-02 alpha_mix =  0.700 |ddv_scf|^2 =  1.357E-05

      iter #   2 total cpu time :  2492.2 secs   av.it.:   8.1
      thresh= 3.684E-04 alpha_mix =  0.700 |ddv_scf|^2 =  1.430E-06

      iter #   3 total cpu time :  2503.8 secs   av.it.:   7.8
      thresh= 1.196E-04 alpha_mix =  0.700 |ddv_scf|^2 =  1.071E-08

      iter #   4 total cpu time :  2516.1 secs   av.it.:   8.6
      thresh= 1.035E-05 alpha_mix =  0.700 |ddv_scf|^2 =  6.438E-11

      iter #   5 total cpu time :  2527.0 secs   av.it.:   7.7
      thresh= 8.024E-07 alpha_mix =  0.700 |ddv_scf|^2 =  7.241E-14

      iter #   6 total cpu time :  2538.5 secs   av.it.:   8.1
      thresh= 2.691E-08 alpha_mix =  0.700 |ddv_scf|^2 =  3.409E-15

      iter #   7 total cpu time :  2550.3 secs   av.it.:   8.1
      thresh= 5.839E-09 alpha_mix =  0.700 |ddv_scf|^2 =  7.422E-18

     End of self-consistent calculation

     Convergence has been achieved 

     Number of q in the star =    8
     List of q in the star:
          1  -0.333333333   0.666666667  -0.333333333
          2   0.333333333  -0.666666667   0.333333333
          3  -0.333333333  -0.666666667   0.333333333
          4  -0.333333333  -0.666666667  -0.333333333
          5  -0.333333333   0.666666667   0.333333333
          6   0.333333333   0.666666667  -0.333333333
          7  -0.666666667   0.333333333  -0.333333333
          8   0.333333333   0.666666667   0.333333333

     Diagonalizing the dynamical matrix

     q = (   -0.333333333   0.666666667  -0.333333333 ) 

 **************************************************************************
     freq (    1) =       2.686796 [THz] =      89.621859 [cm-1]
     freq (    2) =       6.253316 [THz] =     208.588166 [cm-1]
     freq (    3) =       6.253316 [THz] =     208.588166 [cm-1]
 **************************************************************************

     Mode symmetry, C_3v (3m)   point group:

     freq (  1 -  1) =         89.6  [cm-1]   --> A_1  L_1           
     freq (  2 -  3) =        208.6  [cm-1]   --> E    L_3           

     Calculation of q =    0.0000000   0.0000000   0.3333333

   Info: using nr1, nr2, nr3 values from input

   Info: using nr1, nr2, nr3 values from input

     Parallelization info
     --------------------
     sticks:   dense  smooth     PW     G-vecs:    dense   smooth      PW
     Min          50      24      8                  911      315      65
     Max          51      25      9                  912      319      68
     Sum         809     399    139                14579     5089    1061



     bravais-lattice index     =            3
     lattice parameter (alat)  =       6.6862  a.u.
     unit-cell volume          =     149.4567 (a.u.)^3
     number of atoms/cell      =            1
     number of atomic types    =            1
     number of electrons       =         9.00
     number of Kohn-Sham states=            9
     kinetic-energy cutoff     =      40.0000  Ry
     charge density cutoff     =     320.0000  Ry
     Exchange-correlation      = SLA  PW   PBE  PBE ( 1  4  3  4 0 0)

     celldm(1)=   6.686237  celldm(2)=   0.000000  celldm(3)=   0.000000
     celldm(4)=   0.000000  celldm(5)=   0.000000  celldm(6)=   0.000000

     crystal axes: (cart. coord. in units of alat)
               a(1) = (   0.500000   0.500000   0.500000 )  
[...]

     PseudoPot. # 1 for Na read from file:
     /home/s1333534/quantum_espresso/qe-6.1/pseudo/Na_pbe_v1.uspp.F.UPF
     MD5 check sum: 76a99c7e9422403d3e93cbc85ab7bccb
     Pseudo is Ultrasoft, Zval =  9.0
     Generated by new atomic code, or converted to UPF format
     Using radial grid of  819 points,  5 beta functions with: 
                l(1) =   0
                l(2) =   0
                l(3) =   1
                l(4) =   1
                l(5) =   2
     Q(r) pseudized with  8 coefficients,  rinner =    1.250   1.250   1.250
                                                       1.250   1.250

     Mode symmetry, C_2v (mm2)  point group:


     Atomic displacements:
     There are   3 irreducible representations

     Representation     1      1 modes -A_1  D_1  S_1  To be done

     Representation     2      1 modes -B_1  D_3  S_3  To be done

     Representation     3      1 modes -B_2  D_4  S_4  To be done



     Alpha used in Ewald sum =   2.8000
     PHONON       :     1h11m CPU        1h18m WALL



     Representation #  1 mode #   1

     Self-consistent Calculation

      iter #   1 total cpu time :  4697.8 secs   av.it.:   5.7
      thresh= 1.000E-02 alpha_mix =  0.700 |ddv_scf|^2 =  2.944E-05

      iter #   2 total cpu time :  4705.8 secs   av.it.:   7.7
      thresh= 5.426E-04 alpha_mix =  0.700 |ddv_scf|^2 =  1.092E-06

      iter #   3 total cpu time :  4713.8 secs   av.it.:   7.7
      thresh= 1.045E-04 alpha_mix =  0.700 |ddv_scf|^2 =  2.435E-08

      iter #   4 total cpu time :  4722.3 secs   av.it.:   8.2
      thresh= 1.560E-05 alpha_mix =  0.700 |ddv_scf|^2 =  1.734E-09

      iter #   5 total cpu time :  4730.6 secs   av.it.:   8.0
      thresh= 4.164E-06 alpha_mix =  0.700 |ddv_scf|^2 =  1.362E-10

      iter #   6 total cpu time :  4738.9 secs   av.it.:   7.8
      thresh= 1.167E-06 alpha_mix =  0.700 |ddv_scf|^2 =  4.705E-13

      iter #   7 total cpu time :  4747.2 secs   av.it.:   7.8
      thresh= 6.859E-08 alpha_mix =  0.700 |ddv_scf|^2 =  2.701E-14

      iter #   8 total cpu time :  4755.3 secs   av.it.:   7.9
      thresh= 1.644E-08 alpha_mix =  0.700 |ddv_scf|^2 =  3.623E-16

      iter #   9 total cpu time :  4763.5 secs   av.it.:   7.9
      thresh= 1.904E-09 alpha_mix =  0.700 |ddv_scf|^2 =  4.740E-18

     End of self-consistent calculation

     Convergence has been achieved 


     Representation #  2 mode #   2

     Self-consistent Calculation

      iter #   1 total cpu time :  4771.0 secs   av.it.:   5.6
      thresh= 1.000E-02 alpha_mix =  0.700 |ddv_scf|^2 =  2.509E-05

      iter #   2 total cpu time :  4779.1 secs   av.it.:   7.6
      thresh= 5.009E-04 alpha_mix =  0.700 |ddv_scf|^2 =  2.297E-07

      iter #   3 total cpu time :  4787.2 secs   av.it.:   7.7
      thresh= 4.793E-05 alpha_mix =  0.700 |ddv_scf|^2 =  2.098E-08

      iter #   4 total cpu time :  4795.5 secs   av.it.:   7.6
      thresh= 1.448E-05 alpha_mix =  0.700 |ddv_scf|^2 =  9.425E-11

      iter #   5 total cpu time :  4803.6 secs   av.it.:   7.6
      thresh= 9.708E-07 alpha_mix =  0.700 |ddv_scf|^2 =  2.946E-14

      iter #   6 total cpu time :  4810.9 secs   av.it.:   6.9
      thresh= 1.716E-08 alpha_mix =  0.700 |ddv_scf|^2 =  2.144E-15

      iter #   7 total cpu time :  4818.7 secs   av.it.:   7.4
      thresh= 4.631E-09 alpha_mix =  0.700 |ddv_scf|^2 =  2.097E-18

     End of self-consistent calculation

     Convergence has been achieved 


     Representation #  3 mode #   3

     Self-consistent Calculation

      iter #   1 total cpu time :  4826.1 secs   av.it.:   5.7
      thresh= 1.000E-02 alpha_mix =  0.700 |ddv_scf|^2 =  4.433E-05

      iter #   2 total cpu time :  4834.0 secs   av.it.:   7.5
      thresh= 6.658E-04 alpha_mix =  0.700 |ddv_scf|^2 =  2.788E-06

      iter #   3 total cpu time :  4841.7 secs   av.it.:   7.4
      thresh= 1.670E-04 alpha_mix =  0.700 |ddv_scf|^2 =  3.460E-08

      iter #   4 total cpu time :  4849.8 secs   av.it.:   7.9
      thresh= 1.860E-05 alpha_mix =  0.700 |ddv_scf|^2 =  9.806E-10

      iter #   5 total cpu time :  4857.6 secs   av.it.:   7.4
      thresh= 3.132E-06 alpha_mix =  0.700 |ddv_scf|^2 =  1.981E-12

      iter #   6 total cpu time :  4865.8 secs   av.it.:   7.8
      thresh= 1.407E-07 alpha_mix =  0.700 |ddv_scf|^2 =  1.211E-14

      iter #   7 total cpu time :  4873.7 secs   av.it.:   7.7
      thresh= 1.101E-08 alpha_mix =  0.700 |ddv_scf|^2 =  1.774E-16

      iter #   8 total cpu time :  4881.8 secs   av.it.:   7.5
      thresh= 1.332E-09 alpha_mix =  0.700 |ddv_scf|^2 =  5.075E-19

     End of self-consistent calculation

     Convergence has been achieved 

     Number of q in the star =   12
     List of q in the star:
          1   0.000000000   0.833333333  -0.166666667
          2   0.000000000  -0.833333333  -0.166666667
          3   0.833333333   0.000000000  -0.166666667
          4  -0.833333333   0.000000000  -0.166666667
          5  -0.166666667  -0.833333333   0.000000000
          6   0.166666667  -0.833333333   0.000000000
          7  -0.166666667   0.833333333   0.000000000
          8   0.166666667   0.833333333   0.000000000
          9   0.833333333   0.000000000   0.166666667
         10   0.000000000   0.166666667  -0.833333333
         11   0.000000000  -0.166666667  -0.833333333
         12   0.166666667   0.000000000  -0.833333333

     Diagonalizing the dynamical matrix

     q = (    0.000000000   0.833333333  -0.166666667 ) 

 **************************************************************************
     freq (    1) =       5.210141 [THz] =     173.791588 [cm-1]
     freq (    2) =       5.536620 [THz] =     184.681748 [cm-1]
     freq (    3) =       6.415110 [THz] =     213.985022 [cm-1]
 **************************************************************************

     Mode symmetry, C_2v (mm2)  point group:

     freq (  1 -  1) =        173.8  [cm-1]   --> A_1  D_1  S_1      
     freq (  2 -  2) =        184.7  [cm-1]   --> B_1  D_3  S_3      
     freq (  3 -  3) =        214.0  [cm-1]   --> B_2  D_4  S_4      

     Calculation of q =    0.0000000   0.0000000  -1.0000000

   Info: using nr1, nr2, nr3 values from input

   Info: using nr1, nr2, nr3 values from input

     Parallelization info
     --------------------
     sticks:   dense  smooth     PW     G-vecs:    dense   smooth      PW
     Min          50      24      9                  911      315      76
     Max          51      25     10                  912      319      79
     Sum         809     399    159                14579     5089    1253



     bravais-lattice index     =            3
     lattice parameter (alat)  =       6.6862  a.u.
     unit-cell volume          =     149.4567 (a.u.)^3
     number of atoms/cell      =            1
     number of atomic types    =            1
     number of electrons       =         9.00
     number of Kohn-Sham states=            9
     kinetic-energy cutoff     =      40.0000  Ry
     charge density cutoff     =     320.0000  Ry
     Exchange-correlation      = SLA  PW   PBE  PBE ( 1  4  3  4 0 0)

     celldm(1)=   6.686237  celldm(2)=   0.000000  celldm(3)=   0.000000
     celldm(4)=   0.000000  celldm(5)=   0.000000  celldm(6)=   0.000000

     crystal axes: (cart. coord. in units of alat)
               a(1) = (   0.500000   0.500000   0.500000 )  
               a(2) = (  -0.500000   0.500000   0.500000 )  
               a(3) = (  -0.500000  -0.500000   0.500000 )  

     reciprocal axes: (cart. coord. in units 2 pi/alat)
               b(1) = (  1.000000  0.000000  1.000000 )  
               b(2) = ( -1.000000  1.000000  0.000000 )  
               b(3) = (  0.000000 -1.000000  1.000000 )  


     PseudoPot. # 1 for Na read from file:
     /home/s1333534/quantum_espresso/qe-6.1/pseudo/Na_pbe_v1.uspp.F.UPF
     MD5 check sum: 76a99c7e9422403d3e93cbc85ab7bccb
     Pseudo is Ultrasoft, Zval =  9.0
     Generated by new atomic code, or converted to UPF format
     Using radial grid of  819 points,  5 beta functions with: 
                l(1) =   0
                l(2) =   0
                l(3) =   1
                l(4) =   1
                l(5) =   2
     Q(r) pseudized with  8 coefficients,  rinner =    1.250   1.250   1.250
                                                       1.250   1.250

     atomic species   valence    mass     pseudopotential
        Na             9.00    22.99000     Na( 1.00)

     48 Sym. Ops., with inversion, found



   Cartesian axes

     site n.     atom                  positions (alat units)
         1           Na  tau(   1) = (   0.0000000   0.0000000   0.0000000  )

     number of k points=   500  Marzari-Vanderbilt smearing, width (Ry)=  0.0200

     Number of k-points >= 100: set verbosity='high' to print them.

     Dense  grid:    14579 G-vectors     FFT dimensions: (  36,  36,  36)

     Smooth grid:     5089 G-vectors     FFT dimensions: (  24,  24,  24)

     Estimated max dynamical RAM per process >       0.50MB

     Estimated total allocated dynamical RAM >      32.03MB

     The potential is recalculated from file :
     ./_ph0/na.bcc.save/charge-density.dat

     Starting wfc are    5 atomic +    4 random wfc

     Band Structure Calculation
     Davidson diagonalization with overlap

     ethr =  1.11E-10,  avg # of iterations = 17.9

     total cpu time spent up to now is     1168.4 secs

     End of band structure calculation

     Number of k-points >= 100: set verbosity='high' to print the bands.

     the Fermi energy is     4.4764 ev

     Writing output data file na.bcc.save

                                                                                

     bravais-lattice index     =            3
     lattice parameter (alat)  =       6.6862  a.u.
     unit-cell volume          =     149.4567 (a.u.)^3
     number of atoms/cell      =            1
     number of atomic types    =            1
     kinetic-energy cut-off    =      40.0000  Ry
     charge density cut-off    =     320.0000  Ry
     convergence threshold     =      1.0E-16
     beta                      =       0.7000
     number of iterations used =            4
     Exchange-correlation      = SLA  PW   PBE  PBE ( 1  4  3  4 0 0)


     celldm(1)=    6.68624  celldm(2)=    0.00000  celldm(3)=    0.00000
     celldm(4)=    0.00000  celldm(5)=    0.00000  celldm(6)=    0.00000

     crystal axes: (cart. coord. in units of alat)
               a(1) = (  0.5000  0.5000  0.5000 )  
               a(2) = ( -0.5000  0.5000  0.5000 )  
               a(3) = ( -0.5000 -0.5000  0.5000 )  

     reciprocal axes: (cart. coord. in units 2 pi/alat)
               b(1) = (  1.0000  0.0000  1.0000 )  
               b(2) = ( -1.0000  1.0000  0.0000 )  
               b(3) = (  0.0000 -1.0000  1.0000 )  


     Atoms inside the unit cell: 

     Cartesian axes

     site n.  atom      mass           positions (alat units)
        1     Na  22.9900   tau(    1) = (    0.00000    0.00000    0.00000  )

     Computing dynamical matrix for 
                    q = (   0.0000000   0.0000000  -1.0000000 )

     49 Sym.Ops. (with q -> -q+G )


     G cutoff =  362.3713  (    911 G-vectors)     FFT grid: ( 36, 36, 36)
     G cutoff =  181.1856  (    319 G-vectors)  smooth grid: ( 24, 24, 24)

     number of k points=   500  Marzari-Vanderbilt smearing, width (Ry)=  0.0200

     PseudoPot. # 1 for Na read from file:
     /home/s1333534/quantum_espresso/qe-6.1/pseudo/Na_pbe_v1.uspp.F.UPF
     MD5 check sum: 76a99c7e9422403d3e93cbc85ab7bccb
     Pseudo is Ultrasoft, Zval =  9.0
     Generated by new atomic code, or converted to UPF format
     Using radial grid of  819 points,  5 beta functions with: 
                l(1) =   0
                l(2) =   0
                l(3) =   1
                l(4) =   1
                l(5) =   2
     Q(r) pseudized with  8 coefficients,  rinner =    1.250   1.250   1.250
                                                       1.250   1.250

     Mode symmetry, O_h (m-3m)  point group:


     Atomic displacements:
     There are   1 irreducible representations

     Representation     1      3 modes -T_1u G_15  G_4-  To be done



     Alpha used in Ewald sum =   2.8000
     PHONON       :     1h14m CPU        1h21m WALL



     Representation #  1 modes #   1  2  3

     Self-consistent Calculation

      iter #   1 total cpu time :  4893.5 secs   av.it.:   5.8
      thresh= 1.000E-02 alpha_mix =  0.700 |ddv_scf|^2 =  3.130E-06

      iter #   2 total cpu time :  4897.0 secs   av.it.:   8.4
      thresh= 1.769E-04 alpha_mix =  0.700 |ddv_scf|^2 =  3.115E-08

      iter #   3 total cpu time :  4900.5 secs   av.it.:   8.5
      thresh= 1.765E-05 alpha_mix =  0.700 |ddv_scf|^2 =  2.704E-09

      iter #   4 total cpu time :  4904.1 secs   av.it.:   8.6
      thresh= 5.200E-06 alpha_mix =  0.700 |ddv_scf|^2 =  1.170E-11

      iter #   5 total cpu time :  4907.8 secs   av.it.:   8.5
      thresh= 3.420E-07 alpha_mix =  0.700 |ddv_scf|^2 =  2.758E-15

      iter #   6 total cpu time :  4910.9 secs   av.it.:   7.2
      thresh= 5.252E-09 alpha_mix =  0.700 |ddv_scf|^2 =  2.058E-16

      iter #   7 total cpu time :  4914.6 secs   av.it.:   8.0
      thresh= 1.434E-09 alpha_mix =  0.700 |ddv_scf|^2 =  6.186E-20

     End of self-consistent calculation

     Convergence has been achieved 

     Number of q in the star =    1
     List of q in the star:
          1   0.000000000   0.000000000  -1.000000000

     Diagonalizing the dynamical matrix

     q = (    0.000000000   0.000000000  -1.000000000 ) 

 **************************************************************************
     freq (    1) =       6.027462 [THz] =     201.054495 [cm-1]
     freq (    2) =       6.027462 [THz] =     201.054495 [cm-1]
     freq (    3) =       6.027462 [THz] =     201.054495 [cm-1]
 **************************************************************************

     Mode symmetry, O_h (m-3m)  point group:

     freq (  1 -  3) =        201.1  [cm-1]   --> T_1u G_15  G_4-    

     init_run     :      1.90s CPU      2.01s WALL (      15 calls)
     electrons    :    875.14s CPU    936.82s WALL (      15 calls)

     Called by init_run:
     wfcinit      :      0.00s CPU      0.00s WALL (      15 calls)
     potinit      :      0.30s CPU      0.31s WALL (      15 calls)

     Called by electrons:
     c_bands      :    874.84s CPU    936.51s WALL (      15 calls)
     v_of_rho     :      0.13s CPU      0.14s WALL (      16 calls)
     newd         :      0.10s CPU      0.10s WALL (      16 calls)

     Called by c_bands:
     init_us_2    :     17.57s CPU     19.40s WALL (  334939 calls)
     cegterg      :    685.90s CPU    740.12s WALL (   22186 calls)

     Called by sum_band:

     Called by *egterg:
     h_psi        :   2442.94s CPU   2687.70s WALL ( 3059056 calls)
     s_psi        :     76.94s CPU     86.59s WALL ( 5998537 calls)
     g_psi        :      2.10s CPU      2.28s WALL (  338844 calls)
     cdiaghg      :    219.27s CPU    235.56s WALL (  358106 calls)

     Called by h_psi:
     h_psi:pot    :   2422.83s CPU   2665.11s WALL ( 3059056 calls)
     h_psi:calbec :    177.20s CPU    193.80s WALL ( 3059056 calls)
     vloc_psi     :   2171.62s CPU   2389.56s WALL ( 3059056 calls)
     add_vuspsi   :     41.76s CPU     46.76s WALL ( 3059056 calls)

     General routines
     calbec       :    325.21s CPU    356.94s WALL ( 6540191 calls)
     fft          :      3.33s CPU      3.73s WALL (    6331 calls)
     ffts         :      3.09s CPU      3.40s WALL (   30426 calls)
     fftw         :   2379.69s CPU   2634.71s WALL (29353735 calls)
     interpolate  :      0.52s CPU      0.63s WALL (     868 calls)
     davcio       :     29.54s CPU     55.41s WALL ( 1361690 calls)

     Parallel routines
     fft_scatter  :   1214.20s CPU   1341.34s WALL (29390492 calls)

     PHONON       :     1h14m CPU        1h21m WALL

     INITIALIZATION: 
     phq_setup    :      0.47s CPU      0.50s WALL (      16 calls)
     phq_init     :     50.75s CPU     54.50s WALL (      16 calls)

     phq_init     :     50.75s CPU     54.50s WALL (      16 calls)
     init_vloc    :      0.09s CPU      0.09s WALL (      16 calls)
     init_us_1    :      1.02s CPU      1.11s WALL (      16 calls)
     newd         :      0.10s CPU      0.10s WALL (      16 calls)
     dvanqq       :      0.41s CPU      0.44s WALL (      16 calls)
     drho         :     38.00s CPU     41.06s WALL (      16 calls)

     DYNAMICAL MATRIX:
     dynmat0      :      8.15s CPU      8.48s WALL (      16 calls)
     phqscf       :   3305.34s CPU   3686.09s WALL (      16 calls)
     dynmatrix    :      0.16s CPU      0.17s WALL (      16 calls)

     phqscf       :   3305.34s CPU   3686.09s WALL (      16 calls)
     solve_linter :   3292.22s CPU   3671.55s WALL (      40 calls)
     drhodv       :     12.87s CPU     13.74s WALL (      40 calls)

     dynmat0      :      8.15s CPU      8.48s WALL (      16 calls)
     dynmat_us    :      8.10s CPU      8.43s WALL (      16 calls)
     d2ionq       :      0.01s CPU      0.01s WALL (      16 calls)

     dynmat_us    :      8.10s CPU      8.43s WALL (      16 calls)
     addusdynmat  :      0.00s CPU      0.00s WALL (      16 calls)

     phqscf       :   3305.34s CPU   3686.09s WALL (      16 calls)
     solve_linter :   3292.22s CPU   3671.55s WALL (      40 calls)

     solve_linter :   3292.22s CPU   3671.55s WALL (      40 calls)
     dvqpsi_us    :     63.18s CPU     68.50s WALL (   29082 calls)
     ortho        :     47.95s CPU     52.03s WALL (  260717 calls)
     cgsolve      :   2590.09s CPU   2866.07s WALL (  260717 calls)
     incdrhoscf   :    239.76s CPU    280.98s WALL (  260717 calls)
     addusddens   :      3.06s CPU      3.14s WALL (     380 calls)
     vpsifft      :    193.63s CPU    214.55s WALL (  231635 calls)
     dv_of_drho   :      2.49s CPU      2.76s WALL (     394 calls)
     mix_pot      :      0.56s CPU      1.90s WALL (     340 calls)
     ef_shift     :      0.02s CPU      0.04s WALL (       7 calls)
     localdos     :      0.07s CPU      0.07s WALL (       1 calls)
     psymdvscf    :     20.60s CPU     21.06s WALL (     309 calls)
     newdq        :      3.05s CPU      3.09s WALL (     340 calls)
     adddvscf     :     12.89s CPU     14.12s WALL (  231635 calls)
     drhodvus     :      0.04s CPU      0.05s WALL (      40 calls)

     dvqpsi_us    :     63.18s CPU     68.50s WALL (   29082 calls)
     dvqpsi_us_on :     13.02s CPU     13.84s WALL (   29082 calls)

     cgsolve      :   2590.09s CPU   2866.07s WALL (  260717 calls)
     ch_psi       :   2418.17s CPU   2674.60s WALL ( 2678764 calls)

     ch_psi       :   2418.17s CPU   2674.60s WALL ( 2678764 calls)
     h_psi        :   2442.94s CPU   2687.70s WALL ( 3059056 calls)
     last         :    291.28s CPU    323.05s WALL ( 2678764 calls)

     h_psi        :   2442.94s CPU   2687.70s WALL ( 3059056 calls)
     add_vuspsi   :     41.76s CPU     46.76s WALL ( 3059056 calls)

     incdrhoscf   :    239.76s CPU    280.98s WALL (  260717 calls)
     addusdbec    :     23.48s CPU     25.89s WALL (  289799 calls)

     drhodvus     :      0.04s CPU      0.05s WALL (      40 calls)

      General routines
     calbec       :    325.21s CPU    356.94s WALL ( 6540191 calls)
     fft          :      3.33s CPU      3.73s WALL (    6331 calls)
     ffts         :      3.09s CPU      3.40s WALL (   30426 calls)
     fftw         :   2379.69s CPU   2634.71s WALL (29353735 calls)
     davcio       :     29.54s CPU     55.41s WALL ( 1361690 calls)
     write_rec    :      1.29s CPU      4.41s WALL (     380 calls)


     PHONON       :     1h14m CPU        1h21m WALL


   This run was terminated on:   2:10:22  31Jan2018            

=------------------------------------------------------------------------------=
   JOB DONE.
=------------------------------------------------------------------------------=
