
     Program PHONON v.6.1 (svn rev. 13369) starts on 31Jan2018 at 11: 3:22 

     This program is part of the open-source Quantum ESPRESSO suite
     for quantum simulation of materials; please cite
         "P. Giannozzi et al., J. Phys.:Condens. Matter 21 395502 (2009);
          URL http://www.quantum-espresso.org", 
     in publications or presentations arising from this work. More details at
     http://www.quantum-espresso.org/quote

     Parallel version (MPI), running on    64 processors
     K-points division:     npool     =       4
     R & G space division:  proc/nbgrp/npool/nimage =      16

     Reading data from directory:
     ./na.fcc.save

   Info: using nr1, nr2, nr3 values from input

   Info: using nr1, nr2, nr3 values from input

     IMPORTANT: XC functional enforced from input :
     Exchange-correlation      = SLA  PW   PBE  PBE ( 1  4  3  4 0 0)
     Any further DFT definition will be discarded
     Please, verify this is what you really want


     Parallelization info
     --------------------
     sticks:   dense  smooth     PW     G-vecs:    dense   smooth      PW
     Min          72      36     12                 1642      584     112
     Max          73      37     13                 1646      588     114
     Sum        1159     583    199                26301     9377    1807



     Dynamical matrices for ( 6, 6, 6)  uniform grid of q-points
     (  16q-points):
       N         xq(1)         xq(2)         xq(3) 
       1   0.000000000   0.000000000   0.000000000
       2  -0.166666667   0.166666667  -0.166666667
       3  -0.333333333   0.333333333  -0.333333333
       4   0.500000000  -0.500000000   0.500000000
       5   0.000000000   0.333333333   0.000000000
       6  -0.166666667   0.500000000  -0.166666667
       7   0.666666667  -0.333333333   0.666666667
       8   0.500000000  -0.166666667   0.500000000
       9   0.333333333   0.000000000   0.333333333
      10   0.000000000   0.666666667   0.000000000
      11   0.833333333  -0.166666667   0.833333333
      12   0.666666667  -0.000000000   0.666666667
      13   0.000000000  -1.000000000   0.000000000
      14   0.666666667  -0.333333333   1.000000000
      15   0.500000000  -0.166666667   0.833333333
      16  -0.333333333  -1.000000000   0.000000000

     Calculation of q =    0.0000000   0.0000000   0.0000000

                                                                                

     bravais-lattice index     =            2
     lattice parameter (alat)  =      10.2800  a.u.
     unit-cell volume          =     271.5935 (a.u.)^3
     number of atoms/cell      =            1
     number of atomic types    =            1
     kinetic-energy cut-off    =      40.0000  Ry
     charge density cut-off    =     320.0000  Ry
     convergence threshold     =      1.0E-16
     beta                      =       0.7000
     number of iterations used =            4
     Exchange-correlation      = SLA  PW   PBE  PBE ( 1  4  3  4 0 0)


     celldm(1)=   10.28000  celldm(2)=    0.00000  celldm(3)=    0.00000
     celldm(4)=    0.00000  celldm(5)=    0.00000  celldm(6)=    0.00000

     crystal axes: (cart. coord. in units of alat)
               a(1) = ( -0.5000  0.0000  0.5000 )  
               a(2) = (  0.0000  0.5000  0.5000 )  
               a(3) = ( -0.5000  0.5000  0.0000 )  

     reciprocal axes: (cart. coord. in units 2 pi/alat)
               b(1) = ( -1.0000 -1.0000  1.0000 )  
               b(2) = (  1.0000  1.0000  1.0000 )  
               b(3) = ( -1.0000  1.0000 -1.0000 )  


     Atoms inside the unit cell: 

     Cartesian axes

     site n.  atom      mass           positions (alat units)
        1     Na  22.9900   tau(    1) = (    0.00000    0.00000    0.00000  )

     Computing dynamical matrix for 
                    q = (   0.0000000   0.0000000   0.0000000 )

     49 Sym.Ops. (with q -> -q+G )


     G cutoff =  856.5968  (   1643 G-vectors)     FFT grid: ( 45, 45, 45)
     G cutoff =  428.2984  (    585 G-vectors)  smooth grid: ( 30, 30, 30)

     number of k points=   770  Marzari-Vanderbilt smearing, width (Ry)=  0.0200

     PseudoPot. # 1 for Na read from file:
     /home/s1333534/quantum_espresso/qe-6.1/pseudo/Na_pbe_v1.uspp.F.UPF
     MD5 check sum: 76a99c7e9422403d3e93cbc85ab7bccb
     Pseudo is Ultrasoft, Zval =  9.0
     Generated by new atomic code, or converted to UPF format
     Using radial grid of  819 points,  5 beta functions with: 
                l(1) =   0
                l(2) =   0
                l(3) =   1
                l(4) =   1
                l(5) =   2
     Q(r) pseudized with  8 coefficients,  rinner =    1.250   1.250   1.250
                                                       1.250   1.250

     Mode symmetry, O_h (m-3m)  point group:


     Atomic displacements:
     There are   1 irreducible representations

     Representation     1      3 modes -T_1u G_15  G_4-  To be done



     Alpha used in Ewald sum =   2.8000
     PHONON       :     7.65s CPU         8.17s WALL



     Representation #  1 modes #   1  2  3

     Self-consistent Calculation

     Pert. #  1: Fermi energy shift (Ry) =     6.4623E-26    -1.8808E-37
     Pert. #  2: Fermi energy shift (Ry) =    -5.1699E-26     1.7241E-37
     Pert. #  3: Fermi energy shift (Ry) =    -2.1541E-26     6.5828E-37

      iter #   1 total cpu time :    19.6 secs   av.it.:   5.3
      thresh= 1.000E-02 alpha_mix =  0.700 |ddv_scf|^2 =  8.258E-07

     Pert. #  1: Fermi energy shift (Ry) =     3.0158E-26     4.8979E-40
     Pert. #  2: Fermi energy shift (Ry) =     7.7548E-26    -3.3673E-40
     Pert. #  3: Fermi energy shift (Ry) =    -5.4930E-26     6.7346E-40

      iter #   2 total cpu time :    32.7 secs   av.it.:   8.4
      thresh= 9.088E-05 alpha_mix =  0.700 |ddv_scf|^2 =  1.542E-08

     Pert. #  1: Fermi energy shift (Ry) =    -1.0771E-26     0.0000E+00
     Pert. #  2: Fermi energy shift (Ry) =     4.3082E-27     2.2959E-41
     Pert. #  3: Fermi energy shift (Ry) =     2.1541E-27     2.6785E-41

      iter #   3 total cpu time :    46.1 secs   av.it.:   8.6
      thresh= 1.242E-05 alpha_mix =  0.700 |ddv_scf|^2 =  3.679E-10

     Pert. #  1: Fermi energy shift (Ry) =    -1.0771E-27     0.0000E+00
     Pert. #  2: Fermi energy shift (Ry) =    -7.6740E-27     3.8265E-42
     Pert. #  3: Fermi energy shift (Ry) =     1.6156E-27    -1.1479E-41

      iter #   4 total cpu time :    60.2 secs   av.it.:   8.1
      thresh= 1.918E-06 alpha_mix =  0.700 |ddv_scf|^2 =  1.245E-12

     Pert. #  1: Fermi energy shift (Ry) =    -8.6165E-27     0.0000E+00
     Pert. #  2: Fermi energy shift (Ry) =    -1.0232E-26    -1.1958E-42
     Pert. #  3: Fermi energy shift (Ry) =     8.3472E-27    -4.7831E-43

      iter #   5 total cpu time :    73.5 secs   av.it.:   8.5
      thresh= 1.116E-07 alpha_mix =  0.700 |ddv_scf|^2 =  2.343E-15

     Pert. #  1: Fermi energy shift (Ry) =    -2.3695E-26    -1.1958E-43
     Pert. #  2: Fermi energy shift (Ry) =    -1.6156E-27    -2.3915E-43
     Pert. #  3: Fermi energy shift (Ry) =    -7.2701E-27     2.3915E-43

      iter #   6 total cpu time :    86.1 secs   av.it.:   7.9
      thresh= 4.841E-09 alpha_mix =  0.700 |ddv_scf|^2 =  6.556E-17

     End of self-consistent calculation

     Convergence has been achieved 

     Number of q in the star =    1
     List of q in the star:
          1   0.000000000   0.000000000   0.000000000

     Diagonalizing the dynamical matrix

     q = (    0.000000000   0.000000000   0.000000000 ) 

 **************************************************************************
     freq (    1) =      -0.435173 [THz] =     -14.515815 [cm-1]
     freq (    2) =      -0.435173 [THz] =     -14.515815 [cm-1]
     freq (    3) =      -0.435173 [THz] =     -14.515815 [cm-1]
 **************************************************************************

     Mode symmetry, O_h (m-3m)  point group:

     freq (  1 -  3) =        -14.5  [cm-1]   --> T_1u G_15  G_4- I  

     Calculation of q =   -0.1666667   0.1666667  -0.1666667

   Info: using nr1, nr2, nr3 values from input

   Info: using nr1, nr2, nr3 values from input

     Parallelization info
     --------------------
     sticks:   dense  smooth     PW     G-vecs:    dense   smooth      PW
     Min          72      36     12                 1642      584     118
     Max          73      37     13                 1646      588     122
     Sum        1159     583    199                26301     9377    1917



     bravais-lattice index     =            2
     lattice parameter (alat)  =      10.2800  a.u.
     unit-cell volume          =     271.5935 (a.u.)^3
     number of atoms/cell      =            1
     number of atomic types    =            1
     number of electrons       =         9.00
     number of Kohn-Sham states=            9
     kinetic-energy cutoff     =      40.0000  Ry
     charge density cutoff     =     320.0000  Ry
     Exchange-correlation      = SLA  PW   PBE  PBE ( 1  4  3  4 0 0)

     celldm(1)=  10.280000  celldm(2)=   0.000000  celldm(3)=   0.000000
     celldm(4)=   0.000000  celldm(5)=   0.000000  celldm(6)=   0.000000

     crystal axes: (cart. coord. in units of alat)
               a(1) = (  -0.500000   0.000000   0.500000 )  
               a(2) = (   0.000000   0.500000   0.500000 )  
               a(3) = (  -0.500000   0.500000   0.000000 )  

     reciprocal axes: (cart. coord. in units 2 pi/alat)
               b(1) = ( -1.000000 -1.000000  1.000000 )  
               b(2) = (  1.000000  1.000000  1.000000 )  
               b(3) = ( -1.000000  1.000000 -1.000000 )  


     PseudoPot. # 1 for Na read from file:
     /home/s1333534/quantum_espresso/qe-6.1/pseudo/Na_pbe_v1.uspp.F.UPF
     MD5 check sum: 76a99c7e9422403d3e93cbc85ab7bccb
     Pseudo is Ultrasoft, Zval =  9.0
     Generated by new atomic code, or converted to UPF format
     Using radial grid of  819 points,  5 beta functions with: 
                l(1) =   0
                l(2) =   0
                l(3) =   1
                l(4) =   1
                l(5) =   2
     Q(r) pseudized with  8 coefficients,  rinner =    1.250   1.250   1.250
                                                       1.250   1.250

     atomic species   valence    mass     pseudopotential
        Na             9.00    22.99000     Na( 1.00)

     48 Sym. Ops., with inversion, found



   Cartesian axes

     site n.     atom                  positions (alat units)
         1           Na  tau(   1) = (   0.0000000   0.0000000   0.0000000  )

     number of k points= 11480  Marzari-Vanderbilt smearing, width (Ry)=  0.0200

     Number of k-points >= 100: set verbosity='high' to print them.

     Dense  grid:    26301 G-vectors     FFT dimensions: (  45,  45,  45)

     Smooth grid:     9377 G-vectors     FFT dimensions: (  30,  30,  30)

     Estimated max dynamical RAM per process >       0.90MB

     Estimated total allocated dynamical RAM >      57.79MB

     The potential is recalculated from file :
     ./_ph0/na.fcc.save/charge-density.dat

     Starting wfc are    5 atomic +    4 random wfc

     Band Structure Calculation
     Davidson diagonalization with overlap

     ethr =  1.11E-10,  avg # of iterations = 20.8

     total cpu time spent up to now is      204.3 secs

     End of band structure calculation

     Number of k-points >= 100: set verbosity='high' to print the bands.

     the Fermi energy is     1.2769 ev

     Writing output data file na.fcc.save

                                                                                

     bravais-lattice index     =            2
     lattice parameter (alat)  =      10.2800  a.u.
     unit-cell volume          =     271.5935 (a.u.)^3
     number of atoms/cell      =            1
     number of atomic types    =            1
     kinetic-energy cut-off    =      40.0000  Ry
     charge density cut-off    =     320.0000  Ry
     convergence threshold     =      1.0E-16
     beta                      =       0.7000
     number of iterations used =            4
     Exchange-correlation      = SLA  PW   PBE  PBE ( 1  4  3  4 0 0)


     celldm(1)=   10.28000  celldm(2)=    0.00000  celldm(3)=    0.00000
     celldm(4)=    0.00000  celldm(5)=    0.00000  celldm(6)=    0.00000

     crystal axes: (cart. coord. in units of alat)
               a(1) = ( -0.5000  0.0000  0.5000 )  
               a(2) = (  0.0000  0.5000  0.5000 )  
               a(3) = ( -0.5000  0.5000  0.0000 )  

     reciprocal axes: (cart. coord. in units 2 pi/alat)
               b(1) = ( -1.0000 -1.0000  1.0000 )  
               b(2) = (  1.0000  1.0000  1.0000 )  
               b(3) = ( -1.0000  1.0000 -1.0000 )  


     Atoms inside the unit cell: 

     Cartesian axes

     site n.  atom      mass           positions (alat units)
        1     Na  22.9900   tau(    1) = (    0.00000    0.00000    0.00000  )

     Computing dynamical matrix for 
                    q = (  -0.1666667   0.1666667  -0.1666667 )

      6 Sym.Ops. (no q -> -q+G )


     G cutoff =  856.5968  (   1643 G-vectors)     FFT grid: ( 45, 45, 45)
     G cutoff =  428.2984  (    585 G-vectors)  smooth grid: ( 30, 30, 30)

     number of k points= 11480  Marzari-Vanderbilt smearing, width (Ry)=  0.0200

     PseudoPot. # 1 for Na read from file:
     /home/s1333534/quantum_espresso/qe-6.1/pseudo/Na_pbe_v1.uspp.F.UPF
     MD5 check sum: 76a99c7e9422403d3e93cbc85ab7bccb
     Pseudo is Ultrasoft, Zval =  9.0
     Generated by new atomic code, or converted to UPF format
     Using radial grid of  819 points,  5 beta functions with: 
                l(1) =   0
                l(2) =   0
                l(3) =   1
                l(4) =   1
                l(5) =   2
     Q(r) pseudized with  8 coefficients,  rinner =    1.250   1.250   1.250
                                                       1.250   1.250

     Mode symmetry, C_3v (3m)   point group:


     Atomic displacements:
     There are   2 irreducible representations

     Representation     1      1 modes -A_1  L_1  To be done

     Representation     2      2 modes -E    L_3  To be done



     Alpha used in Ewald sum =   2.8000
     PHONON       :  5m15.00s CPU     5m33.53s WALL



     Representation #  1 mode #   1

     Self-consistent Calculation

      iter #   1 total cpu time :   358.3 secs   av.it.:   5.7
      thresh= 1.000E-02 alpha_mix =  0.700 |ddv_scf|^2 =  2.208E-02

      iter #   2 total cpu time :   381.9 secs   av.it.:   6.4
      thresh= 1.000E-02 alpha_mix =  0.700 |ddv_scf|^2 =  3.837E+00

      iter #   3 total cpu time :   404.9 secs   av.it.:   6.3
      thresh= 1.000E-02 alpha_mix =  0.700 |ddv_scf|^2 =  1.749E-07

      iter #   4 total cpu time :   433.2 secs   av.it.:   8.3
      thresh= 4.183E-05 alpha_mix =  0.700 |ddv_scf|^2 =  3.018E-08

      iter #   5 total cpu time :   459.6 secs   av.it.:   7.7
      thresh= 1.737E-05 alpha_mix =  0.700 |ddv_scf|^2 =  2.935E-09

      iter #   6 total cpu time :   485.9 secs   av.it.:   7.6
      thresh= 5.417E-06 alpha_mix =  0.700 |ddv_scf|^2 =  1.292E-08

      iter #   7 total cpu time :   503.4 secs   av.it.:   4.2
      thresh= 1.137E-05 alpha_mix =  0.700 |ddv_scf|^2 =  3.945E-10

      iter #   8 total cpu time :   529.0 secs   av.it.:   7.5
      thresh= 1.986E-06 alpha_mix =  0.700 |ddv_scf|^2 =  1.458E-11

      iter #   9 total cpu time :   554.4 secs   av.it.:   7.4
      thresh= 3.819E-07 alpha_mix =  0.700 |ddv_scf|^2 =  1.127E-12

      iter #  10 total cpu time :   579.7 secs   av.it.:   7.4
      thresh= 1.062E-07 alpha_mix =  0.700 |ddv_scf|^2 =  1.463E-13

      iter #  11 total cpu time :   605.1 secs   av.it.:   7.3
      thresh= 3.825E-08 alpha_mix =  0.700 |ddv_scf|^2 =  4.290E-16

      iter #  12 total cpu time :   632.4 secs   av.it.:   8.0
      thresh= 2.071E-09 alpha_mix =  0.700 |ddv_scf|^2 =  2.591E-16

      iter #  13 total cpu time :   657.8 secs   av.it.:   7.0
      thresh= 1.610E-09 alpha_mix =  0.700 |ddv_scf|^2 =  5.773E-15

      iter #  14 total cpu time :   679.7 secs   av.it.:   5.8
      thresh= 7.598E-09 alpha_mix =  0.700 |ddv_scf|^2 =  1.836E-18

     End of self-consistent calculation

     Convergence has been achieved 


     Representation #  2 modes #   2  3

     Self-consistent Calculation

      iter #   1 total cpu time :   727.9 secs   av.it.:   5.5
      thresh= 1.000E-02 alpha_mix =  0.700 |ddv_scf|^2 =  1.888E-06

      iter #   2 total cpu time :   784.6 secs   av.it.:   8.5
      thresh= 1.374E-04 alpha_mix =  0.700 |ddv_scf|^2 =  3.448E-08

      iter #   3 total cpu time :   843.4 secs   av.it.:   8.6
      thresh= 1.857E-05 alpha_mix =  0.700 |ddv_scf|^2 =  9.271E-10

      iter #   4 total cpu time :   900.3 secs   av.it.:   8.5
      thresh= 3.045E-06 alpha_mix =  0.700 |ddv_scf|^2 =  3.157E-12

      iter #   5 total cpu time :   960.1 secs   av.it.:   8.7
      thresh= 1.777E-07 alpha_mix =  0.700 |ddv_scf|^2 =  5.257E-15

      iter #   6 total cpu time :  1014.7 secs   av.it.:   8.0
      thresh= 7.250E-09 alpha_mix =  0.700 |ddv_scf|^2 =  1.846E-16

      iter #   7 total cpu time :  1072.8 secs   av.it.:   8.6
      thresh= 1.359E-09 alpha_mix =  0.700 |ddv_scf|^2 =  1.465E-19

     End of self-consistent calculation

     Convergence has been achieved 

     Number of q in the star =    8
     List of q in the star:
          1  -0.166666667   0.166666667  -0.166666667
          2   0.166666667   0.166666667   0.166666667
          3  -0.166666667  -0.166666667  -0.166666667
          4   0.166666667  -0.166666667   0.166666667
          5   0.166666667  -0.166666667  -0.166666667
          6   0.166666667   0.166666667  -0.166666667
          7  -0.166666667  -0.166666667   0.166666667
          8  -0.166666667   0.166666667   0.166666667

     Diagonalizing the dynamical matrix

     q = (   -0.166666667   0.166666667  -0.166666667 ) 

 **************************************************************************
     freq (    1) =       0.777866 [THz] =      25.946801 [cm-1]
     freq (    2) =       0.777866 [THz] =      25.946801 [cm-1]
     freq (    3) =       1.794799 [THz] =      59.868043 [cm-1]
 **************************************************************************

     Mode symmetry, C_3v (3m)   point group:

     freq (  1 -  2) =         25.9  [cm-1]   --> E    L_3           
     freq (  3 -  3) =         59.9  [cm-1]   --> A_1  L_1           

     Calculation of q =   -0.3333333   0.3333333  -0.3333333

   Info: using nr1, nr2, nr3 values from input

   Info: using nr1, nr2, nr3 values from input

     Parallelization info
     --------------------
     sticks:   dense  smooth     PW     G-vecs:    dense   smooth      PW
     Min          72      36     13                 1642      584     123
     Max          73      37     14                 1646      588     126
     Sum        1159     583    211                26301     9377    1989



     bravais-lattice index     =            2
     lattice parameter (alat)  =      10.2800  a.u.
     unit-cell volume          =     271.5935 (a.u.)^3
     number of atoms/cell      =            1
     number of atomic types    =            1
     number of electrons       =         9.00
     number of Kohn-Sham states=            9
     kinetic-energy cutoff     =      40.0000  Ry
     charge density cutoff     =     320.0000  Ry
     Exchange-correlation      = SLA  PW   PBE  PBE ( 1  4  3  4 0 0)

     celldm(1)=  10.280000  celldm(2)=   0.000000  celldm(3)=   0.000000
     celldm(4)=   0.000000  celldm(5)=   0.000000  celldm(6)=   0.000000

     crystal axes: (cart. coord. in units of alat)
               a(1) = (  -0.500000   0.000000   0.500000 )  
               a(2) = (   0.000000   0.500000   0.500000 )  
               a(3) = (  -0.500000   0.500000   0.000000 )  

     reciprocal axes: (cart. coord. in units 2 pi/alat)
               b(1) = ( -1.000000 -1.000000  1.000000 )  
               b(2) = (  1.000000  1.000000  1.000000 )  
               b(3) = ( -1.000000  1.000000 -1.000000 )  


     PseudoPot. # 1 for Na read from file:
     /home/s1333534/quantum_espresso/qe-6.1/pseudo/Na_pbe_v1.uspp.F.UPF
     MD5 check sum: 76a99c7e9422403d3e93cbc85ab7bccb
     Pseudo is Ultrasoft, Zval =  9.0
     Generated by new atomic code, or converted to UPF format
     Using radial grid of  819 points,  5 beta functions with: 
                l(1) =   0
                l(2) =   0
                l(3) =   1
                l(4) =   1
                l(5) =   2
     Q(r) pseudized with  8 coefficients,  rinner =    1.250   1.250   1.250
                                                       1.250   1.250

     atomic species   valence    mass     pseudopotential
        Na             9.00    22.99000     Na( 1.00)

     48 Sym. Ops., with inversion, found



   Cartesian axes

     site n.     atom                  positions (alat units)
         1           Na  tau(   1) = (   0.0000000   0.0000000   0.0000000  )

     number of k points= 11480  Marzari-Vanderbilt smearing, width (Ry)=  0.0200

     Number of k-points >= 100: set verbosity='high' to print them.

     Dense  grid:    26301 G-vectors     FFT dimensions: (  45,  45,  45)

     Smooth grid:     9377 G-vectors     FFT dimensions: (  30,  30,  30)

     Estimated max dynamical RAM per process >       0.90MB

     Estimated total allocated dynamical RAM >      57.79MB

     The potential is recalculated from file :
     ./_ph0/na.fcc.save/charge-density.dat

     Starting wfc are    5 atomic +    4 random wfc

     Band Structure Calculation
     Davidson diagonalization with overlap

     ethr =  1.11E-10,  avg # of iterations = 20.7

     total cpu time spent up to now is      441.0 secs

     End of band structure calculation

     Number of k-points >= 100: set verbosity='high' to print the bands.

     the Fermi energy is     1.2769 ev

     Writing output data file na.fcc.save

                                                                                

     bravais-lattice index     =            2
     lattice parameter (alat)  =      10.2800  a.u.
     unit-cell volume          =     271.5935 (a.u.)^3
     number of atoms/cell      =            1
     number of atomic types    =            1
     kinetic-energy cut-off    =      40.0000  Ry
     charge density cut-off    =     320.0000  Ry
     convergence threshold     =      1.0E-16
     beta                      =       0.7000
     number of iterations used =            4
     Exchange-correlation      = SLA  PW   PBE  PBE ( 1  4  3  4 0 0)


     celldm(1)=   10.28000  celldm(2)=    0.00000  celldm(3)=    0.00000
     celldm(4)=    0.00000  celldm(5)=    0.00000  celldm(6)=    0.00000

     crystal axes: (cart. coord. in units of alat)
               a(1) = ( -0.5000  0.0000  0.5000 )  
               a(2) = (  0.0000  0.5000  0.5000 )  
               a(3) = ( -0.5000  0.5000  0.0000 )  

     reciprocal axes: (cart. coord. in units 2 pi/alat)
               b(1) = ( -1.0000 -1.0000  1.0000 )  
               b(2) = (  1.0000  1.0000  1.0000 )  
               b(3) = ( -1.0000  1.0000 -1.0000 )  


     Atoms inside the unit cell: 

     Cartesian axes

     site n.  atom      mass           positions (alat units)
        1     Na  22.9900   tau(    1) = (    0.00000    0.00000    0.00000  )

     Computing dynamical matrix for 
                    q = (  -0.3333333   0.3333333  -0.3333333 )

      6 Sym.Ops. (no q -> -q+G )


     G cutoff =  856.5968  (   1643 G-vectors)     FFT grid: ( 45, 45, 45)
     G cutoff =  428.2984  (    585 G-vectors)  smooth grid: ( 30, 30, 30)

     number of k points= 11480  Marzari-Vanderbilt smearing, width (Ry)=  0.0200

     PseudoPot. # 1 for Na read from file:
     /home/s1333534/quantum_espresso/qe-6.1/pseudo/Na_pbe_v1.uspp.F.UPF
     MD5 check sum: 76a99c7e9422403d3e93cbc85ab7bccb
     Pseudo is Ultrasoft, Zval =  9.0
     Generated by new atomic code, or converted to UPF format
     Using radial grid of  819 points,  5 beta functions with: 
                l(1) =   0
                l(2) =   0
                l(3) =   1
                l(4) =   1
                l(5) =   2
     Q(r) pseudized with  8 coefficients,  rinner =    1.250   1.250   1.250
                                                       1.250   1.250

     Mode symmetry, C_3v (3m)   point group:


     Atomic displacements:
     There are   2 irreducible representations

     Representation     1      1 modes -A_1  L_1  To be done

     Representation     2      2 modes -E    L_3  To be done



     Alpha used in Ewald sum =   2.8000
     PHONON       : 20m32.41s CPU    22m 1.19s WALL



     Representation #  1 mode #   1

     Self-consistent Calculation

      iter #   1 total cpu time :  1346.7 secs   av.it.:   5.7
      thresh= 1.000E-02 alpha_mix =  0.700 |ddv_scf|^2 =  3.694E-04

      iter #   2 total cpu time :  1371.7 secs   av.it.:   6.8
      thresh= 1.922E-03 alpha_mix =  0.700 |ddv_scf|^2 =  2.561E-03

      iter #   3 total cpu time :  1393.7 secs   av.it.:   5.7
      thresh= 5.061E-03 alpha_mix =  0.700 |ddv_scf|^2 =  3.993E-07

      iter #   4 total cpu time :  1421.7 secs   av.it.:   7.9
      thresh= 6.319E-05 alpha_mix =  0.700 |ddv_scf|^2 =  7.205E-09

      iter #   5 total cpu time :  1450.7 secs   av.it.:   8.5
      thresh= 8.488E-06 alpha_mix =  0.700 |ddv_scf|^2 =  2.457E-10

      iter #   6 total cpu time :  1480.5 secs   av.it.:   8.4
      thresh= 1.568E-06 alpha_mix =  0.700 |ddv_scf|^2 =  1.637E-11

      iter #   7 total cpu time :  1509.7 secs   av.it.:   8.1
      thresh= 4.046E-07 alpha_mix =  0.700 |ddv_scf|^2 =  5.553E-13

      iter #   8 total cpu time :  1537.8 secs   av.it.:   8.2
      thresh= 7.452E-08 alpha_mix =  0.700 |ddv_scf|^2 =  2.020E-15

      iter #   9 total cpu time :  1565.7 secs   av.it.:   8.1
      thresh= 4.494E-09 alpha_mix =  0.700 |ddv_scf|^2 =  4.936E-15

      iter #  10 total cpu time :  1588.8 secs   av.it.:   6.3
      thresh= 7.025E-09 alpha_mix =  0.700 |ddv_scf|^2 =  6.116E-16

      iter #  11 total cpu time :  1615.7 secs   av.it.:   7.6
      thresh= 2.473E-09 alpha_mix =  0.700 |ddv_scf|^2 =  8.617E-17

     End of self-consistent calculation

     Convergence has been achieved 


     Representation #  2 modes #   2  3

     Self-consistent Calculation

      iter #   1 total cpu time :  1664.7 secs   av.it.:   5.6
      thresh= 1.000E-02 alpha_mix =  0.700 |ddv_scf|^2 =  1.945E-06

      iter #   2 total cpu time :  1724.2 secs   av.it.:   8.5
      thresh= 1.395E-04 alpha_mix =  0.700 |ddv_scf|^2 =  3.419E-08

      iter #   3 total cpu time :  1784.9 secs   av.it.:   8.7
      thresh= 1.849E-05 alpha_mix =  0.700 |ddv_scf|^2 =  1.111E-09

      iter #   4 total cpu time :  1843.0 secs   av.it.:   8.5
      thresh= 3.333E-06 alpha_mix =  0.700 |ddv_scf|^2 =  3.819E-12

      iter #   5 total cpu time :  1902.0 secs   av.it.:   8.7
      thresh= 1.954E-07 alpha_mix =  0.700 |ddv_scf|^2 =  5.530E-15

      iter #   6 total cpu time :  1956.6 secs   av.it.:   7.7
      thresh= 7.437E-09 alpha_mix =  0.700 |ddv_scf|^2 =  2.476E-16

      iter #   7 total cpu time :  2018.0 secs   av.it.:   8.7
      thresh= 1.573E-09 alpha_mix =  0.700 |ddv_scf|^2 =  2.309E-19

     End of self-consistent calculation

     Convergence has been achieved 

     Number of q in the star =    8
     List of q in the star:
          1  -0.333333333   0.333333333  -0.333333333
          2   0.333333333   0.333333333   0.333333333
          3  -0.333333333  -0.333333333  -0.333333333
          4   0.333333333  -0.333333333   0.333333333
          5   0.333333333  -0.333333333  -0.333333333
          6   0.333333333   0.333333333  -0.333333333
          7  -0.333333333  -0.333333333   0.333333333
          8  -0.333333333   0.333333333   0.333333333

     Diagonalizing the dynamical matrix

     q = (   -0.333333333   0.333333333  -0.333333333 ) 

 **************************************************************************
     freq (    1) =       1.361001 [THz] =      45.398091 [cm-1]
     freq (    2) =       1.361001 [THz] =      45.398091 [cm-1]
     freq (    3) =       3.001510 [THz] =     100.119592 [cm-1]
 **************************************************************************

     Mode symmetry, C_3v (3m)   point group:

     freq (  1 -  2) =         45.4  [cm-1]   --> E    L_3           
     freq (  3 -  3) =        100.1  [cm-1]   --> A_1  L_1           

     Calculation of q =    0.5000000  -0.5000000   0.5000000

   Info: using nr1, nr2, nr3 values from input

   Info: using nr1, nr2, nr3 values from input

     Parallelization info
     --------------------
     sticks:   dense  smooth     PW     G-vecs:    dense   smooth      PW
     Min          72      36     13                 1642      584     130
     Max          73      37     14                 1646      588     133
     Sum        1159     583    211                26301     9377    2109



     bravais-lattice index     =            2
     lattice parameter (alat)  =      10.2800  a.u.
     unit-cell volume          =     271.5935 (a.u.)^3
     number of atoms/cell      =            1
     number of atomic types    =            1
     number of electrons       =         9.00
     number of Kohn-Sham states=            9
     kinetic-energy cutoff     =      40.0000  Ry
     charge density cutoff     =     320.0000  Ry
     Exchange-correlation      = SLA  PW   PBE  PBE ( 1  4  3  4 0 0)

     celldm(1)=  10.280000  celldm(2)=   0.000000  celldm(3)=   0.000000
     celldm(4)=   0.000000  celldm(5)=   0.000000  celldm(6)=   0.000000

     crystal axes: (cart. coord. in units of alat)
               a(1) = (  -0.500000   0.000000   0.500000 )  
               a(2) = (   0.000000   0.500000   0.500000 )  
               a(3) = (  -0.500000   0.500000   0.000000 )  

     reciprocal axes: (cart. coord. in units 2 pi/alat)
               b(1) = ( -1.000000 -1.000000  1.000000 )  
               b(2) = (  1.000000  1.000000  1.000000 )  
               b(3) = ( -1.000000  1.000000 -1.000000 )  


     PseudoPot. # 1 for Na read from file:
     /home/s1333534/quantum_espresso/qe-6.1/pseudo/Na_pbe_v1.uspp.F.UPF
     MD5 check sum: 76a99c7e9422403d3e93cbc85ab7bccb
     Pseudo is Ultrasoft, Zval =  9.0
     Generated by new atomic code, or converted to UPF format
     Using radial grid of  819 points,  5 beta functions with: 
                l(1) =   0
                l(2) =   0
                l(3) =   1
                l(4) =   1
                l(5) =   2
     Q(r) pseudized with  8 coefficients,  rinner =    1.250   1.250   1.250
                                                       1.250   1.250

     atomic species   valence    mass     pseudopotential
        Na             9.00    22.99000     Na( 1.00)

     48 Sym. Ops., with inversion, found



   Cartesian axes

     site n.     atom                  positions (alat units)
         1           Na  tau(   1) = (   0.0000000   0.0000000   0.0000000  )

     number of k points=  5740  Marzari-Vanderbilt smearing, width (Ry)=  0.0200

     Number of k-points >= 100: set verbosity='high' to print them.

     Dense  grid:    26301 G-vectors     FFT dimensions: (  45,  45,  45)

     Smooth grid:     9377 G-vectors     FFT dimensions: (  30,  30,  30)

     Estimated max dynamical RAM per process >       0.90MB

     Estimated total allocated dynamical RAM >      57.79MB

     The potential is recalculated from file :
     ./_ph0/na.fcc.save/charge-density.dat

     Starting wfc are    5 atomic +    4 random wfc

     Band Structure Calculation
     Davidson diagonalization with overlap

     ethr =  1.11E-10,  avg # of iterations = 20.7

     total cpu time spent up to now is      576.4 secs

     End of band structure calculation

     Number of k-points >= 100: set verbosity='high' to print the bands.

     the Fermi energy is     1.2769 ev

     Writing output data file na.fcc.save

                                                                                

     bravais-lattice index     =            2
     lattice parameter (alat)  =      10.2800  a.u.
     unit-cell volume          =     271.5935 (a.u.)^3
     number of atoms/cell      =            1
     number of atomic types    =            1
     kinetic-energy cut-off    =      40.0000  Ry
     charge density cut-off    =     320.0000  Ry
     convergence threshold     =      1.0E-16
     beta                      =       0.7000
     number of iterations used =            4
     Exchange-correlation      = SLA  PW   PBE  PBE ( 1  4  3  4 0 0)


     celldm(1)=   10.28000  celldm(2)=    0.00000  celldm(3)=    0.00000
     celldm(4)=    0.00000  celldm(5)=    0.00000  celldm(6)=    0.00000

     crystal axes: (cart. coord. in units of alat)
               a(1) = ( -0.5000  0.0000  0.5000 )  
               a(2) = (  0.0000  0.5000  0.5000 )  
               a(3) = ( -0.5000  0.5000  0.0000 )  

     reciprocal axes: (cart. coord. in units 2 pi/alat)
               b(1) = ( -1.0000 -1.0000  1.0000 )  
               b(2) = (  1.0000  1.0000  1.0000 )  
               b(3) = ( -1.0000  1.0000 -1.0000 )  


     Atoms inside the unit cell: 

     Cartesian axes

     site n.  atom      mass           positions (alat units)
        1     Na  22.9900   tau(    1) = (    0.00000    0.00000    0.00000  )

     Computing dynamical matrix for 
                    q = (   0.5000000  -0.5000000   0.5000000 )

     13 Sym.Ops. (with q -> -q+G )


     G cutoff =  856.5968  (   1643 G-vectors)     FFT grid: ( 45, 45, 45)
     G cutoff =  428.2984  (    585 G-vectors)  smooth grid: ( 30, 30, 30)

     number of k points=  5740  Marzari-Vanderbilt smearing, width (Ry)=  0.0200

     PseudoPot. # 1 for Na read from file:
     /home/s1333534/quantum_espresso/qe-6.1/pseudo/Na_pbe_v1.uspp.F.UPF
     MD5 check sum: 76a99c7e9422403d3e93cbc85ab7bccb
     Pseudo is Ultrasoft, Zval =  9.0
     Generated by new atomic code, or converted to UPF format
     Using radial grid of  819 points,  5 beta functions with: 
                l(1) =   0
                l(2) =   0
                l(3) =   1
                l(4) =   1
                l(5) =   2
     Q(r) pseudized with  8 coefficients,  rinner =    1.250   1.250   1.250
                                                       1.250   1.250

     Mode symmetry, D_3d (-3m)  point group:


     Atomic displacements:
     There are   2 irreducible representations

     Representation     1      1 modes -A_2u L_2'  To be done

     Representation     2      2 modes -E_u  L_3'  To be done



     Alpha used in Ewald sum =   2.8000
     PHONON       : 33m13.40s CPU    35m43.41s WALL



     Representation #  1 mode #   1

     Self-consistent Calculation

      iter #   1 total cpu time :  2156.4 secs   av.it.:   5.7
      thresh= 1.000E-02 alpha_mix =  0.700 |ddv_scf|^2 =  7.337E-05

      iter #   2 total cpu time :  2169.6 secs   av.it.:   6.9
      thresh= 8.565E-04 alpha_mix =  0.700 |ddv_scf|^2 =  4.647E-05

      iter #   3 total cpu time :  2182.2 secs   av.it.:   6.7
      thresh= 6.817E-04 alpha_mix =  0.700 |ddv_scf|^2 =  5.793E-08

      iter #   4 total cpu time :  2196.8 secs   av.it.:   7.9
      thresh= 2.407E-05 alpha_mix =  0.700 |ddv_scf|^2 =  2.510E-10

      iter #   5 total cpu time :  2209.8 secs   av.it.:   7.1
      thresh= 1.584E-06 alpha_mix =  0.700 |ddv_scf|^2 =  4.508E-12

      iter #   6 total cpu time :  2223.7 secs   av.it.:   6.8
      thresh= 2.123E-07 alpha_mix =  0.700 |ddv_scf|^2 =  1.513E-14

      iter #   7 total cpu time :  2237.5 secs   av.it.:   7.6
      thresh= 1.230E-08 alpha_mix =  0.700 |ddv_scf|^2 =  3.249E-17

     End of self-consistent calculation

     Convergence has been achieved 


     Representation #  2 modes #   2  3

     Self-consistent Calculation

      iter #   1 total cpu time :  2262.4 secs   av.it.:   5.4
      thresh= 1.000E-02 alpha_mix =  0.700 |ddv_scf|^2 =  1.971E-06

      iter #   2 total cpu time :  2291.9 secs   av.it.:   8.4
      thresh= 1.404E-04 alpha_mix =  0.700 |ddv_scf|^2 =  3.404E-08

      iter #   3 total cpu time :  2322.1 secs   av.it.:   8.5
      thresh= 1.845E-05 alpha_mix =  0.700 |ddv_scf|^2 =  1.184E-09

      iter #   4 total cpu time :  2351.4 secs   av.it.:   8.0
      thresh= 3.440E-06 alpha_mix =  0.700 |ddv_scf|^2 =  4.099E-12

      iter #   5 total cpu time :  2380.8 secs   av.it.:   8.3
      thresh= 2.025E-07 alpha_mix =  0.700 |ddv_scf|^2 =  5.726E-15

      iter #   6 total cpu time :  2406.8 secs   av.it.:   7.2
      thresh= 7.567E-09 alpha_mix =  0.700 |ddv_scf|^2 =  2.697E-16

      iter #   7 total cpu time :  2436.1 secs   av.it.:   8.4
      thresh= 1.642E-09 alpha_mix =  0.700 |ddv_scf|^2 =  2.215E-19

     End of self-consistent calculation

     Convergence has been achieved 

     Number of q in the star =    4
     List of q in the star:
          1   0.500000000  -0.500000000   0.500000000
          2   0.500000000   0.500000000   0.500000000
          3  -0.500000000   0.500000000   0.500000000
          4   0.500000000   0.500000000  -0.500000000

     Diagonalizing the dynamical matrix

     q = (    0.500000000  -0.500000000   0.500000000 ) 

 **************************************************************************
     freq (    1) =       1.604020 [THz] =      53.504363 [cm-1]
     freq (    2) =       1.604020 [THz] =      53.504363 [cm-1]
     freq (    3) =       3.437285 [THz] =     114.655496 [cm-1]
 **************************************************************************

     Mode symmetry, D_3d (-3m)  point group:

     freq (  1 -  2) =         53.5  [cm-1]   --> E_u  L_3'          
     freq (  3 -  3) =        114.7  [cm-1]   --> A_2u L_2'          

     Calculation of q =    0.0000000   0.3333333   0.0000000

   Info: using nr1, nr2, nr3 values from input

   Info: using nr1, nr2, nr3 values from input

     Parallelization info
     --------------------
     sticks:   dense  smooth     PW     G-vecs:    dense   smooth      PW
     Min          72      36     12                 1642      584     118
     Max          73      37     13                 1646      588     122
     Sum        1159     583    199                26301     9377    1917



     bravais-lattice index     =            2
     lattice parameter (alat)  =      10.2800  a.u.
     unit-cell volume          =     271.5935 (a.u.)^3
     number of atoms/cell      =            1
     number of atomic types    =            1
     number of electrons       =         9.00
     number of Kohn-Sham states=            9
     kinetic-energy cutoff     =      40.0000  Ry
     charge density cutoff     =     320.0000  Ry
     Exchange-correlation      = SLA  PW   PBE  PBE ( 1  4  3  4 0 0)

     celldm(1)=  10.280000  celldm(2)=   0.000000  celldm(3)=   0.000000
     celldm(4)=   0.000000  celldm(5)=   0.000000  celldm(6)=   0.000000

     crystal axes: (cart. coord. in units of alat)
               a(1) = (  -0.500000   0.000000   0.500000 )  
               a(2) = (   0.000000   0.500000   0.500000 )  
               a(3) = (  -0.500000   0.500000   0.000000 )  

     reciprocal axes: (cart. coord. in units 2 pi/alat)
               b(1) = ( -1.000000 -1.000000  1.000000 )  
               b(2) = (  1.000000  1.000000  1.000000 )  
               b(3) = ( -1.000000  1.000000 -1.000000 )  


     PseudoPot. # 1 for Na read from file:
     /home/s1333534/quantum_espresso/qe-6.1/pseudo/Na_pbe_v1.uspp.F.UPF
     MD5 check sum: 76a99c7e9422403d3e93cbc85ab7bccb
     Pseudo is Ultrasoft, Zval =  9.0
     Generated by new atomic code, or converted to UPF format
     Using radial grid of  819 points,  5 beta functions with: 
                l(1) =   0
                l(2) =   0
                l(3) =   1
                l(4) =   1
                l(5) =   2
     Q(r) pseudized with  8 coefficients,  rinner =    1.250   1.250   1.250
                                                       1.250   1.250

     atomic species   valence    mass     pseudopotential
        Na             9.00    22.99000     Na( 1.00)

     48 Sym. Ops., with inversion, found



   Cartesian axes

     site n.     atom                  positions (alat units)
         1           Na  tau(   1) = (   0.0000000   0.0000000   0.0000000  )

     number of k points=  8400  Marzari-Vanderbilt smearing, width (Ry)=  0.0200

     Number of k-points >= 100: set verbosity='high' to print them.

     Dense  grid:    26301 G-vectors     FFT dimensions: (  45,  45,  45)

     Smooth grid:     9377 G-vectors     FFT dimensions: (  30,  30,  30)

     Estimated max dynamical RAM per process >       0.90MB

     Estimated total allocated dynamical RAM >      57.79MB

     The potential is recalculated from file :
     ./_ph0/na.fcc.save/charge-density.dat

     Starting wfc are    5 atomic +    4 random wfc

     Band Structure Calculation
     Davidson diagonalization with overlap

     ethr =  1.11E-10,  avg # of iterations = 20.7

     total cpu time spent up to now is      741.4 secs

     End of band structure calculation

     Number of k-points >= 100: set verbosity='high' to print the bands.

     the Fermi energy is     1.2769 ev

     Writing output data file na.fcc.save

                                                                                

     bravais-lattice index     =            2
     lattice parameter (alat)  =      10.2800  a.u.
     unit-cell volume          =     271.5935 (a.u.)^3
     number of atoms/cell      =            1
     number of atomic types    =            1
     kinetic-energy cut-off    =      40.0000  Ry
     charge density cut-off    =     320.0000  Ry
     convergence threshold     =      1.0E-16
     beta                      =       0.7000
     number of iterations used =            4
     Exchange-correlation      = SLA  PW   PBE  PBE ( 1  4  3  4 0 0)


     celldm(1)=   10.28000  celldm(2)=    0.00000  celldm(3)=    0.00000
     celldm(4)=    0.00000  celldm(5)=    0.00000  celldm(6)=    0.00000

     crystal axes: (cart. coord. in units of alat)
               a(1) = ( -0.5000  0.0000  0.5000 )  
               a(2) = (  0.0000  0.5000  0.5000 )  
               a(3) = ( -0.5000  0.5000  0.0000 )  

     reciprocal axes: (cart. coord. in units 2 pi/alat)
               b(1) = ( -1.0000 -1.0000  1.0000 )  
               b(2) = (  1.0000  1.0000  1.0000 )  
               b(3) = ( -1.0000  1.0000 -1.0000 )  


     Atoms inside the unit cell: 

     Cartesian axes

     site n.  atom      mass           positions (alat units)
        1     Na  22.9900   tau(    1) = (    0.00000    0.00000    0.00000  )

     Computing dynamical matrix for 
                    q = (   0.0000000   0.3333333   0.0000000 )

      8 Sym.Ops. (no q -> -q+G )


     G cutoff =  856.5968  (   1643 G-vectors)     FFT grid: ( 45, 45, 45)
     G cutoff =  428.2984  (    585 G-vectors)  smooth grid: ( 30, 30, 30)

     number of k points=  8400  Marzari-Vanderbilt smearing, width (Ry)=  0.0200

     PseudoPot. # 1 for Na read from file:
     /home/s1333534/quantum_espresso/qe-6.1/pseudo/Na_pbe_v1.uspp.F.UPF
     MD5 check sum: 76a99c7e9422403d3e93cbc85ab7bccb
     Pseudo is Ultrasoft, Zval =  9.0
     Generated by new atomic code, or converted to UPF format
     Using radial grid of  819 points,  5 beta functions with: 
                l(1) =   0
                l(2) =   0
                l(3) =   1
                l(4) =   1
                l(5) =   2
     Q(r) pseudized with  8 coefficients,  rinner =    1.250   1.250   1.250
                                                       1.250   1.250

     Mode symmetry, C_4v (4mm)  point group:


     Atomic displacements:
     There are   2 irreducible representations

     Representation     1      1 modes -A_1  G_1 D_1  To be done

     Representation     2      2 modes -E    G_5 D_5  To be done



     Alpha used in Ewald sum =   2.8000
     PHONON       : 40m34.99s CPU    43m36.93s WALL



     Representation #  1 mode #   1

     Self-consistent Calculation

      iter #   1 total cpu time :  2635.1 secs   av.it.:   5.7
      thresh= 1.000E-02 alpha_mix =  0.700 |ddv_scf|^2 =  9.402E-03

      iter #   2 total cpu time :  2651.7 secs   av.it.:   6.1
      thresh= 9.696E-03 alpha_mix =  0.700 |ddv_scf|^2 =  8.828E-01

      iter #   3 total cpu time :  2668.2 secs   av.it.:   6.1
      thresh= 1.000E-02 alpha_mix =  0.700 |ddv_scf|^2 =  1.011E-06

      iter #   4 total cpu time :  2687.6 secs   av.it.:   7.6
      thresh= 1.006E-04 alpha_mix =  0.700 |ddv_scf|^2 =  3.405E-08

      iter #   5 total cpu time :  2707.1 secs   av.it.:   7.7
      thresh= 1.845E-05 alpha_mix =  0.700 |ddv_scf|^2 =  1.399E-09

      iter #   6 total cpu time :  2726.5 secs   av.it.:   7.7
      thresh= 3.741E-06 alpha_mix =  0.700 |ddv_scf|^2 =  4.570E-09

      iter #   7 total cpu time :  2740.8 secs   av.it.:   5.0
      thresh= 6.761E-06 alpha_mix =  0.700 |ddv_scf|^2 =  5.851E-10

      iter #   8 total cpu time :  2759.4 secs   av.it.:   7.3
      thresh= 2.419E-06 alpha_mix =  0.700 |ddv_scf|^2 =  3.175E-11

      iter #   9 total cpu time :  2777.8 secs   av.it.:   7.0
      thresh= 5.635E-07 alpha_mix =  0.700 |ddv_scf|^2 =  1.536E-12

      iter #  10 total cpu time :  2795.6 secs   av.it.:   6.9
      thresh= 1.239E-07 alpha_mix =  0.700 |ddv_scf|^2 =  4.074E-14

      iter #  11 total cpu time :  2814.9 secs   av.it.:   7.6
      thresh= 2.019E-08 alpha_mix =  0.700 |ddv_scf|^2 =  3.000E-16

      iter #  12 total cpu time :  2834.3 secs   av.it.:   7.7
      thresh= 1.732E-09 alpha_mix =  0.700 |ddv_scf|^2 =  1.202E-16

      iter #  13 total cpu time :  2853.6 secs   av.it.:   7.5
      thresh= 1.096E-09 alpha_mix =  0.700 |ddv_scf|^2 =  3.166E-15

      iter #  14 total cpu time :  2869.8 secs   av.it.:   6.0
      thresh= 5.627E-09 alpha_mix =  0.700 |ddv_scf|^2 =  1.181E-18

     End of self-consistent calculation

     Convergence has been achieved 


     Representation #  2 modes #   2  3

     Self-consistent Calculation

      iter #   1 total cpu time :  2904.6 secs   av.it.:   5.5
      thresh= 1.000E-02 alpha_mix =  0.700 |ddv_scf|^2 =  1.988E-06

      iter #   2 total cpu time :  2947.1 secs   av.it.:   8.5
      thresh= 1.410E-04 alpha_mix =  0.700 |ddv_scf|^2 =  3.348E-08

      iter #   3 total cpu time :  2989.9 secs   av.it.:   8.6
      thresh= 1.830E-05 alpha_mix =  0.700 |ddv_scf|^2 =  1.333E-09

      iter #   4 total cpu time :  3031.4 secs   av.it.:   8.4
      thresh= 3.652E-06 alpha_mix =  0.700 |ddv_scf|^2 =  4.432E-12

      iter #   5 total cpu time :  3074.9 secs   av.it.:   8.7
      thresh= 2.105E-07 alpha_mix =  0.700 |ddv_scf|^2 =  4.803E-15

      iter #   6 total cpu time :  3114.1 secs   av.it.:   7.6
      thresh= 6.930E-09 alpha_mix =  0.700 |ddv_scf|^2 =  2.296E-16

      iter #   7 total cpu time :  3158.4 secs   av.it.:   8.6
      thresh= 1.515E-09 alpha_mix =  0.700 |ddv_scf|^2 =  6.062E-20

     End of self-consistent calculation

     Convergence has been achieved 

     Number of q in the star =    6
     List of q in the star:
          1   0.000000000   0.333333333   0.000000000
          2   0.333333333   0.000000000   0.000000000
          3   0.000000000   0.000000000   0.333333333
          4   0.000000000  -0.333333333   0.000000000
          5  -0.333333333   0.000000000   0.000000000
          6   0.000000000   0.000000000  -0.333333333

     Diagonalizing the dynamical matrix

     q = (    0.000000000   0.333333333   0.000000000 ) 

 **************************************************************************
     freq (    1) =       1.333960 [THz] =      44.496123 [cm-1]
     freq (    2) =       1.333960 [THz] =      44.496123 [cm-1]
     freq (    3) =       1.624602 [THz] =      54.190883 [cm-1]
 **************************************************************************

     Mode symmetry, C_4v (4mm)  point group:

     freq (  1 -  2) =         44.5  [cm-1]   --> E    G_5 D_5       
     freq (  3 -  3) =         54.2  [cm-1]   --> A_1  G_1 D_1       

     Calculation of q =   -0.1666667   0.5000000  -0.1666667

   Info: using nr1, nr2, nr3 values from input

   Info: using nr1, nr2, nr3 values from input

     Parallelization info
     --------------------
     sticks:   dense  smooth     PW     G-vecs:    dense   smooth      PW
     Min          72      36     13                 1642      584     129
     Max          73      37     14                 1646      588     132
     Sum        1159     583    211                26301     9377    2085



     bravais-lattice index     =            2
     lattice parameter (alat)  =      10.2800  a.u.
     unit-cell volume          =     271.5935 (a.u.)^3
     number of atoms/cell      =            1
     number of atomic types    =            1
     number of electrons       =         9.00
     number of Kohn-Sham states=            9
     kinetic-energy cutoff     =      40.0000  Ry
     charge density cutoff     =     320.0000  Ry
     Exchange-correlation      = SLA  PW   PBE  PBE ( 1  4  3  4 0 0)

     celldm(1)=  10.280000  celldm(2)=   0.000000  celldm(3)=   0.000000
     celldm(4)=   0.000000  celldm(5)=   0.000000  celldm(6)=   0.000000

     crystal axes: (cart. coord. in units of alat)
               a(1) = (  -0.500000   0.000000   0.500000 )  
               a(2) = (   0.000000   0.500000   0.500000 )  
               a(3) = (  -0.500000   0.500000   0.000000 )  

     reciprocal axes: (cart. coord. in units 2 pi/alat)
               b(1) = ( -1.000000 -1.000000  1.000000 )  
               b(2) = (  1.000000  1.000000  1.000000 )  
               b(3) = ( -1.000000  1.000000 -1.000000 )  


     PseudoPot. # 1 for Na read from file:
     /home/s1333534/quantum_espresso/qe-6.1/pseudo/Na_pbe_v1.uspp.F.UPF
     MD5 check sum: 76a99c7e9422403d3e93cbc85ab7bccb
     Pseudo is Ultrasoft, Zval =  9.0
     Generated by new atomic code, or converted to UPF format
     Using radial grid of  819 points,  5 beta functions with: 
                l(1) =   0
                l(2) =   0
                l(3) =   1
                l(4) =   1
                l(5) =   2
     Q(r) pseudized with  8 coefficients,  rinner =    1.250   1.250   1.250
                                                       1.250   1.250

     atomic species   valence    mass     pseudopotential
        Na             9.00    22.99000     Na( 1.00)

     48 Sym. Ops., with inversion, found



   Cartesian axes

     site n.     atom                  positions (alat units)
         1           Na  tau(   1) = (   0.0000000   0.0000000   0.0000000  )

     number of k points= 32800  Marzari-Vanderbilt smearing, width (Ry)=  0.0200

     Number of k-points >= 100: set verbosity='high' to print them.

     Dense  grid:    26301 G-vectors     FFT dimensions: (  45,  45,  45)

     Smooth grid:     9377 G-vectors     FFT dimensions: (  30,  30,  30)

     Estimated max dynamical RAM per process >       0.90MB

     Estimated total allocated dynamical RAM >      57.79MB

     The potential is recalculated from file :
     ./_ph0/na.fcc.save/charge-density.dat

     Starting wfc are    5 atomic +    4 random wfc

     Band Structure Calculation
     Davidson diagonalization with overlap

     ethr =  1.11E-10,  avg # of iterations = 20.6

     total cpu time spent up to now is     1342.9 secs

     End of band structure calculation

     Number of k-points >= 100: set verbosity='high' to print the bands.

     the Fermi energy is     1.2769 ev

     Writing output data file na.fcc.save

                                                                                

     bravais-lattice index     =            2
     lattice parameter (alat)  =      10.2800  a.u.
     unit-cell volume          =     271.5935 (a.u.)^3
     number of atoms/cell      =            1
     number of atomic types    =            1
     kinetic-energy cut-off    =      40.0000  Ry
     charge density cut-off    =     320.0000  Ry
     convergence threshold     =      1.0E-16
     beta                      =       0.7000
     number of iterations used =            4
     Exchange-correlation      = SLA  PW   PBE  PBE ( 1  4  3  4 0 0)


     celldm(1)=   10.28000  celldm(2)=    0.00000  celldm(3)=    0.00000
     celldm(4)=    0.00000  celldm(5)=    0.00000  celldm(6)=    0.00000

     crystal axes: (cart. coord. in units of alat)
               a(1) = ( -0.5000  0.0000  0.5000 )  
               a(2) = (  0.0000  0.5000  0.5000 )  
               a(3) = ( -0.5000  0.5000  0.0000 )  

     reciprocal axes: (cart. coord. in units 2 pi/alat)
               b(1) = ( -1.0000 -1.0000  1.0000 )  
               b(2) = (  1.0000  1.0000  1.0000 )  
               b(3) = ( -1.0000  1.0000 -1.0000 )  


     Atoms inside the unit cell: 

     Cartesian axes

     site n.  atom      mass           positions (alat units)
        1     Na  22.9900   tau(    1) = (    0.00000    0.00000    0.00000  )

     Computing dynamical matrix for 
                    q = (  -0.1666667   0.5000000  -0.1666667 )

      2 Sym.Ops. (no q -> -q+G )


     G cutoff =  856.5968  (   1643 G-vectors)     FFT grid: ( 45, 45, 45)
     G cutoff =  428.2984  (    585 G-vectors)  smooth grid: ( 30, 30, 30)

     number of k points= 32800  Marzari-Vanderbilt smearing, width (Ry)=  0.0200

     PseudoPot. # 1 for Na read from file:
     /home/s1333534/quantum_espresso/qe-6.1/pseudo/Na_pbe_v1.uspp.F.UPF
     MD5 check sum: 76a99c7e9422403d3e93cbc85ab7bccb
     Pseudo is Ultrasoft, Zval =  9.0
     Generated by new atomic code, or converted to UPF format
     Using radial grid of  819 points,  5 beta functions with: 
                l(1) =   0
                l(2) =   0
                l(3) =   1
                l(4) =   1
                l(5) =   2
     Q(r) pseudized with  8 coefficients,  rinner =    1.250   1.250   1.250
                                                       1.250   1.250

     Mode symmetry, C_s (m)     point group:


     Atomic displacements:
     There are   3 irreducible representations

     Representation     1      1 modes -A'  To be done

     Representation     2      1 modes -A'  To be done

     Representation     3      1 modes -A''  To be done



     Alpha used in Ewald sum =   2.8000
     PHONON       :     1h 0m CPU        1h 4m WALL



     Representation #  1 mode #   1

     Self-consistent Calculation

      iter #   1 total cpu time :  3940.9 secs   av.it.:   5.8
      thresh= 1.000E-02 alpha_mix =  0.700 |ddv_scf|^2 =  4.126E-04

      iter #   2 total cpu time :  4015.9 secs   av.it.:   7.0
      thresh= 2.031E-03 alpha_mix =  0.700 |ddv_scf|^2 =  3.627E-03

      iter #   3 total cpu time :  4079.9 secs   av.it.:   5.6
      thresh= 6.023E-03 alpha_mix =  0.700 |ddv_scf|^2 =  4.305E-07

      iter #   4 total cpu time :  4162.8 secs   av.it.:   8.0
      thresh= 6.562E-05 alpha_mix =  0.700 |ddv_scf|^2 =  4.644E-09

      iter #   5 total cpu time :  4247.6 secs   av.it.:   8.4
      thresh= 6.814E-06 alpha_mix =  0.700 |ddv_scf|^2 =  3.797E-10

      iter #   6 total cpu time :  4332.8 secs   av.it.:   8.4
      thresh= 1.949E-06 alpha_mix =  0.700 |ddv_scf|^2 =  1.889E-11

      iter #   7 total cpu time :  4416.6 secs   av.it.:   8.2
      thresh= 4.346E-07 alpha_mix =  0.700 |ddv_scf|^2 =  2.164E-11

      iter #   8 total cpu time :  4492.1 secs   av.it.:   7.0
      thresh= 4.652E-07 alpha_mix =  0.700 |ddv_scf|^2 =  5.984E-12

      iter #   9 total cpu time :  4568.9 secs   av.it.:   7.2
      thresh= 2.446E-07 alpha_mix =  0.700 |ddv_scf|^2 =  1.338E-12

      iter #  10 total cpu time :  4642.7 secs   av.it.:   6.8
      thresh= 1.157E-07 alpha_mix =  0.700 |ddv_scf|^2 =  6.503E-15

      iter #  11 total cpu time :  4729.1 secs   av.it.:   8.5
      thresh= 8.064E-09 alpha_mix =  0.700 |ddv_scf|^2 =  3.429E-16

      iter #  12 total cpu time :  4811.9 secs   av.it.:   7.9
      thresh= 1.852E-09 alpha_mix =  0.700 |ddv_scf|^2 =  1.894E-17

     End of self-consistent calculation

     Convergence has been achieved 


     Representation #  2 mode #   2

     Self-consistent Calculation

      iter #   1 total cpu time :  4889.0 secs   av.it.:   5.7
      thresh= 1.000E-02 alpha_mix =  0.700 |ddv_scf|^2 =  6.996E-05

      iter #   2 total cpu time :  4968.5 secs   av.it.:   7.5
      thresh= 8.364E-04 alpha_mix =  0.700 |ddv_scf|^2 =  5.457E-04

      iter #   3 total cpu time :  5034.2 secs   av.it.:   5.7
      thresh= 2.336E-03 alpha_mix =  0.700 |ddv_scf|^2 =  1.873E-07

      iter #   4 total cpu time :  5120.6 secs   av.it.:   8.3
      thresh= 4.327E-05 alpha_mix =  0.700 |ddv_scf|^2 =  5.440E-09

      iter #   5 total cpu time :  5206.4 secs   av.it.:   8.3
      thresh= 7.376E-06 alpha_mix =  0.700 |ddv_scf|^2 =  1.604E-10

      iter #   6 total cpu time :  5291.9 secs   av.it.:   8.4
      thresh= 1.267E-06 alpha_mix =  0.700 |ddv_scf|^2 =  1.205E-11

      iter #   7 total cpu time :  5378.1 secs   av.it.:   8.3
      thresh= 3.472E-07 alpha_mix =  0.700 |ddv_scf|^2 =  1.927E-12

      iter #   8 total cpu time :  5457.9 secs   av.it.:   7.5
      thresh= 1.388E-07 alpha_mix =  0.700 |ddv_scf|^2 =  7.024E-12

      iter #   9 total cpu time :  5529.1 secs   av.it.:   6.5
      thresh= 2.650E-07 alpha_mix =  0.700 |ddv_scf|^2 =  1.185E-14

      iter #  10 total cpu time :  5609.7 secs   av.it.:   7.7
      thresh= 1.088E-08 alpha_mix =  0.700 |ddv_scf|^2 =  1.679E-15

      iter #  11 total cpu time :  5687.1 secs   av.it.:   7.4
      thresh= 4.097E-09 alpha_mix =  0.700 |ddv_scf|^2 =  1.910E-15

      iter #  12 total cpu time :  5763.3 secs   av.it.:   7.1
      thresh= 4.371E-09 alpha_mix =  0.700 |ddv_scf|^2 =  2.774E-18

     End of self-consistent calculation

     Convergence has been achieved 


     Representation #  3 mode #   3

     Self-consistent Calculation

      iter #   1 total cpu time :  5838.0 secs   av.it.:   5.5
      thresh= 1.000E-02 alpha_mix =  0.700 |ddv_scf|^2 =  8.388E-06

      iter #   2 total cpu time :  5920.3 secs   av.it.:   7.8
      thresh= 2.896E-04 alpha_mix =  0.700 |ddv_scf|^2 =  1.313E-07

      iter #   3 total cpu time :  6004.8 secs   av.it.:   8.1
      thresh= 3.623E-05 alpha_mix =  0.700 |ddv_scf|^2 =  7.095E-09

      iter #   4 total cpu time :  6086.0 secs   av.it.:   7.7
      thresh= 8.423E-06 alpha_mix =  0.700 |ddv_scf|^2 =  2.395E-11

      iter #   5 total cpu time :  6169.7 secs   av.it.:   8.0
      thresh= 4.894E-07 alpha_mix =  0.700 |ddv_scf|^2 =  2.056E-14

      iter #   6 total cpu time :  6245.0 secs   av.it.:   7.0
      thresh= 1.434E-08 alpha_mix =  0.700 |ddv_scf|^2 =  1.260E-15

      iter #   7 total cpu time :  6328.2 secs   av.it.:   7.8
      thresh= 3.550E-09 alpha_mix =  0.700 |ddv_scf|^2 =  1.205E-18

     End of self-consistent calculation

     Convergence has been achieved 

     Number of q in the star =   24
     List of q in the star:
          1  -0.166666667   0.500000000  -0.166666667
          2   0.166666667   0.500000000   0.166666667
          3  -0.166666667   0.500000000   0.166666667
          4   0.166666667   0.500000000  -0.166666667
          5   0.500000000  -0.166666667   0.166666667
          6   0.166666667  -0.166666667   0.500000000
          7  -0.166666667  -0.500000000  -0.166666667
          8   0.166666667  -0.500000000  -0.166666667
          9  -0.166666667  -0.500000000   0.166666667
         10   0.500000000  -0.166666667  -0.166666667
         11  -0.500000000  -0.166666667   0.166666667
         12   0.500000000   0.166666667   0.166666667
         13  -0.166666667   0.166666667  -0.500000000
         14  -0.166666667  -0.166666667   0.500000000
         15   0.166666667   0.166666667   0.500000000
         16   0.166666667  -0.166666667  -0.500000000
         17  -0.500000000   0.166666667  -0.166666667
         18  -0.500000000  -0.166666667  -0.166666667
         19   0.166666667  -0.500000000   0.166666667
         20   0.500000000   0.166666667  -0.166666667
         21   0.166666667   0.166666667  -0.500000000
         22  -0.166666667  -0.166666667  -0.500000000
         23  -0.500000000   0.166666667   0.166666667
         24  -0.166666667   0.166666667   0.500000000

     Diagonalizing the dynamical matrix

     q = (   -0.166666667   0.500000000  -0.166666667 ) 

 **************************************************************************
     freq (    1) =       1.692522 [THz] =      56.456444 [cm-1]
     freq (    2) =       1.806194 [THz] =      60.248135 [cm-1]
     freq (    3) =       2.745264 [THz] =      91.572166 [cm-1]
 **************************************************************************

     Mode symmetry, C_s (m)     point group:

     freq (  1 -  1) =         56.5  [cm-1]   --> A'                 
     freq (  2 -  2) =         60.2  [cm-1]   --> A''                
     freq (  3 -  3) =         91.6  [cm-1]   --> A'                 

     Calculation of q =    0.6666667  -0.3333333   0.6666667

   Info: using nr1, nr2, nr3 values from input

   Info: using nr1, nr2, nr3 values from input

     Parallelization info
     --------------------
     sticks:   dense  smooth     PW     G-vecs:    dense   smooth      PW
     Min          72      36     13                 1642      584     137
     Max          73      37     14                 1646      588     142
     Sum        1159     583    223                26301     9377    2229



     bravais-lattice index     =            2
     lattice parameter (alat)  =      10.2800  a.u.
     unit-cell volume          =     271.5935 (a.u.)^3
     number of atoms/cell      =            1
     number of atomic types    =            1
     number of electrons       =         9.00
     number of Kohn-Sham states=            9
     kinetic-energy cutoff     =      40.0000  Ry
     charge density cutoff     =     320.0000  Ry
     Exchange-correlation      = SLA  PW   PBE  PBE ( 1  4  3  4 0 0)

     celldm(1)=  10.280000  celldm(2)=   0.000000  celldm(3)=   0.000000
     celldm(4)=   0.000000  celldm(5)=   0.000000  celldm(6)=   0.000000

     crystal axes: (cart. coord. in units of alat)
               a(1) = (  -0.500000   0.000000   0.500000 )  
               a(2) = (   0.000000   0.500000   0.500000 )  
               a(3) = (  -0.500000   0.500000   0.000000 )  

     reciprocal axes: (cart. coord. in units 2 pi/alat)
               b(1) = ( -1.000000 -1.000000  1.000000 )  
               b(2) = (  1.000000  1.000000  1.000000 )  
               b(3) = ( -1.000000  1.000000 -1.000000 )  


     PseudoPot. # 1 for Na read from file:
     /home/s1333534/quantum_espresso/qe-6.1/pseudo/Na_pbe_v1.uspp.F.UPF
     MD5 check sum: 76a99c7e9422403d3e93cbc85ab7bccb
     Pseudo is Ultrasoft, Zval =  9.0
     Generated by new atomic code, or converted to UPF format
     Using radial grid of  819 points,  5 beta functions with: 
                l(1) =   0
                l(2) =   0
                l(3) =   1
                l(4) =   1
                l(5) =   2
     Q(r) pseudized with  8 coefficients,  rinner =    1.250   1.250   1.250
                                                       1.250   1.250

     atomic species   valence    mass     pseudopotential
        Na             9.00    22.99000     Na( 1.00)

     48 Sym. Ops., with inversion, found



   Cartesian axes

     site n.     atom                  positions (alat units)
         1           Na  tau(   1) = (   0.0000000   0.0000000   0.0000000  )

     number of k points= 32800  Marzari-Vanderbilt smearing, width (Ry)=  0.0200

     Number of k-points >= 100: set verbosity='high' to print them.

     Dense  grid:    26301 G-vectors     FFT dimensions: (  45,  45,  45)

     Smooth grid:     9377 G-vectors     FFT dimensions: (  30,  30,  30)

     Estimated max dynamical RAM per process >       0.90MB

     Estimated total allocated dynamical RAM >      57.79MB

     The potential is recalculated from file :
     ./_ph0/na.fcc.save/charge-density.dat

     Starting wfc are    5 atomic +    4 random wfc

     Band Structure Calculation
     Davidson diagonalization with overlap

     ethr =  1.11E-10,  avg # of iterations = 20.6

     total cpu time spent up to now is     2039.7 secs

     End of band structure calculation

     Number of k-points >= 100: set verbosity='high' to print the bands.

     the Fermi energy is     1.2769 ev

     Writing output data file na.fcc.save

                                                                                

     bravais-lattice index     =            2
     lattice parameter (alat)  =      10.2800  a.u.
     unit-cell volume          =     271.5935 (a.u.)^3
     number of atoms/cell      =            1
     number of atomic types    =            1
     kinetic-energy cut-off    =      40.0000  Ry
     charge density cut-off    =     320.0000  Ry
     convergence threshold     =      1.0E-16
     beta                      =       0.7000
     number of iterations used =            4
     Exchange-correlation      = SLA  PW   PBE  PBE ( 1  4  3  4 0 0)


     celldm(1)=   10.28000  celldm(2)=    0.00000  celldm(3)=    0.00000
     celldm(4)=    0.00000  celldm(5)=    0.00000  celldm(6)=    0.00000

     crystal axes: (cart. coord. in units of alat)
               a(1) = ( -0.5000  0.0000  0.5000 )  
               a(2) = (  0.0000  0.5000  0.5000 )  
               a(3) = ( -0.5000  0.5000  0.0000 )  

     reciprocal axes: (cart. coord. in units 2 pi/alat)
               b(1) = ( -1.0000 -1.0000  1.0000 )  
               b(2) = (  1.0000  1.0000  1.0000 )  
               b(3) = ( -1.0000  1.0000 -1.0000 )  


     Atoms inside the unit cell: 

     Cartesian axes

     site n.  atom      mass           positions (alat units)
        1     Na  22.9900   tau(    1) = (    0.00000    0.00000    0.00000  )

     Computing dynamical matrix for 
                    q = (   0.6666667  -0.3333333   0.6666667 )

      2 Sym.Ops. (no q -> -q+G )


     G cutoff =  856.5968  (   1643 G-vectors)     FFT grid: ( 45, 45, 45)
     G cutoff =  428.2984  (    585 G-vectors)  smooth grid: ( 30, 30, 30)

     number of k points= 32800  Marzari-Vanderbilt smearing, width (Ry)=  0.0200

     PseudoPot. # 1 for Na read from file:
     /home/s1333534/quantum_espresso/qe-6.1/pseudo/Na_pbe_v1.uspp.F.UPF
     MD5 check sum: 76a99c7e9422403d3e93cbc85ab7bccb
     Pseudo is Ultrasoft, Zval =  9.0
     Generated by new atomic code, or converted to UPF format
     Using radial grid of  819 points,  5 beta functions with: 
                l(1) =   0
                l(2) =   0
                l(3) =   1
                l(4) =   1
                l(5) =   2
     Q(r) pseudized with  8 coefficients,  rinner =    1.250   1.250   1.250
                                                       1.250   1.250

     Mode symmetry, C_s (m)     point group:


     Atomic displacements:
     There are   3 irreducible representations

     Representation     1      1 modes -A'  To be done

     Representation     2      1 modes -A'  To be done

     Representation     3      1 modes -A''  To be done



     Alpha used in Ewald sum =   2.8000
     PHONON       :     1h49m CPU        1h57m WALL



     Representation #  1 mode #   1

     Self-consistent Calculation

      iter #   1 total cpu time :  7132.2 secs   av.it.:   5.8
      thresh= 1.000E-02 alpha_mix =  0.700 |ddv_scf|^2 =  5.037E-05

      iter #   2 total cpu time :  7214.2 secs   av.it.:   7.7
      thresh= 7.097E-04 alpha_mix =  0.700 |ddv_scf|^2 =  3.842E-05

      iter #   3 total cpu time :  7290.2 secs   av.it.:   7.0
      thresh= 6.198E-04 alpha_mix =  0.700 |ddv_scf|^2 =  1.105E-07

      iter #   4 total cpu time :  7375.6 secs   av.it.:   8.3
      thresh= 3.324E-05 alpha_mix =  0.700 |ddv_scf|^2 =  8.666E-09

      iter #   5 total cpu time :  7460.7 secs   av.it.:   8.2
      thresh= 9.309E-06 alpha_mix =  0.700 |ddv_scf|^2 =  4.513E-10

      iter #   6 total cpu time :  7545.1 secs   av.it.:   8.0
      thresh= 2.124E-06 alpha_mix =  0.700 |ddv_scf|^2 =  5.408E-12

      iter #   7 total cpu time :  7632.3 secs   av.it.:   8.4
      thresh= 2.326E-07 alpha_mix =  0.700 |ddv_scf|^2 =  2.515E-13

      iter #   8 total cpu time :  7719.9 secs   av.it.:   8.6
      thresh= 5.015E-08 alpha_mix =  0.700 |ddv_scf|^2 =  2.163E-14

      iter #   9 total cpu time :  7807.1 secs   av.it.:   8.4
      thresh= 1.471E-08 alpha_mix =  0.700 |ddv_scf|^2 =  9.411E-16

      iter #  10 total cpu time :  7887.6 secs   av.it.:   7.5
      thresh= 3.068E-09 alpha_mix =  0.700 |ddv_scf|^2 =  9.830E-17

     End of self-consistent calculation

     Convergence has been achieved 


     Representation #  2 mode #   2

     Self-consistent Calculation

      iter #   1 total cpu time :  7965.1 secs   av.it.:   5.7
      thresh= 1.000E-02 alpha_mix =  0.700 |ddv_scf|^2 =  2.635E-05

      iter #   2 total cpu time :  8049.3 secs   av.it.:   7.9
      thresh= 5.133E-04 alpha_mix =  0.700 |ddv_scf|^2 =  1.164E-05

      iter #   3 total cpu time :  8130.3 secs   av.it.:   7.3
      thresh= 3.412E-04 alpha_mix =  0.700 |ddv_scf|^2 =  3.880E-07

      iter #   4 total cpu time :  8213.0 secs   av.it.:   7.7
      thresh= 6.229E-05 alpha_mix =  0.700 |ddv_scf|^2 =  1.421E-08

      iter #   5 total cpu time :  8299.2 secs   av.it.:   8.2
      thresh= 1.192E-05 alpha_mix =  0.700 |ddv_scf|^2 =  3.816E-10

      iter #   6 total cpu time :  8383.8 secs   av.it.:   8.2
      thresh= 1.954E-06 alpha_mix =  0.700 |ddv_scf|^2 =  1.120E-11

      iter #   7 total cpu time :  8470.8 secs   av.it.:   8.6
      thresh= 3.347E-07 alpha_mix =  0.700 |ddv_scf|^2 =  7.799E-13

      iter #   8 total cpu time :  8559.7 secs   av.it.:   8.7
      thresh= 8.831E-08 alpha_mix =  0.700 |ddv_scf|^2 =  2.600E-14

      iter #   9 total cpu time :  8646.6 secs   av.it.:   8.4
      thresh= 1.612E-08 alpha_mix =  0.700 |ddv_scf|^2 =  4.705E-15

      iter #  10 total cpu time :  8729.0 secs   av.it.:   7.8
      thresh= 6.860E-09 alpha_mix =  0.700 |ddv_scf|^2 =  1.336E-16

      iter #  11 total cpu time :  8813.8 secs   av.it.:   8.2
      thresh= 1.156E-09 alpha_mix =  0.700 |ddv_scf|^2 =  6.060E-18

     End of self-consistent calculation

     Convergence has been achieved 


     Representation #  3 mode #   3

     Self-consistent Calculation

      iter #   1 total cpu time :  8889.9 secs   av.it.:   5.5
      thresh= 1.000E-02 alpha_mix =  0.700 |ddv_scf|^2 =  8.375E-06

      iter #   2 total cpu time :  8971.5 secs   av.it.:   7.8
      thresh= 2.894E-04 alpha_mix =  0.700 |ddv_scf|^2 =  1.320E-07

      iter #   3 total cpu time :  9055.8 secs   av.it.:   8.0
      thresh= 3.633E-05 alpha_mix =  0.700 |ddv_scf|^2 =  6.975E-09

      iter #   4 total cpu time :  9137.7 secs   av.it.:   7.7
      thresh= 8.352E-06 alpha_mix =  0.700 |ddv_scf|^2 =  2.421E-11

      iter #   5 total cpu time :  9221.6 secs   av.it.:   8.0
      thresh= 4.921E-07 alpha_mix =  0.700 |ddv_scf|^2 =  2.237E-14

      iter #   6 total cpu time :  9297.9 secs   av.it.:   7.1
      thresh= 1.496E-08 alpha_mix =  0.700 |ddv_scf|^2 =  1.380E-15

      iter #   7 total cpu time :  9380.4 secs   av.it.:   7.8
      thresh= 3.715E-09 alpha_mix =  0.700 |ddv_scf|^2 =  1.647E-18

     End of self-consistent calculation

     Convergence has been achieved 

     Number of q in the star =   24
     List of q in the star:
          1   0.666666667  -0.333333333   0.666666667
          2  -0.666666667  -0.333333333  -0.666666667
          3   0.666666667  -0.333333333  -0.666666667
          4  -0.666666667  -0.333333333   0.666666667
          5  -0.333333333   0.666666667  -0.666666667
          6  -0.666666667   0.666666667  -0.333333333
          7   0.666666667   0.333333333   0.666666667
          8  -0.666666667   0.333333333   0.666666667
          9   0.666666667   0.333333333  -0.666666667
         10  -0.333333333   0.666666667   0.666666667
         11   0.333333333   0.666666667  -0.666666667
         12  -0.333333333  -0.666666667  -0.666666667
         13   0.666666667  -0.666666667   0.333333333
         14   0.666666667   0.666666667  -0.333333333
         15  -0.666666667  -0.666666667  -0.333333333
         16  -0.666666667   0.666666667   0.333333333
         17   0.333333333  -0.666666667   0.666666667
         18   0.333333333   0.666666667   0.666666667
         19  -0.666666667   0.333333333  -0.666666667
         20  -0.333333333  -0.666666667   0.666666667
         21  -0.666666667  -0.666666667   0.333333333
         22   0.666666667   0.666666667   0.333333333
         23   0.333333333  -0.666666667  -0.666666667
         24   0.666666667  -0.666666667  -0.333333333

     Diagonalizing the dynamical matrix

     q = (    0.666666667  -0.333333333   0.666666667 ) 

 **************************************************************************
     freq (    1) =       1.925747 [THz] =      64.236005 [cm-1]
     freq (    2) =       2.146372 [THz] =      71.595276 [cm-1]
     freq (    3) =       3.333138 [THz] =     111.181517 [cm-1]
 **************************************************************************

     Mode symmetry, C_s (m)     point group:

     freq (  1 -  1) =         64.2  [cm-1]   --> A''                
     freq (  2 -  2) =         71.6  [cm-1]   --> A'                 
     freq (  3 -  3) =        111.2  [cm-1]   --> A'                 

     Calculation of q =    0.5000000  -0.1666667   0.5000000

   Info: using nr1, nr2, nr3 values from input

   Info: using nr1, nr2, nr3 values from input

     Parallelization info
     --------------------
     sticks:   dense  smooth     PW     G-vecs:    dense   smooth      PW
     Min          72      36     13                 1642      584     129
     Max          73      37     14                 1646      588     132
     Sum        1159     583    211                26301     9377    2085



     bravais-lattice index     =            2
     lattice parameter (alat)  =      10.2800  a.u.
     unit-cell volume          =     271.5935 (a.u.)^3
     number of atoms/cell      =            1
     number of atomic types    =            1
     number of electrons       =         9.00
     number of Kohn-Sham states=            9
     kinetic-energy cutoff     =      40.0000  Ry
     charge density cutoff     =     320.0000  Ry
     Exchange-correlation      = SLA  PW   PBE  PBE ( 1  4  3  4 0 0)

     celldm(1)=  10.280000  celldm(2)=   0.000000  celldm(3)=   0.000000
     celldm(4)=   0.000000  celldm(5)=   0.000000  celldm(6)=   0.000000

     crystal axes: (cart. coord. in units of alat)
               a(1) = (  -0.500000   0.000000   0.500000 )  
               a(2) = (   0.000000   0.500000   0.500000 )  
               a(3) = (  -0.500000   0.500000   0.000000 )  

     reciprocal axes: (cart. coord. in units 2 pi/alat)
               b(1) = ( -1.000000 -1.000000  1.000000 )  
               b(2) = (  1.000000  1.000000  1.000000 )  
               b(3) = ( -1.000000  1.000000 -1.000000 )  


     PseudoPot. # 1 for Na read from file:
     /home/s1333534/quantum_espresso/qe-6.1/pseudo/Na_pbe_v1.uspp.F.UPF
     MD5 check sum: 76a99c7e9422403d3e93cbc85ab7bccb
     Pseudo is Ultrasoft, Zval =  9.0
     Generated by new atomic code, or converted to UPF format
     Using radial grid of  819 points,  5 beta functions with: 
                l(1) =   0
                l(2) =   0
                l(3) =   1
                l(4) =   1
                l(5) =   2
     Q(r) pseudized with  8 coefficients,  rinner =    1.250   1.250   1.250
                                                       1.250   1.250

     atomic species   valence    mass     pseudopotential
        Na             9.00    22.99000     Na( 1.00)

     48 Sym. Ops., with inversion, found



   Cartesian axes

     site n.     atom                  positions (alat units)
         1           Na  tau(   1) = (   0.0000000   0.0000000   0.0000000  )

     number of k points= 32800  Marzari-Vanderbilt smearing, width (Ry)=  0.0200

     Number of k-points >= 100: set verbosity='high' to print them.

     Dense  grid:    26301 G-vectors     FFT dimensions: (  45,  45,  45)

     Smooth grid:     9377 G-vectors     FFT dimensions: (  30,  30,  30)

     Estimated max dynamical RAM per process >       0.90MB

     Estimated total allocated dynamical RAM >      57.79MB

     The potential is recalculated from file :
     ./_ph0/na.fcc.save/charge-density.dat

     Starting wfc are    5 atomic +    4 random wfc

     Band Structure Calculation
     Davidson diagonalization with overlap

     ethr =  1.11E-10,  avg # of iterations = 20.6

     total cpu time spent up to now is     2734.4 secs

     End of band structure calculation

     Number of k-points >= 100: set verbosity='high' to print the bands.

     the Fermi energy is     1.2769 ev

     Writing output data file na.fcc.save

                                                                                

     bravais-lattice index     =            2
     lattice parameter (alat)  =      10.2800  a.u.
     unit-cell volume          =     271.5935 (a.u.)^3
     number of atoms/cell      =            1
     number of atomic types    =            1
     kinetic-energy cut-off    =      40.0000  Ry
     charge density cut-off    =     320.0000  Ry
     convergence threshold     =      1.0E-16
     beta                      =       0.7000
     number of iterations used =            4
     Exchange-correlation      = SLA  PW   PBE  PBE ( 1  4  3  4 0 0)


     celldm(1)=   10.28000  celldm(2)=    0.00000  celldm(3)=    0.00000
     celldm(4)=    0.00000  celldm(5)=    0.00000  celldm(6)=    0.00000

     crystal axes: (cart. coord. in units of alat)
               a(1) = ( -0.5000  0.0000  0.5000 )  
               a(2) = (  0.0000  0.5000  0.5000 )  
               a(3) = ( -0.5000  0.5000  0.0000 )  

     reciprocal axes: (cart. coord. in units 2 pi/alat)
               b(1) = ( -1.0000 -1.0000  1.0000 )  
               b(2) = (  1.0000  1.0000  1.0000 )  
               b(3) = ( -1.0000  1.0000 -1.0000 )  


     Atoms inside the unit cell: 

     Cartesian axes

     site n.  atom      mass           positions (alat units)
        1     Na  22.9900   tau(    1) = (    0.00000    0.00000    0.00000  )

     Computing dynamical matrix for 
                    q = (   0.5000000  -0.1666667   0.5000000 )

      2 Sym.Ops. (no q -> -q+G )


     G cutoff =  856.5968  (   1643 G-vectors)     FFT grid: ( 45, 45, 45)
     G cutoff =  428.2984  (    585 G-vectors)  smooth grid: ( 30, 30, 30)

     number of k points= 32800  Marzari-Vanderbilt smearing, width (Ry)=  0.0200

     PseudoPot. # 1 for Na read from file:
     /home/s1333534/quantum_espresso/qe-6.1/pseudo/Na_pbe_v1.uspp.F.UPF
     MD5 check sum: 76a99c7e9422403d3e93cbc85ab7bccb
     Pseudo is Ultrasoft, Zval =  9.0
     Generated by new atomic code, or converted to UPF format
     Using radial grid of  819 points,  5 beta functions with: 
                l(1) =   0
                l(2) =   0
                l(3) =   1
                l(4) =   1
                l(5) =   2
     Q(r) pseudized with  8 coefficients,  rinner =    1.250   1.250   1.250
                                                       1.250   1.250

     Mode symmetry, C_s (m)     point group:


     Atomic displacements:
     There are   3 irreducible representations

     Representation     1      1 modes -A'  To be done

     Representation     2      1 modes -A'  To be done

     Representation     3      1 modes -A''  To be done



     Alpha used in Ewald sum =   2.8000
     PHONON       :     2h36m CPU        2h48m WALL



     Representation #  1 mode #   1

     Self-consistent Calculation

      iter #   1 total cpu time : 10176.2 secs   av.it.:   5.7
[...]

      iter #   4 total cpu time : 24689.7 secs   av.it.:   8.3
      thresh= 1.625E-05 alpha_mix =  0.700 |ddv_scf|^2 =  9.864E-10

      iter #   5 total cpu time : 24770.7 secs   av.it.:   7.8
      thresh= 3.141E-06 alpha_mix =  0.700 |ddv_scf|^2 =  2.670E-11

      iter #   6 total cpu time : 24850.7 secs   av.it.:   7.6
      thresh= 5.167E-07 alpha_mix =  0.700 |ddv_scf|^2 =  4.974E-14

      iter #   7 total cpu time : 24934.3 secs   av.it.:   8.0
      thresh= 2.230E-08 alpha_mix =  0.700 |ddv_scf|^2 =  3.778E-15

      iter #   8 total cpu time : 25017.3 secs   av.it.:   8.0
      thresh= 6.146E-09 alpha_mix =  0.700 |ddv_scf|^2 =  1.130E-17

     End of self-consistent calculation

     Convergence has been achieved 

     Number of q in the star =   24
     List of q in the star:
          1   0.500000000  -0.166666667   0.833333333
          2   0.833333333   0.166666667   0.500000000
          3   0.500000000   0.166666667   0.833333333
          4  -0.833333333  -0.166666667   0.500000000
          5  -0.833333333  -0.166666667  -0.500000000
          6  -0.500000000  -0.166666667  -0.833333333
          7   0.833333333  -0.166666667   0.500000000
          8  -0.500000000  -0.166666667   0.833333333
          9  -0.833333333   0.166666667   0.500000000
         10   0.833333333   0.166666667  -0.500000000
         11   0.833333333  -0.166666667  -0.500000000
         12   0.500000000   0.166666667  -0.833333333
         13  -0.500000000   0.166666667   0.833333333
         14  -0.500000000   0.166666667  -0.833333333
         15  -0.833333333   0.166666667  -0.500000000
         16   0.833333333  -0.500000000   0.166666667
         17   0.833333333   0.500000000  -0.166666667
         18  -0.833333333  -0.500000000  -0.166666667
         19  -0.833333333   0.500000000   0.166666667
         20   0.166666667  -0.500000000   0.833333333
         21  -0.166666667   0.500000000   0.833333333
         22   0.166666667   0.500000000  -0.833333333
         23  -0.166666667  -0.500000000  -0.833333333
         24  -0.500000000   0.833333333   0.166666667

     Diagonalizing the dynamical matrix

     q = (    0.500000000  -0.166666667   0.833333333 ) 

 **************************************************************************
     freq (    1) =       2.162911 [THz] =      72.146955 [cm-1]
     freq (    2) =       2.809381 [THz] =      93.710849 [cm-1]
     freq (    3) =       3.230246 [THz] =     107.749419 [cm-1]
 **************************************************************************

     Mode symmetry, C_2  (2)    point group:

     freq (  1 -  1) =         72.1  [cm-1]   --> B                  
     freq (  2 -  2) =         93.7  [cm-1]   --> A                  
     freq (  3 -  3) =        107.7  [cm-1]   --> B                  

     Calculation of q =   -0.3333333  -1.0000000   0.0000000

   Info: using nr1, nr2, nr3 values from input

   Info: using nr1, nr2, nr3 values from input

     Parallelization info
     --------------------
     sticks:   dense  smooth     PW     G-vecs:    dense   smooth      PW
     Min          72      36     13                 1642      584     137
     Max          73      37     14                 1646      588     142
     Sum        1159     583    223                26301     9377    2229



     bravais-lattice index     =            2
     lattice parameter (alat)  =      10.2800  a.u.
     unit-cell volume          =     271.5935 (a.u.)^3
     number of atoms/cell      =            1
     number of atomic types    =            1
     number of electrons       =         9.00
     number of Kohn-Sham states=            9
     kinetic-energy cutoff     =      40.0000  Ry
     charge density cutoff     =     320.0000  Ry
     Exchange-correlation      = SLA  PW   PBE  PBE ( 1  4  3  4 0 0)

     celldm(1)=  10.280000  celldm(2)=   0.000000  celldm(3)=   0.000000
     celldm(4)=   0.000000  celldm(5)=   0.000000  celldm(6)=   0.000000

     crystal axes: (cart. coord. in units of alat)
               a(1) = (  -0.500000   0.000000   0.500000 )  
               a(2) = (   0.000000   0.500000   0.500000 )  
               a(3) = (  -0.500000   0.500000   0.000000 )  

     reciprocal axes: (cart. coord. in units 2 pi/alat)
               b(1) = ( -1.000000 -1.000000  1.000000 )  
               b(2) = (  1.000000  1.000000  1.000000 )  
               b(3) = ( -1.000000  1.000000 -1.000000 )  


     PseudoPot. # 1 for Na read from file:
     /home/s1333534/quantum_espresso/qe-6.1/pseudo/Na_pbe_v1.uspp.F.UPF
     MD5 check sum: 76a99c7e9422403d3e93cbc85ab7bccb
     Pseudo is Ultrasoft, Zval =  9.0
     Generated by new atomic code, or converted to UPF format
     Using radial grid of  819 points,  5 beta functions with: 
                l(1) =   0
                l(2) =   0
                l(3) =   1
                l(4) =   1
                l(5) =   2
     Q(r) pseudized with  8 coefficients,  rinner =    1.250   1.250   1.250
                                                       1.250   1.250

     atomic species   valence    mass     pseudopotential
        Na             9.00    22.99000     Na( 1.00)

     48 Sym. Ops., with inversion, found



   Cartesian axes

     site n.     atom                  positions (alat units)
         1           Na  tau(   1) = (   0.0000000   0.0000000   0.0000000  )

     number of k points= 16000  Marzari-Vanderbilt smearing, width (Ry)=  0.0200

     Number of k-points >= 100: set verbosity='high' to print them.

     Dense  grid:    26301 G-vectors     FFT dimensions: (  45,  45,  45)

     Smooth grid:     9377 G-vectors     FFT dimensions: (  30,  30,  30)

     Estimated max dynamical RAM per process >       0.90MB

     Estimated total allocated dynamical RAM >      57.79MB

     The potential is recalculated from file :
     ./_ph0/na.fcc.save/charge-density.dat

     Starting wfc are    5 atomic +    4 random wfc

     Band Structure Calculation
     Davidson diagonalization with overlap

     ethr =  1.11E-10,  avg # of iterations = 20.6

     total cpu time spent up to now is     6162.5 secs

     End of band structure calculation

     Number of k-points >= 100: set verbosity='high' to print the bands.

     the Fermi energy is     1.2769 ev

     Writing output data file na.fcc.save

                                                                                

     bravais-lattice index     =            2
     lattice parameter (alat)  =      10.2800  a.u.
     unit-cell volume          =     271.5935 (a.u.)^3
     number of atoms/cell      =            1
     number of atomic types    =            1
     kinetic-energy cut-off    =      40.0000  Ry
     charge density cut-off    =     320.0000  Ry
     convergence threshold     =      1.0E-16
     beta                      =       0.7000
     number of iterations used =            4
     Exchange-correlation      = SLA  PW   PBE  PBE ( 1  4  3  4 0 0)


     celldm(1)=   10.28000  celldm(2)=    0.00000  celldm(3)=    0.00000
     celldm(4)=    0.00000  celldm(5)=    0.00000  celldm(6)=    0.00000

     crystal axes: (cart. coord. in units of alat)
               a(1) = ( -0.5000  0.0000  0.5000 )  
               a(2) = (  0.0000  0.5000  0.5000 )  
               a(3) = ( -0.5000  0.5000  0.0000 )  

     reciprocal axes: (cart. coord. in units 2 pi/alat)
               b(1) = ( -1.0000 -1.0000  1.0000 )  
               b(2) = (  1.0000  1.0000  1.0000 )  
               b(3) = ( -1.0000  1.0000 -1.0000 )  


     Atoms inside the unit cell: 

     Cartesian axes

     site n.  atom      mass           positions (alat units)
        1     Na  22.9900   tau(    1) = (    0.00000    0.00000    0.00000  )

     Computing dynamical matrix for 
                    q = (  -0.3333333  -1.0000000   0.0000000 )

      4 Sym.Ops. (no q -> -q+G )


     G cutoff =  856.5968  (   1643 G-vectors)     FFT grid: ( 45, 45, 45)
     G cutoff =  428.2984  (    585 G-vectors)  smooth grid: ( 30, 30, 30)

     number of k points= 16000  Marzari-Vanderbilt smearing, width (Ry)=  0.0200

     PseudoPot. # 1 for Na read from file:
     /home/s1333534/quantum_espresso/qe-6.1/pseudo/Na_pbe_v1.uspp.F.UPF
     MD5 check sum: 76a99c7e9422403d3e93cbc85ab7bccb
     Pseudo is Ultrasoft, Zval =  9.0
     Generated by new atomic code, or converted to UPF format
     Using radial grid of  819 points,  5 beta functions with: 
                l(1) =   0
                l(2) =   0
                l(3) =   1
                l(4) =   1
                l(5) =   2
     Q(r) pseudized with  8 coefficients,  rinner =    1.250   1.250   1.250
                                                       1.250   1.250

     Mode symmetry, C_2v (mm2)  point group:


     Atomic displacements:
     There are   3 irreducible representations

     Representation     1      1 modes -A_1  D_1  S_1  To be done

     Representation     2      1 modes -B_1  D_3  S_3  To be done

     Representation     3      1 modes -B_2  D_4  S_4  To be done



     Alpha used in Ewald sum =   2.8000
     PHONON       :     6h32m CPU        7h 2m WALL



     Representation #  1 mode #   1

     Self-consistent Calculation

      iter #   1 total cpu time : 25412.4 secs   av.it.:   5.6
      thresh= 1.000E-02 alpha_mix =  0.700 |ddv_scf|^2 =  1.216E-05

      iter #   2 total cpu time : 25454.6 secs   av.it.:   8.0
      thresh= 3.488E-04 alpha_mix =  0.700 |ddv_scf|^2 =  3.815E-07

      iter #   3 total cpu time : 25496.5 secs   av.it.:   7.9
      thresh= 6.177E-05 alpha_mix =  0.700 |ddv_scf|^2 =  1.453E-08

      iter #   4 total cpu time : 25538.3 secs   av.it.:   8.2
      thresh= 1.205E-05 alpha_mix =  0.700 |ddv_scf|^2 =  7.456E-10

      iter #   5 total cpu time : 25580.3 secs   av.it.:   8.2
      thresh= 2.731E-06 alpha_mix =  0.700 |ddv_scf|^2 =  3.796E-11

      iter #   6 total cpu time : 25622.7 secs   av.it.:   8.2
      thresh= 6.161E-07 alpha_mix =  0.700 |ddv_scf|^2 =  2.489E-12

      iter #   7 total cpu time : 25665.2 secs   av.it.:   8.3
      thresh= 1.578E-07 alpha_mix =  0.700 |ddv_scf|^2 =  2.011E-14

      iter #   8 total cpu time : 25707.2 secs   av.it.:   8.0
      thresh= 1.418E-08 alpha_mix =  0.700 |ddv_scf|^2 =  7.481E-16

      iter #   9 total cpu time : 25749.2 secs   av.it.:   8.2
      thresh= 2.735E-09 alpha_mix =  0.700 |ddv_scf|^2 =  1.465E-17

     End of self-consistent calculation

     Convergence has been achieved 


     Representation #  2 mode #   2

     Self-consistent Calculation

      iter #   1 total cpu time : 25787.2 secs   av.it.:   5.6
      thresh= 1.000E-02 alpha_mix =  0.700 |ddv_scf|^2 =  1.359E-05

      iter #   2 total cpu time : 25828.0 secs   av.it.:   7.9
      thresh= 3.687E-04 alpha_mix =  0.700 |ddv_scf|^2 =  3.014E-07

      iter #   3 total cpu time : 25870.7 secs   av.it.:   7.9
      thresh= 5.490E-05 alpha_mix =  0.700 |ddv_scf|^2 =  1.510E-08

      iter #   4 total cpu time : 25913.6 secs   av.it.:   8.0
      thresh= 1.229E-05 alpha_mix =  0.700 |ddv_scf|^2 =  1.721E-10

      iter #   5 total cpu time : 25952.6 secs   av.it.:   7.2
      thresh= 1.312E-06 alpha_mix =  0.700 |ddv_scf|^2 =  1.390E-13

      iter #   6 total cpu time : 25992.7 secs   av.it.:   7.8
      thresh= 3.728E-08 alpha_mix =  0.700 |ddv_scf|^2 =  4.200E-15

      iter #   7 total cpu time : 26032.8 secs   av.it.:   7.7
      thresh= 6.481E-09 alpha_mix =  0.700 |ddv_scf|^2 =  3.799E-17

     End of self-consistent calculation

     Convergence has been achieved 


     Representation #  3 mode #   3

     Self-consistent Calculation

      iter #   1 total cpu time : 26069.6 secs   av.it.:   5.6
      thresh= 1.000E-02 alpha_mix =  0.700 |ddv_scf|^2 =  2.593E-05

      iter #   2 total cpu time : 26110.5 secs   av.it.:   7.7
      thresh= 5.092E-04 alpha_mix =  0.700 |ddv_scf|^2 =  2.849E-06

      iter #   3 total cpu time : 26149.5 secs   av.it.:   7.3
      thresh= 1.688E-04 alpha_mix =  0.700 |ddv_scf|^2 =  2.793E-08

      iter #   4 total cpu time : 26191.2 secs   av.it.:   8.1
      thresh= 1.671E-05 alpha_mix =  0.700 |ddv_scf|^2 =  1.441E-10

      iter #   5 total cpu time : 26228.1 secs   av.it.:   6.9
      thresh= 1.200E-06 alpha_mix =  0.700 |ddv_scf|^2 =  1.507E-13

      iter #   6 total cpu time : 26268.6 secs   av.it.:   7.7
      thresh= 3.882E-08 alpha_mix =  0.700 |ddv_scf|^2 =  8.711E-15

      iter #   7 total cpu time : 26307.8 secs   av.it.:   7.5
      thresh= 9.333E-09 alpha_mix =  0.700 |ddv_scf|^2 =  2.126E-17

     End of self-consistent calculation

     Convergence has been achieved 

     Number of q in the star =   12
     List of q in the star:
          1  -0.333333333  -1.000000000   0.000000000
          2   0.000000000  -1.000000000  -0.333333333
          3   0.000000000  -1.000000000   0.333333333
          4   0.333333333  -1.000000000   0.000000000
          5  -1.000000000   0.000000000  -0.333333333
          6   1.000000000   0.000000000   0.333333333
          7   0.000000000   0.333333333   1.000000000
          8   0.000000000  -0.333333333  -1.000000000
          9  -1.000000000  -0.333333333   0.000000000
         10   1.000000000   0.333333333   0.000000000
         11  -0.333333333   0.000000000   1.000000000
         12   0.333333333   0.000000000   1.000000000

     Diagonalizing the dynamical matrix

     q = (   -0.333333333  -1.000000000   0.000000000 ) 

 **************************************************************************
     freq (    1) =       2.436412 [THz] =      81.269971 [cm-1]
     freq (    2) =       2.845633 [THz] =      94.920088 [cm-1]
     freq (    3) =       3.335681 [THz] =     111.266336 [cm-1]
 **************************************************************************

     Mode symmetry, C_2v (mm2)  point group:

     freq (  1 -  1) =         81.3  [cm-1]   --> A_1  D_1  S_1      
     freq (  2 -  2) =         94.9  [cm-1]   --> B_1  D_3  S_3      
     freq (  3 -  3) =        111.3  [cm-1]   --> B_2  D_4  S_4      

     init_run     :      3.78s CPU      3.93s WALL (      15 calls)
     electrons    :   5051.98s CPU   5324.60s WALL (      15 calls)

     Called by init_run:
     wfcinit      :      0.00s CPU      0.00s WALL (      15 calls)
     potinit      :      0.50s CPU      0.51s WALL (      15 calls)

     Called by electrons:
     c_bands      :   5050.80s CPU   5323.40s WALL (      15 calls)
     v_of_rho     :      0.20s CPU      0.21s WALL (      16 calls)
     newd         :      0.20s CPU      0.20s WALL (      16 calls)

     Called by c_bands:
     init_us_2    :    108.84s CPU    117.36s WALL ( 1266394 calls)
     cegterg      :   3926.52s CPU   4158.78s WALL (  103252 calls)

     Called by sum_band:

     Called by *egterg:
     h_psi        :  14600.02s CPU  15625.82s WALL (11803198 calls)
     s_psi        :    398.41s CPU    435.06s WALL (22828340 calls)
     g_psi        :     12.75s CPU     13.64s WALL ( 1588410 calls)
     cdiaghg      :    991.96s CPU   1050.83s WALL ( 1661836 calls)

     Called by h_psi:
     h_psi:pot    :  14507.32s CPU  15524.68s WALL (11803198 calls)
     h_psi:calbec :    800.00s CPU    851.45s WALL (11803198 calls)
     vloc_psi     :  13361.65s CPU  14302.16s WALL (11803198 calls)
     add_vuspsi   :    216.06s CPU    234.40s WALL (11803198 calls)

     General routines
     calbec       :   1473.65s CPU   1577.20s WALL (24885067 calls)
     fft          :      6.32s CPU      6.58s WALL (    6496 calls)
     ffts         :     22.07s CPU     24.22s WALL (  112713 calls)
     fftw         :  14698.97s CPU  15807.11s WALL (******** calls)
     interpolate  :      1.16s CPU      1.43s WALL (     890 calls)
     davcio       :    133.40s CPU    324.47s WALL ( 5141640 calls)

     Parallel routines
     fft_scatter  :   6703.88s CPU   7197.15s WALL (******** calls)

     PHONON       :     6h47m CPU        7h18m WALL

     INITIALIZATION: 
     phq_setup    :      1.17s CPU      1.21s WALL (      16 calls)
     phq_init     :    250.38s CPU    263.35s WALL (      16 calls)

     phq_init     :    250.38s CPU    263.35s WALL (      16 calls)
     init_vloc    :      0.16s CPU      0.16s WALL (      16 calls)
     init_us_1    :      1.49s CPU      1.61s WALL (      16 calls)
     newd         :      0.20s CPU      0.20s WALL (      16 calls)
     dvanqq       :      0.73s CPU      0.74s WALL (      16 calls)
     drho         :    198.17s CPU    208.32s WALL (      16 calls)

     DYNAMICAL MATRIX:
     dynmat0      :     34.61s CPU     36.01s WALL (      16 calls)
     phqscf       :  18244.61s CPU  19826.06s WALL (      16 calls)
     dynmatrix    :      0.11s CPU      0.12s WALL (      16 calls)

     phqscf       :  18244.61s CPU  19826.06s WALL (      16 calls)
     solve_linter :  18188.70s CPU  19766.57s WALL (      40 calls)
     drhodv       :     55.68s CPU     58.94s WALL (      40 calls)

     dynmat0      :     34.61s CPU     36.01s WALL (      16 calls)
     dynmat_us    :     34.42s CPU     35.81s WALL (      16 calls)
     d2ionq       :      0.04s CPU      0.04s WALL (      16 calls)

     dynmat_us    :     34.42s CPU     35.81s WALL (      16 calls)
     addusdynmat  :      0.00s CPU      0.00s WALL (      16 calls)

     phqscf       :  18244.61s CPU  19826.06s WALL (      16 calls)
     solve_linter :  18188.70s CPU  19766.57s WALL (      40 calls)

     solve_linter :  18188.70s CPU  19766.57s WALL (      40 calls)
     dvqpsi_us    :    356.54s CPU    378.75s WALL (  110718 calls)
     ortho        :    226.14s CPU    240.53s WALL (  987032 calls)
     cgsolve      :  14425.09s CPU  15516.96s WALL (  987032 calls)
     incdrhoscf   :   1436.70s CPU   1609.53s WALL (  987032 calls)
     addusddens   :      5.74s CPU      5.81s WALL (     391 calls)
     vpsifft      :   1150.56s CPU   1237.94s WALL (  876314 calls)
     dv_of_drho   :      4.76s CPU      4.85s WALL (     405 calls)
     mix_pot      :      0.98s CPU      3.19s WALL (     351 calls)
     ef_shift     :      0.04s CPU      0.13s WALL (       7 calls)
     localdos     :      0.27s CPU      0.27s WALL (       1 calls)
     psymdvscf    :     37.20s CPU     38.23s WALL (     351 calls)
     newdq        :      5.64s CPU      5.73s WALL (     351 calls)
     adddvscf     :     57.83s CPU     61.57s WALL (  876314 calls)
     drhodvus     :      0.03s CPU      0.04s WALL (      40 calls)

     dvqpsi_us    :    356.54s CPU    378.75s WALL (  110718 calls)
     dvqpsi_us_on :     55.69s CPU     58.23s WALL (  110718 calls)

     cgsolve      :  14425.09s CPU  15516.96s WALL (  987032 calls)
     ch_psi       :  13699.70s CPU  14725.65s WALL (10038110 calls)

     ch_psi       :  13699.70s CPU  14725.65s WALL (10038110 calls)
     h_psi        :  14600.02s CPU  15625.82s WALL (11803198 calls)
     last         :   1342.96s CPU   1452.32s WALL (10038110 calls)

     h_psi        :  14600.02s CPU  15625.82s WALL (11803198 calls)
     add_vuspsi   :    216.06s CPU    234.40s WALL (11803198 calls)

     incdrhoscf   :   1436.70s CPU   1609.53s WALL (  987032 calls)
     addusdbec    :    110.63s CPU    116.95s WALL ( 1097750 calls)

     drhodvus     :      0.03s CPU      0.04s WALL (      40 calls)

      General routines
     calbec       :   1473.65s CPU   1577.20s WALL (24885067 calls)
     fft          :      6.32s CPU      6.58s WALL (    6496 calls)
     ffts         :     22.07s CPU     24.22s WALL (  112713 calls)
     fftw         :  14698.97s CPU  15807.11s WALL (******** calls)
     davcio       :    133.40s CPU    324.47s WALL ( 5141640 calls)
     write_rec    :      1.40s CPU      3.63s WALL (     391 calls)


     PHONON       :     6h47m CPU        7h18m WALL


   This run was terminated on:  18:21:51  31Jan2018            

=------------------------------------------------------------------------------=
   JOB DONE.
=------------------------------------------------------------------------------=
