
     Program PWSCF v.6.1 (svn rev. 13369) starts on 30Jan2018 at 23:26:44 

     This program is part of the open-source Quantum ESPRESSO suite
     for quantum simulation of materials; please cite
         "P. Giannozzi et al., J. Phys.:Condens. Matter 21 395502 (2009);
          URL http://www.quantum-espresso.org", 
     in publications or presentations arising from this work. More details at
     http://www.quantum-espresso.org/quote

     Parallel version (MPI), running on    64 processors
     K-points division:     npool     =       4
     R & G space division:  proc/nbgrp/npool/nimage =      16
     Waiting for input...
     Reading input from standard input

     Current dimensions of program PWSCF are:
     Max number of different atomic species (ntypx) = 10
     Max number of k-points (npk) =  80000
     Max angular momentum in pseudopotentials (lmaxx) =  3

     Subspace diagonalization in iterative solution of the eigenvalue problem:
     a serial algorithm will be used


     Parallelization info
     --------------------
     sticks:   dense  smooth     PW     G-vecs:    dense   smooth      PW
     Min          56      28      8                 1069      377      65
     Max          57      29      9                 1071      380      68
     Sum         905     451    139                17117     6051    1061



     bravais-lattice index     =            3
     lattice parameter (alat)  =       7.0705  a.u.
     unit-cell volume          =     176.7342 (a.u.)^3
     number of atoms/cell      =            1
     number of atomic types    =            1
     number of electrons       =         9.00
     number of Kohn-Sham states=            9
     kinetic-energy cutoff     =      40.0000  Ry
     charge density cutoff     =     320.0000  Ry
     convergence threshold     =      1.0E-10
     mixing beta               =       0.7000
     number of iterations used =            8  plain     mixing
     Exchange-correlation      = SLA  PW   PBE  PBE ( 1  4  3  4 0 0)

     celldm(1)=   7.070501  celldm(2)=   0.000000  celldm(3)=   0.000000
     celldm(4)=   0.000000  celldm(5)=   0.000000  celldm(6)=   0.000000

     crystal axes: (cart. coord. in units of alat)
               a(1) = (   0.500000   0.500000   0.500000 )  
               a(2) = (  -0.500000   0.500000   0.500000 )  
               a(3) = (  -0.500000  -0.500000   0.500000 )  

     reciprocal axes: (cart. coord. in units 2 pi/alat)
               b(1) = (  1.000000  0.000000  1.000000 )  
               b(2) = ( -1.000000  1.000000  0.000000 )  
               b(3) = (  0.000000 -1.000000  1.000000 )  


     PseudoPot. # 1 for Na read from file:
     /home/s1333534/quantum_espresso/qe-6.1/pseudo/Na_pbe_v1.uspp.F.UPF
     MD5 check sum: 76a99c7e9422403d3e93cbc85ab7bccb
     Pseudo is Ultrasoft, Zval =  9.0
     Generated by new atomic code, or converted to UPF format
     Using radial grid of  819 points,  5 beta functions with: 
                l(1) =   0
                l(2) =   0
                l(3) =   1
                l(4) =   1
                l(5) =   2
     Q(r) pseudized with  8 coefficients,  rinner =    1.250   1.250   1.250
                                                       1.250   1.250

     atomic species   valence    mass     pseudopotential
        Na             9.00    22.99000     Na( 1.00)

     48 Sym. Ops., with inversion, found



   Cartesian axes

     site n.     atom                  positions (alat units)
         1           Na  tau(   1) = (   0.0000000   0.0000000   0.0000000  )

     number of k points=   250  Marzari-Vanderbilt smearing, width (Ry)=  0.0200

     Number of k-points >= 100: set verbosity='high' to print them.

     Dense  grid:    17117 G-vectors     FFT dimensions: (  36,  36,  36)

     Smooth grid:     6051 G-vectors     FFT dimensions: (  25,  25,  25)

     Estimated max dynamical RAM per process >       1.21MB

     Estimated total allocated dynamical RAM >      77.16MB

     Initial potential from superposition of free atoms

     starting charge    8.99371, renormalised to    9.00000
     Starting wfc are    5 randomized atomic wfcs +    4 random wfc

     total cpu time spent up to now is        0.5 secs

     per-process dynamical memory:     6.8 Mb

     Self-consistent Calculation

     iteration #  1     ecut=    40.00 Ry     beta=0.70
     Davidson diagonalization with overlap
     ethr =  1.00E-02,  avg # of iterations =  5.6

     Threshold (ethr) on eigenvalues was too large:
     Diagonalizing with lowered threshold

     Davidson diagonalization with overlap
     ethr =  1.35E-05,  avg # of iterations =  3.6

     total cpu time spent up to now is        2.4 secs

     total energy              =     -95.09679171 Ry
     Harris-Foulkes estimate   =     -95.09722031 Ry
     estimated scf accuracy    <       0.00121419 Ry

     iteration #  2     ecut=    40.00 Ry     beta=0.70
     Davidson diagonalization with overlap
     ethr =  1.35E-05,  avg # of iterations =  2.0

     total cpu time spent up to now is        3.0 secs

     total energy              =     -95.09695129 Ry
     Harris-Foulkes estimate   =     -95.09698656 Ry
     estimated scf accuracy    <       0.00013791 Ry

     iteration #  3     ecut=    40.00 Ry     beta=0.70
     Davidson diagonalization with overlap
     ethr =  1.53E-06,  avg # of iterations =  2.1

     total cpu time spent up to now is        3.5 secs

     total energy              =     -95.09696763 Ry
     Harris-Foulkes estimate   =     -95.09696882 Ry
     estimated scf accuracy    <       0.00000821 Ry

     iteration #  4     ecut=    40.00 Ry     beta=0.70
     Davidson diagonalization with overlap
     ethr =  9.13E-08,  avg # of iterations =  1.0

     total cpu time spent up to now is        4.0 secs

     total energy              =     -95.09696835 Ry
     Harris-Foulkes estimate   =     -95.09696829 Ry
     estimated scf accuracy    <       0.00000001 Ry

     iteration #  5     ecut=    40.00 Ry     beta=0.70
     Davidson diagonalization with overlap
     ethr =  1.19E-10,  avg # of iterations =  3.0

     total cpu time spent up to now is        4.7 secs

     total energy              =     -95.09696838 Ry
     Harris-Foulkes estimate   =     -95.09696838 Ry
     estimated scf accuracy    <          1.4E-09 Ry

     iteration #  6     ecut=    40.00 Ry     beta=0.70
     Davidson diagonalization with overlap
     ethr =  1.61E-11,  avg # of iterations =  1.5

     total cpu time spent up to now is        5.1 secs

     total energy              =     -95.09696838 Ry
     Harris-Foulkes estimate   =     -95.09696838 Ry
     estimated scf accuracy    <          1.2E-10 Ry

     iteration #  7     ecut=    40.00 Ry     beta=0.70
     Davidson diagonalization with overlap
     ethr =  1.29E-12,  avg # of iterations =  2.0

     total cpu time spent up to now is        5.7 secs

     End of self-consistent calculation

     Number of k-points >= 100: set verbosity='high' to print the bands.

     the Fermi energy is     3.3598 ev

!    total energy              =     -95.09696838 Ry
     Harris-Foulkes estimate   =     -95.09696838 Ry
     estimated scf accuracy    <          4.7E-12 Ry

     The total energy is the sum of the following terms:

     one-electron contribution =     -80.17758286 Ry
     hartree contribution      =      41.09049882 Ry
     xc contribution           =     -14.31854604 Ry
     ewald contribution        =     -41.69123297 Ry
     smearing contrib. (-TS)   =      -0.00010533 Ry

     convergence has been achieved in   7 iterations


     Computing stress (Cartesian axis) and pressure

          total   stress  (Ry/bohr**3)                   (kbar)     P=   46.99
   0.00031940  -0.00000000   0.00000000         46.99     -0.00      0.00
  -0.00000000   0.00031940  -0.00000000         -0.00     46.99     -0.00
   0.00000000  -0.00000000   0.00031940          0.00     -0.00     46.99


     Writing output data file na.bcc.save

     init_run     :      0.26s CPU      0.29s WALL (       1 calls)
     electrons    :      4.76s CPU      5.20s WALL (       1 calls)
     stress       :      0.15s CPU      0.15s WALL (       1 calls)

     Called by init_run:
     wfcinit      :      0.12s CPU      0.14s WALL (       1 calls)
     potinit      :      0.02s CPU      0.03s WALL (       1 calls)

     Called by electrons:
     c_bands      :      4.00s CPU      4.38s WALL (       8 calls)
     sum_band     :      0.62s CPU      0.67s WALL (       8 calls)
     v_of_rho     :      0.07s CPU      0.08s WALL (       8 calls)
     newd         :      0.06s CPU      0.06s WALL (       8 calls)
     mix_rho      :      0.01s CPU      0.01s WALL (       8 calls)

     Called by c_bands:
     init_us_2    :      0.07s CPU      0.07s WALL (    1134 calls)
     cegterg      :      3.46s CPU      3.82s WALL (     504 calls)

     Called by sum_band:
     sum_band:bec :      0.01s CPU      0.01s WALL (     504 calls)
     addusdens    :      0.07s CPU      0.07s WALL (       8 calls)

     Called by *egterg:
     h_psi        :      2.27s CPU      2.47s WALL (    1912 calls)
     s_psi        :      0.03s CPU      0.03s WALL (    1912 calls)
     g_psi        :      0.01s CPU      0.01s WALL (    1345 calls)
     cdiaghg      :      0.75s CPU      0.83s WALL (    1786 calls)

     Called by h_psi:
     h_psi:pot    :      2.25s CPU      2.45s WALL (    1912 calls)
     h_psi:calbec :      0.12s CPU      0.13s WALL (    1912 calls)
     vloc_psi     :      2.08s CPU      2.27s WALL (    1912 calls)
     add_vuspsi   :      0.03s CPU      0.04s WALL (    1912 calls)

     General routines
     calbec       :      0.16s CPU      0.17s WALL (    2479 calls)
     fft          :      0.08s CPU      0.09s WALL (     133 calls)
     ffts         :      0.00s CPU      0.00s WALL (      16 calls)
     fftw         :      2.17s CPU      2.36s WALL (   28752 calls)
     interpolate  :      0.01s CPU      0.01s WALL (      16 calls)
     davcio       :      0.00s CPU      0.02s WALL (      63 calls)

     Parallel routines
     fft_scatter  :      1.23s CPU      1.34s WALL (   28901 calls)

     PWSCF        :     6.40s CPU         6.96s WALL


   This run was terminated on:  23:26:51  30Jan2018            

=------------------------------------------------------------------------------=
   JOB DONE.
=------------------------------------------------------------------------------=
