
     Program PHONON v.6.1 (svn rev. 13369) starts on 13Feb2018 at 12:10:14 

     This program is part of the open-source Quantum ESPRESSO suite
     for quantum simulation of materials; please cite
         "P. Giannozzi et al., J. Phys.:Condens. Matter 21 395502 (2009);
          URL http://www.quantum-espresso.org", 
     in publications or presentations arising from this work. More details at
     http://www.quantum-espresso.org/quote

     Parallel version (MPI), running on    64 processors
     K-points division:     npool     =       4
     R & G space division:  proc/nbgrp/npool/nimage =      16

     Reading data from directory:
     ./na.bcc.save

   Info: using nr1, nr2, nr3 values from input

   Info: using nr1, nr2, nr3 values from input

     IMPORTANT: XC functional enforced from input :
     Exchange-correlation      = SLA  PW   PBE  PBE ( 1  4  3  4 0 0)
     Any further DFT definition will be discarded
     Please, verify this is what you really want


     Parallelization info
     --------------------
     sticks:   dense  smooth     PW     G-vecs:    dense   smooth      PW
     Min          61      30      9                 1216      434      76
     Max          62      31     10                 1219      436      79
     Sum         981     487    159                19477     6963    1253



     Dynamical matrices for ( 6, 6, 6)  uniform grid of q-points
     (  16q-points):
       N         xq(1)         xq(2)         xq(3) 
       1   0.000000000   0.000000000   0.000000000
       2   0.000000000  -0.166666667   0.166666667
       3   0.000000000  -0.333333333   0.333333333
       4   0.000000000   0.500000000  -0.500000000
       5  -0.166666667  -0.166666667   0.333333333
       6  -0.166666667   0.666666667  -0.500000000
       7  -0.333333333   0.666666667  -0.333333333
       8   0.000000000   0.000000000   0.333333333
       9   0.000000000  -0.166666667   0.500000000
      10   0.000000000   0.666666667  -0.333333333
      11  -0.166666667   0.833333333  -0.333333333
      12   0.666666667  -0.666666667   0.333333333
      13   0.500000000  -0.500000000   0.333333333
      14   0.000000000   0.000000000   0.666666667
      15   0.000000000   0.833333333  -0.166666667
      16   0.000000000   0.000000000  -1.000000000

     Calculation of q =    0.0000000   0.0000000   0.0000000

                                                                                

     bravais-lattice index     =            3
     lattice parameter (alat)  =       7.4100  a.u.
     unit-cell volume          =     203.4345 (a.u.)^3
     number of atoms/cell      =            1
     number of atomic types    =            1
     kinetic-energy cut-off    =      40.0000  Ry
     charge density cut-off    =     320.0000  Ry
     convergence threshold     =      1.0E-16
     beta                      =       0.7000
     number of iterations used =            4
     Exchange-correlation      = SLA  PW   PBE  PBE ( 1  4  3  4 0 0)


     celldm(1)=    7.41000  celldm(2)=    0.00000  celldm(3)=    0.00000
     celldm(4)=    0.00000  celldm(5)=    0.00000  celldm(6)=    0.00000

     crystal axes: (cart. coord. in units of alat)
               a(1) = (  0.5000  0.5000  0.5000 )  
               a(2) = ( -0.5000  0.5000  0.5000 )  
               a(3) = ( -0.5000 -0.5000  0.5000 )  

     reciprocal axes: (cart. coord. in units 2 pi/alat)
               b(1) = (  1.0000  0.0000  1.0000 )  
               b(2) = ( -1.0000  1.0000  0.0000 )  
               b(3) = (  0.0000 -1.0000  1.0000 )  


     Atoms inside the unit cell: 

     Cartesian axes

     site n.  atom      mass           positions (alat units)
        1     Na  22.9900   tau(    1) = (    0.00000    0.00000    0.00000  )

     Computing dynamical matrix for 
                    q = (   0.0000000   0.0000000   0.0000000 )

     49 Sym.Ops. (with q -> -q+G )


     G cutoff =  445.0683  (   1217 G-vectors)     FFT grid: ( 40, 40, 40)
     G cutoff =  222.5341  (    436 G-vectors)  smooth grid: ( 25, 25, 25)

     number of k points=   250  Marzari-Vanderbilt smearing, width (Ry)=  0.0200

     PseudoPot. # 1 for Na read from file:
     /home/s1333534/quantum_espresso/qe-6.1/pseudo/Na_pbe_v1.uspp.F.UPF
     MD5 check sum: 76a99c7e9422403d3e93cbc85ab7bccb
     Pseudo is Ultrasoft, Zval =  9.0
     Generated by new atomic code, or converted to UPF format
     Using radial grid of  819 points,  5 beta functions with: 
                l(1) =   0
                l(2) =   0
                l(3) =   1
                l(4) =   1
                l(5) =   2
     Q(r) pseudized with  8 coefficients,  rinner =    1.250   1.250   1.250
                                                       1.250   1.250

     Mode symmetry, O_h (m-3m)  point group:


     Atomic displacements:
     There are   1 irreducible representations

     Representation     1      3 modes -T_1u G_15  G_4-  To be done



     Alpha used in Ewald sum =   2.8000
     PHONON       :     2.97s CPU         3.16s WALL



     Representation #  1 modes #   1  2  3

     Self-consistent Calculation

     Pert. #  1: Fermi energy shift (Ry) =     8.6165E-27     1.0971E-37
     Pert. #  2: Fermi energy shift (Ry) =     7.7548E-26    -3.1347E-38
     Pert. #  3: Fermi energy shift (Ry) =    -4.7391E-26     0.0000E+00

      iter #   1 total cpu time :     6.6 secs   av.it.:   5.4
      thresh= 1.000E-02 alpha_mix =  0.700 |ddv_scf|^2 =  1.138E-06

     Pert. #  1: Fermi energy shift (Ry) =     3.4466E-26     9.7958E-40
     Pert. #  2: Fermi energy shift (Ry) =    -1.6748E-25     5.3877E-39
     Pert. #  3: Fermi energy shift (Ry) =    -2.1541E-26    -8.3264E-39

      iter #   2 total cpu time :    10.3 secs   av.it.:   8.4
      thresh= 1.067E-04 alpha_mix =  0.700 |ddv_scf|^2 =  2.177E-08

     Pert. #  1: Fermi energy shift (Ry) =    -1.4217E-25     2.4489E-40
     Pert. #  2: Fermi energy shift (Ry) =    -1.9387E-26    -6.1224E-40
     Pert. #  3: Fermi energy shift (Ry) =     1.9387E-26    -1.2245E-40

      iter #   3 total cpu time :    14.3 secs   av.it.:   8.6
      thresh= 1.476E-05 alpha_mix =  0.700 |ddv_scf|^2 =  3.165E-10

     Pert. #  1: Fermi energy shift (Ry) =     1.7233E-26     0.0000E+00
     Pert. #  2: Fermi energy shift (Ry) =    -3.0158E-26     1.9132E-41
     Pert. #  3: Fermi energy shift (Ry) =    -2.3695E-26    -4.2091E-41

      iter #   4 total cpu time :    19.0 secs   av.it.:   8.1
      thresh= 1.779E-06 alpha_mix =  0.700 |ddv_scf|^2 =  1.264E-12

     Pert. #  1: Fermi energy shift (Ry) =     2.3695E-26    -2.7742E-41
     Pert. #  2: Fermi energy shift (Ry) =     1.2925E-26    -5.2614E-42
     Pert. #  3: Fermi energy shift (Ry) =    -2.5849E-26    -1.7219E-41

      iter #   5 total cpu time :    22.8 secs   av.it.:   8.4
      thresh= 1.124E-07 alpha_mix =  0.700 |ddv_scf|^2 =  3.247E-15

     Pert. #  1: Fermi energy shift (Ry) =    -2.3695E-26    -5.8354E-41
     Pert. #  2: Fermi energy shift (Ry) =    -2.0464E-26    -1.7458E-41
     Pert. #  3: Fermi energy shift (Ry) =    -3.1235E-26    -7.4138E-42

      iter #   6 total cpu time :    26.5 secs   av.it.:   8.2
      thresh= 5.698E-09 alpha_mix =  0.700 |ddv_scf|^2 =  6.113E-17

     End of self-consistent calculation

     Convergence has been achieved 

     Number of q in the star =    1
     List of q in the star:
          1   0.000000000   0.000000000   0.000000000

     Diagonalizing the dynamical matrix

     q = (    0.000000000   0.000000000   0.000000000 ) 

 **************************************************************************
     freq (    1) =      -0.273590 [THz] =      -9.125989 [cm-1]
     freq (    2) =      -0.273590 [THz] =      -9.125989 [cm-1]
     freq (    3) =      -0.273590 [THz] =      -9.125989 [cm-1]
 **************************************************************************

     Mode symmetry, O_h (m-3m)  point group:

     freq (  1 -  3) =         -9.1  [cm-1]   --> T_1u G_15  G_4- I  

     Calculation of q =    0.0000000  -0.1666667   0.1666667

   Info: using nr1, nr2, nr3 values from input

   Info: using nr1, nr2, nr3 values from input

     Parallelization info
     --------------------
     sticks:   dense  smooth     PW     G-vecs:    dense   smooth      PW
     Min          61      30     10                 1216      434      87
     Max          62      31     11                 1219      436      89
     Sum         981     487    169                19477     6963    1409



     bravais-lattice index     =            3
     lattice parameter (alat)  =       7.4100  a.u.
     unit-cell volume          =     203.4345 (a.u.)^3
     number of atoms/cell      =            1
     number of atomic types    =            1
     number of electrons       =         9.00
     number of Kohn-Sham states=            9
     kinetic-energy cutoff     =      40.0000  Ry
     charge density cutoff     =     320.0000  Ry
     Exchange-correlation      = SLA  PW   PBE  PBE ( 1  4  3  4 0 0)

     celldm(1)=   7.410000  celldm(2)=   0.000000  celldm(3)=   0.000000
     celldm(4)=   0.000000  celldm(5)=   0.000000  celldm(6)=   0.000000

     crystal axes: (cart. coord. in units of alat)
               a(1) = (   0.500000   0.500000   0.500000 )  
               a(2) = (  -0.500000   0.500000   0.500000 )  
               a(3) = (  -0.500000  -0.500000   0.500000 )  

     reciprocal axes: (cart. coord. in units 2 pi/alat)
               b(1) = (  1.000000  0.000000  1.000000 )  
               b(2) = ( -1.000000  1.000000  0.000000 )  
               b(3) = (  0.000000 -1.000000  1.000000 )  


     PseudoPot. # 1 for Na read from file:
     /home/s1333534/quantum_espresso/qe-6.1/pseudo/Na_pbe_v1.uspp.F.UPF
     MD5 check sum: 76a99c7e9422403d3e93cbc85ab7bccb
     Pseudo is Ultrasoft, Zval =  9.0
     Generated by new atomic code, or converted to UPF format
     Using radial grid of  819 points,  5 beta functions with: 
                l(1) =   0
                l(2) =   0
                l(3) =   1
                l(4) =   1
                l(5) =   2
     Q(r) pseudized with  8 coefficients,  rinner =    1.250   1.250   1.250
                                                       1.250   1.250

     atomic species   valence    mass     pseudopotential
        Na             9.00    22.99000     Na( 1.00)

     48 Sym. Ops., with inversion, found



   Cartesian axes

     site n.     atom                  positions (alat units)
         1           Na  tau(   1) = (   0.0000000   0.0000000   0.0000000  )

     number of k points=  4400  Marzari-Vanderbilt smearing, width (Ry)=  0.0200

     Number of k-points >= 100: set verbosity='high' to print them.

     Dense  grid:    19477 G-vectors     FFT dimensions: (  40,  40,  40)

     Smooth grid:     6963 G-vectors     FFT dimensions: (  25,  25,  25)

     Estimated max dynamical RAM per process >       0.67MB

     Estimated total allocated dynamical RAM >      42.80MB

     The potential is recalculated from file :
     ./_ph0/na.bcc.save/charge-density.dat

     Starting wfc are    5 atomic +    4 random wfc

     Band Structure Calculation
     Davidson diagonalization with overlap

     ethr =  1.11E-10,  avg # of iterations = 19.5

     total cpu time spent up to now is       59.3 secs

     End of band structure calculation

     Number of k-points >= 100: set verbosity='high' to print the bands.

     the Fermi energy is     2.5692 ev

     Writing output data file na.bcc.save

                                                                                

     bravais-lattice index     =            3
     lattice parameter (alat)  =       7.4100  a.u.
     unit-cell volume          =     203.4345 (a.u.)^3
     number of atoms/cell      =            1
     number of atomic types    =            1
     kinetic-energy cut-off    =      40.0000  Ry
     charge density cut-off    =     320.0000  Ry
     convergence threshold     =      1.0E-16
     beta                      =       0.7000
     number of iterations used =            4
     Exchange-correlation      = SLA  PW   PBE  PBE ( 1  4  3  4 0 0)


     celldm(1)=    7.41000  celldm(2)=    0.00000  celldm(3)=    0.00000
     celldm(4)=    0.00000  celldm(5)=    0.00000  celldm(6)=    0.00000

     crystal axes: (cart. coord. in units of alat)
               a(1) = (  0.5000  0.5000  0.5000 )  
               a(2) = ( -0.5000  0.5000  0.5000 )  
               a(3) = ( -0.5000 -0.5000  0.5000 )  

     reciprocal axes: (cart. coord. in units 2 pi/alat)
               b(1) = (  1.0000  0.0000  1.0000 )  
               b(2) = ( -1.0000  1.0000  0.0000 )  
               b(3) = (  0.0000 -1.0000  1.0000 )  


     Atoms inside the unit cell: 

     Cartesian axes

     site n.  atom      mass           positions (alat units)
        1     Na  22.9900   tau(    1) = (    0.00000    0.00000    0.00000  )

     Computing dynamical matrix for 
                    q = (   0.0000000  -0.1666667   0.1666667 )

      4 Sym.Ops. (no q -> -q+G )


     G cutoff =  445.0683  (   1219 G-vectors)     FFT grid: ( 40, 40, 40)
     G cutoff =  222.5341  (    436 G-vectors)  smooth grid: ( 25, 25, 25)

     number of k points=  4400  Marzari-Vanderbilt smearing, width (Ry)=  0.0200

     PseudoPot. # 1 for Na read from file:
     /home/s1333534/quantum_espresso/qe-6.1/pseudo/Na_pbe_v1.uspp.F.UPF
     MD5 check sum: 76a99c7e9422403d3e93cbc85ab7bccb
     Pseudo is Ultrasoft, Zval =  9.0
     Generated by new atomic code, or converted to UPF format
     Using radial grid of  819 points,  5 beta functions with: 
                l(1) =   0
                l(2) =   0
                l(3) =   1
                l(4) =   1
                l(5) =   2
     Q(r) pseudized with  8 coefficients,  rinner =    1.250   1.250   1.250
                                                       1.250   1.250

     Mode symmetry, C_2v (mm2)  point group:


     Atomic displacements:
     There are   3 irreducible representations

     Representation     1      1 modes -A_1  D_1  S_1  To be done

     Representation     2      1 modes -B_1  D_3  S_3  To be done

     Representation     3      1 modes -B_2  D_4  S_4  To be done



     Alpha used in Ewald sum =   2.8000
     PHONON       :  1m34.98s CPU     1m42.08s WALL



     Representation #  1 mode #   1

     Self-consistent Calculation

      iter #   1 total cpu time :   109.1 secs   av.it.:   5.7
      thresh= 1.000E-02 alpha_mix =  0.700 |ddv_scf|^2 =  2.748E-02

      iter #   2 total cpu time :   116.3 secs   av.it.:   6.5
      thresh= 1.000E-02 alpha_mix =  0.700 |ddv_scf|^2 =  3.741E+00

      iter #   3 total cpu time :   123.6 secs   av.it.:   6.5
      thresh= 1.000E-02 alpha_mix =  0.700 |ddv_scf|^2 =  6.237E-07

      iter #   4 total cpu time :   131.5 secs   av.it.:   7.7
      thresh= 7.897E-05 alpha_mix =  0.700 |ddv_scf|^2 =  7.148E-08

      iter #   5 total cpu time :   139.1 secs   av.it.:   7.5
      thresh= 2.674E-05 alpha_mix =  0.700 |ddv_scf|^2 =  3.325E-09

      iter #   6 total cpu time :   146.8 secs   av.it.:   7.5
      thresh= 5.767E-06 alpha_mix =  0.700 |ddv_scf|^2 =  2.747E-08

      iter #   7 total cpu time :   151.9 secs   av.it.:   4.2
      thresh= 1.657E-05 alpha_mix =  0.700 |ddv_scf|^2 =  4.636E-10

      iter #   8 total cpu time :   159.5 secs   av.it.:   7.4
      thresh= 2.153E-06 alpha_mix =  0.700 |ddv_scf|^2 =  4.283E-11

      iter #   9 total cpu time :   166.9 secs   av.it.:   7.2
      thresh= 6.545E-07 alpha_mix =  0.700 |ddv_scf|^2 =  1.496E-12

      iter #  10 total cpu time :   174.4 secs   av.it.:   7.1
      thresh= 1.223E-07 alpha_mix =  0.700 |ddv_scf|^2 =  8.454E-14

      iter #  11 total cpu time :   182.0 secs   av.it.:   7.3
      thresh= 2.908E-08 alpha_mix =  0.700 |ddv_scf|^2 =  5.336E-16

      iter #  12 total cpu time :   190.7 secs   av.it.:   7.8
      thresh= 2.310E-09 alpha_mix =  0.700 |ddv_scf|^2 =  8.009E-16

      iter #  13 total cpu time :   197.5 secs   av.it.:   6.4
      thresh= 2.830E-09 alpha_mix =  0.700 |ddv_scf|^2 =  3.718E-15

      iter #  14 total cpu time :   204.2 secs   av.it.:   6.5
      thresh= 6.098E-09 alpha_mix =  0.700 |ddv_scf|^2 =  4.771E-18

     End of self-consistent calculation

     Convergence has been achieved 


     Representation #  2 mode #   2

     Self-consistent Calculation

      iter #   1 total cpu time :   211.1 secs   av.it.:   5.4
      thresh= 1.000E-02 alpha_mix =  0.700 |ddv_scf|^2 =  1.036E-05

      iter #   2 total cpu time :   218.8 secs   av.it.:   7.7
      thresh= 3.219E-04 alpha_mix =  0.700 |ddv_scf|^2 =  1.936E-07

      iter #   3 total cpu time :   227.0 secs   av.it.:   7.9
      thresh= 4.401E-05 alpha_mix =  0.700 |ddv_scf|^2 =  3.154E-09

      iter #   4 total cpu time :   234.6 secs   av.it.:   7.4
      thresh= 5.616E-06 alpha_mix =  0.700 |ddv_scf|^2 =  1.219E-11

      iter #   5 total cpu time :   243.0 secs   av.it.:   7.7
      thresh= 3.491E-07 alpha_mix =  0.700 |ddv_scf|^2 =  2.792E-14

      iter #   6 total cpu time :   250.7 secs   av.it.:   7.4
      thresh= 1.671E-08 alpha_mix =  0.700 |ddv_scf|^2 =  6.041E-16

      iter #   7 total cpu time :   259.7 secs   av.it.:   7.7
      thresh= 2.458E-09 alpha_mix =  0.700 |ddv_scf|^2 =  5.137E-19

     End of self-consistent calculation

     Convergence has been achieved 


     Representation #  3 mode #   3

     Self-consistent Calculation

      iter #   1 total cpu time :   266.7 secs   av.it.:   5.4
      thresh= 1.000E-02 alpha_mix =  0.700 |ddv_scf|^2 =  1.072E-05

      iter #   2 total cpu time :   274.5 secs   av.it.:   7.7
      thresh= 3.275E-04 alpha_mix =  0.700 |ddv_scf|^2 =  1.921E-07

      iter #   3 total cpu time :   282.5 secs   av.it.:   7.9
      thresh= 4.383E-05 alpha_mix =  0.700 |ddv_scf|^2 =  4.121E-09

      iter #   4 total cpu time :   290.1 secs   av.it.:   7.5
      thresh= 6.419E-06 alpha_mix =  0.700 |ddv_scf|^2 =  1.544E-11

      iter #   5 total cpu time :   298.1 secs   av.it.:   7.7
      thresh= 3.930E-07 alpha_mix =  0.700 |ddv_scf|^2 =  2.911E-14

      iter #   6 total cpu time :   305.6 secs   av.it.:   7.3
      thresh= 1.706E-08 alpha_mix =  0.700 |ddv_scf|^2 =  1.069E-15

      iter #   7 total cpu time :   313.5 secs   av.it.:   7.8
      thresh= 3.270E-09 alpha_mix =  0.700 |ddv_scf|^2 =  1.308E-18

     End of self-consistent calculation

     Convergence has been achieved 

     Number of q in the star =   12
     List of q in the star:
          1   0.000000000  -0.166666667   0.166666667
          2  -0.166666667   0.000000000   0.166666667
          3   0.166666667   0.000000000   0.166666667
          4   0.000000000   0.166666667   0.166666667
          5   0.166666667   0.166666667   0.000000000
          6  -0.166666667   0.166666667   0.000000000
          7   0.166666667  -0.166666667   0.000000000
          8  -0.166666667  -0.166666667   0.000000000
          9  -0.166666667   0.000000000  -0.166666667
         10   0.000000000  -0.166666667  -0.166666667
         11   0.000000000   0.166666667  -0.166666667
         12   0.166666667   0.000000000  -0.166666667

     Diagonalizing the dynamical matrix

     q = (    0.000000000  -0.166666667   0.166666667 ) 

 **************************************************************************
     freq (    1) =       0.650183 [THz] =      21.687758 [cm-1]
     freq (    2) =       1.546706 [THz] =      51.592558 [cm-1]
     freq (    3) =       2.588396 [THz] =      86.339601 [cm-1]
 **************************************************************************

     Mode symmetry, C_2v (mm2)  point group:

     freq (  1 -  1) =         21.7  [cm-1]   --> B_1  D_3  S_3      
     freq (  2 -  2) =         51.6  [cm-1]   --> B_2  D_4  S_4      
     freq (  3 -  3) =         86.3  [cm-1]   --> A_1  D_1  S_1      

     Calculation of q =    0.0000000  -0.3333333   0.3333333

   Info: using nr1, nr2, nr3 values from input

   Info: using nr1, nr2, nr3 values from input

     Parallelization info
     --------------------
     sticks:   dense  smooth     PW     G-vecs:    dense   smooth      PW
     Min          61      30     10                 1216      434      90
     Max          62      31     11                 1219      436      94
     Sum         981     487    173                19477     6963    1481



     bravais-lattice index     =            3
     lattice parameter (alat)  =       7.4100  a.u.
     unit-cell volume          =     203.4345 (a.u.)^3
     number of atoms/cell      =            1
     number of atomic types    =            1
     number of electrons       =         9.00
     number of Kohn-Sham states=            9
     kinetic-energy cutoff     =      40.0000  Ry
     charge density cutoff     =     320.0000  Ry
     Exchange-correlation      = SLA  PW   PBE  PBE ( 1  4  3  4 0 0)

     celldm(1)=   7.410000  celldm(2)=   0.000000  celldm(3)=   0.000000
     celldm(4)=   0.000000  celldm(5)=   0.000000  celldm(6)=   0.000000

     crystal axes: (cart. coord. in units of alat)
               a(1) = (   0.500000   0.500000   0.500000 )  
               a(2) = (  -0.500000   0.500000   0.500000 )  
               a(3) = (  -0.500000  -0.500000   0.500000 )  

     reciprocal axes: (cart. coord. in units 2 pi/alat)
               b(1) = (  1.000000  0.000000  1.000000 )  
               b(2) = ( -1.000000  1.000000  0.000000 )  
               b(3) = (  0.000000 -1.000000  1.000000 )  


     PseudoPot. # 1 for Na read from file:
     /home/s1333534/quantum_espresso/qe-6.1/pseudo/Na_pbe_v1.uspp.F.UPF
     MD5 check sum: 76a99c7e9422403d3e93cbc85ab7bccb
     Pseudo is Ultrasoft, Zval =  9.0
     Generated by new atomic code, or converted to UPF format
     Using radial grid of  819 points,  5 beta functions with: 
                l(1) =   0
                l(2) =   0
                l(3) =   1
                l(4) =   1
                l(5) =   2
     Q(r) pseudized with  8 coefficients,  rinner =    1.250   1.250   1.250
                                                       1.250   1.250

     atomic species   valence    mass     pseudopotential
        Na             9.00    22.99000     Na( 1.00)

     48 Sym. Ops., with inversion, found



   Cartesian axes

     site n.     atom                  positions (alat units)
         1           Na  tau(   1) = (   0.0000000   0.0000000   0.0000000  )

     number of k points=  4400  Marzari-Vanderbilt smearing, width (Ry)=  0.0200

     Number of k-points >= 100: set verbosity='high' to print them.

     Dense  grid:    19477 G-vectors     FFT dimensions: (  40,  40,  40)

     Smooth grid:     6963 G-vectors     FFT dimensions: (  25,  25,  25)

     Estimated max dynamical RAM per process >       0.67MB

     Estimated total allocated dynamical RAM >      42.80MB

     The potential is recalculated from file :
     ./_ph0/na.bcc.save/charge-density.dat

     Starting wfc are    5 atomic +    4 random wfc

     Band Structure Calculation
     Davidson diagonalization with overlap

     ethr =  1.11E-10,  avg # of iterations = 19.4

     total cpu time spent up to now is      131.3 secs

     End of band structure calculation

     Number of k-points >= 100: set verbosity='high' to print the bands.

     the Fermi energy is     2.5692 ev

     Writing output data file na.bcc.save

                                                                                

     bravais-lattice index     =            3
     lattice parameter (alat)  =       7.4100  a.u.
     unit-cell volume          =     203.4345 (a.u.)^3
     number of atoms/cell      =            1
     number of atomic types    =            1
     kinetic-energy cut-off    =      40.0000  Ry
     charge density cut-off    =     320.0000  Ry
     convergence threshold     =      1.0E-16
     beta                      =       0.7000
     number of iterations used =            4
     Exchange-correlation      = SLA  PW   PBE  PBE ( 1  4  3  4 0 0)


     celldm(1)=    7.41000  celldm(2)=    0.00000  celldm(3)=    0.00000
     celldm(4)=    0.00000  celldm(5)=    0.00000  celldm(6)=    0.00000

     crystal axes: (cart. coord. in units of alat)
               a(1) = (  0.5000  0.5000  0.5000 )  
               a(2) = ( -0.5000  0.5000  0.5000 )  
               a(3) = ( -0.5000 -0.5000  0.5000 )  

     reciprocal axes: (cart. coord. in units 2 pi/alat)
               b(1) = (  1.0000  0.0000  1.0000 )  
               b(2) = ( -1.0000  1.0000  0.0000 )  
               b(3) = (  0.0000 -1.0000  1.0000 )  


     Atoms inside the unit cell: 

     Cartesian axes

     site n.  atom      mass           positions (alat units)
        1     Na  22.9900   tau(    1) = (    0.00000    0.00000    0.00000  )

     Computing dynamical matrix for 
                    q = (   0.0000000  -0.3333333   0.3333333 )

      4 Sym.Ops. (no q -> -q+G )


     G cutoff =  445.0683  (   1217 G-vectors)     FFT grid: ( 40, 40, 40)
     G cutoff =  222.5341  (    436 G-vectors)  smooth grid: ( 25, 25, 25)

     number of k points=  4400  Marzari-Vanderbilt smearing, width (Ry)=  0.0200

     PseudoPot. # 1 for Na read from file:
     /home/s1333534/quantum_espresso/qe-6.1/pseudo/Na_pbe_v1.uspp.F.UPF
     MD5 check sum: 76a99c7e9422403d3e93cbc85ab7bccb
     Pseudo is Ultrasoft, Zval =  9.0
     Generated by new atomic code, or converted to UPF format
     Using radial grid of  819 points,  5 beta functions with: 
                l(1) =   0
                l(2) =   0
                l(3) =   1
                l(4) =   1
                l(5) =   2
     Q(r) pseudized with  8 coefficients,  rinner =    1.250   1.250   1.250
                                                       1.250   1.250

     Mode symmetry, C_2v (mm2)  point group:


     Atomic displacements:
     There are   3 irreducible representations

     Representation     1      1 modes -A_1  D_1  S_1  To be done

     Representation     2      1 modes -B_1  D_3  S_3  To be done

     Representation     3      1 modes -B_2  D_4  S_4  To be done



     Alpha used in Ewald sum =   2.8000
     PHONON       :  5m55.33s CPU     6m28.79s WALL



     Representation #  1 mode #   1

     Self-consistent Calculation

      iter #   1 total cpu time :   395.8 secs   av.it.:   5.7
      thresh= 1.000E-02 alpha_mix =  0.700 |ddv_scf|^2 =  4.695E-04

      iter #   2 total cpu time :   402.9 secs   av.it.:   6.7
      thresh= 2.167E-03 alpha_mix =  0.700 |ddv_scf|^2 =  2.488E-03

      iter #   3 total cpu time :   409.6 secs   av.it.:   5.9
      thresh= 4.988E-03 alpha_mix =  0.700 |ddv_scf|^2 =  5.057E-07

      iter #   4 total cpu time :   417.7 secs   av.it.:   7.7
      thresh= 7.111E-05 alpha_mix =  0.700 |ddv_scf|^2 =  7.791E-09

      iter #   5 total cpu time :   426.0 secs   av.it.:   8.3
      thresh= 8.827E-06 alpha_mix =  0.700 |ddv_scf|^2 =  4.864E-10

      iter #   6 total cpu time :   434.1 secs   av.it.:   8.1
      thresh= 2.206E-06 alpha_mix =  0.700 |ddv_scf|^2 =  1.416E-11

      iter #   7 total cpu time :   441.9 secs   av.it.:   7.7
      thresh= 3.764E-07 alpha_mix =  0.700 |ddv_scf|^2 =  2.069E-14

      iter #   8 total cpu time :   449.9 secs   av.it.:   7.7
      thresh= 1.439E-08 alpha_mix =  0.700 |ddv_scf|^2 =  1.723E-14

      iter #   9 total cpu time :   456.9 secs   av.it.:   6.8
      thresh= 1.313E-08 alpha_mix =  0.700 |ddv_scf|^2 =  8.146E-15

      iter #  10 total cpu time :   464.4 secs   av.it.:   7.2
      thresh= 9.026E-09 alpha_mix =  0.700 |ddv_scf|^2 =  2.390E-15

      iter #  11 total cpu time :   471.6 secs   av.it.:   6.8
      thresh= 4.889E-09 alpha_mix =  0.700 |ddv_scf|^2 =  2.320E-18

     End of self-consistent calculation

     Convergence has been achieved 


     Representation #  2 mode #   2

     Self-consistent Calculation

      iter #   1 total cpu time :   478.7 secs   av.it.:   5.5
      thresh= 1.000E-02 alpha_mix =  0.700 |ddv_scf|^2 =  1.066E-05

      iter #   2 total cpu time :   486.7 secs   av.it.:   7.8
      thresh= 3.264E-04 alpha_mix =  0.700 |ddv_scf|^2 =  1.871E-07

      iter #   3 total cpu time :   494.9 secs   av.it.:   7.9
      thresh= 4.325E-05 alpha_mix =  0.700 |ddv_scf|^2 =  4.133E-09

      iter #   4 total cpu time :   502.4 secs   av.it.:   7.4
      thresh= 6.429E-06 alpha_mix =  0.700 |ddv_scf|^2 =  1.448E-11

      iter #   5 total cpu time :   510.7 secs   av.it.:   7.8
      thresh= 3.806E-07 alpha_mix =  0.700 |ddv_scf|^2 =  2.361E-14

      iter #   6 total cpu time :   518.2 secs   av.it.:   7.4
      thresh= 1.537E-08 alpha_mix =  0.700 |ddv_scf|^2 =  6.784E-16

      iter #   7 total cpu time :   526.3 secs   av.it.:   7.7
      thresh= 2.605E-09 alpha_mix =  0.700 |ddv_scf|^2 =  6.066E-19

     End of self-consistent calculation

     Convergence has been achieved 


     Representation #  3 mode #   3

     Self-consistent Calculation

      iter #   1 total cpu time :   534.4 secs   av.it.:   5.5
      thresh= 1.000E-02 alpha_mix =  0.700 |ddv_scf|^2 =  1.179E-05

      iter #   2 total cpu time :   542.2 secs   av.it.:   7.7
      thresh= 3.434E-04 alpha_mix =  0.700 |ddv_scf|^2 =  1.837E-07

      iter #   3 total cpu time :   550.4 secs   av.it.:   7.9
      thresh= 4.286E-05 alpha_mix =  0.700 |ddv_scf|^2 =  7.476E-09

      iter #   4 total cpu time :   558.0 secs   av.it.:   7.5
      thresh= 8.646E-06 alpha_mix =  0.700 |ddv_scf|^2 =  2.643E-11

      iter #   5 total cpu time :   566.1 secs   av.it.:   7.8
      thresh= 5.141E-07 alpha_mix =  0.700 |ddv_scf|^2 =  3.102E-14

      iter #   6 total cpu time :   573.1 secs   av.it.:   6.5
      thresh= 1.761E-08 alpha_mix =  0.700 |ddv_scf|^2 =  1.840E-15

      iter #   7 total cpu time :   581.0 secs   av.it.:   7.7
      thresh= 4.290E-09 alpha_mix =  0.700 |ddv_scf|^2 =  2.043E-18

     End of self-consistent calculation

     Convergence has been achieved 

     Number of q in the star =   12
     List of q in the star:
          1   0.000000000  -0.333333333   0.333333333
          2  -0.333333333   0.000000000   0.333333333
          3   0.333333333   0.000000000   0.333333333
          4   0.000000000   0.333333333   0.333333333
          5   0.333333333   0.333333333   0.000000000
          6  -0.333333333   0.333333333   0.000000000
          7   0.333333333  -0.333333333   0.000000000
          8  -0.333333333  -0.333333333   0.000000000
          9  -0.333333333   0.000000000  -0.333333333
         10   0.000000000  -0.333333333  -0.333333333
         11   0.000000000   0.333333333  -0.333333333
         12   0.333333333   0.000000000  -0.333333333

     Diagonalizing the dynamical matrix

     q = (    0.000000000  -0.333333333   0.333333333 ) 

 **************************************************************************
     freq (    1) =       1.034196 [THz] =      34.497072 [cm-1]
     freq (    2) =       2.654373 [THz] =      88.540361 [cm-1]
     freq (    3) =       4.508820 [THz] =     150.398043 [cm-1]
 **************************************************************************

     Mode symmetry, C_2v (mm2)  point group:

     freq (  1 -  1) =         34.5  [cm-1]   --> B_1  D_3  S_3      
     freq (  2 -  2) =         88.5  [cm-1]   --> B_2  D_4  S_4      
     freq (  3 -  3) =        150.4  [cm-1]   --> A_1  D_1  S_1      

     Calculation of q =    0.0000000   0.5000000  -0.5000000

   Info: using nr1, nr2, nr3 values from input

   Info: using nr1, nr2, nr3 values from input

     Parallelization info
     --------------------
     sticks:   dense  smooth     PW     G-vecs:    dense   smooth      PW
     Min          61      30     11                 1216      434      96
     Max          62      31     12                 1219      436      98
     Sum         981     487    181                19477     6963    1553



     bravais-lattice index     =            3
     lattice parameter (alat)  =       7.4100  a.u.
     unit-cell volume          =     203.4345 (a.u.)^3
     number of atoms/cell      =            1
     number of atomic types    =            1
     number of electrons       =         9.00
     number of Kohn-Sham states=            9
     kinetic-energy cutoff     =      40.0000  Ry
     charge density cutoff     =     320.0000  Ry
     Exchange-correlation      = SLA  PW   PBE  PBE ( 1  4  3  4 0 0)

     celldm(1)=   7.410000  celldm(2)=   0.000000  celldm(3)=   0.000000
     celldm(4)=   0.000000  celldm(5)=   0.000000  celldm(6)=   0.000000

     crystal axes: (cart. coord. in units of alat)
               a(1) = (   0.500000   0.500000   0.500000 )  
               a(2) = (  -0.500000   0.500000   0.500000 )  
               a(3) = (  -0.500000  -0.500000   0.500000 )  

     reciprocal axes: (cart. coord. in units 2 pi/alat)
               b(1) = (  1.000000  0.000000  1.000000 )  
               b(2) = ( -1.000000  1.000000  0.000000 )  
               b(3) = (  0.000000 -1.000000  1.000000 )  


     PseudoPot. # 1 for Na read from file:
     /home/s1333534/quantum_espresso/qe-6.1/pseudo/Na_pbe_v1.uspp.F.UPF
     MD5 check sum: 76a99c7e9422403d3e93cbc85ab7bccb
     Pseudo is Ultrasoft, Zval =  9.0
     Generated by new atomic code, or converted to UPF format
     Using radial grid of  819 points,  5 beta functions with: 
                l(1) =   0
                l(2) =   0
                l(3) =   1
                l(4) =   1
                l(5) =   2
     Q(r) pseudized with  8 coefficients,  rinner =    1.250   1.250   1.250
                                                       1.250   1.250

     atomic species   valence    mass     pseudopotential
        Na             9.00    22.99000     Na( 1.00)

     48 Sym. Ops., with inversion, found



   Cartesian axes

     site n.     atom                  positions (alat units)
         1           Na  tau(   1) = (   0.0000000   0.0000000   0.0000000  )

     number of k points=  2310  Marzari-Vanderbilt smearing, width (Ry)=  0.0200

     Number of k-points >= 100: set verbosity='high' to print them.

     Dense  grid:    19477 G-vectors     FFT dimensions: (  40,  40,  40)

     Smooth grid:     6963 G-vectors     FFT dimensions: (  25,  25,  25)

     Estimated max dynamical RAM per process >       0.67MB

     Estimated total allocated dynamical RAM >      42.80MB

     The potential is recalculated from file :
     ./_ph0/na.bcc.save/charge-density.dat

     Starting wfc are    5 atomic +    4 random wfc

     Band Structure Calculation
     Davidson diagonalization with overlap

     ethr =  1.11E-10,  avg # of iterations = 19.5

     total cpu time spent up to now is      174.9 secs

     End of band structure calculation

     Number of k-points >= 100: set verbosity='high' to print the bands.

     the Fermi energy is     2.5692 ev

     Writing output data file na.bcc.save

                                                                                

     bravais-lattice index     =            3
     lattice parameter (alat)  =       7.4100  a.u.
     unit-cell volume          =     203.4345 (a.u.)^3
     number of atoms/cell      =            1
     number of atomic types    =            1
     kinetic-energy cut-off    =      40.0000  Ry
     charge density cut-off    =     320.0000  Ry
     convergence threshold     =      1.0E-16
     beta                      =       0.7000
     number of iterations used =            4
     Exchange-correlation      = SLA  PW   PBE  PBE ( 1  4  3  4 0 0)


     celldm(1)=    7.41000  celldm(2)=    0.00000  celldm(3)=    0.00000
     celldm(4)=    0.00000  celldm(5)=    0.00000  celldm(6)=    0.00000

     crystal axes: (cart. coord. in units of alat)
               a(1) = (  0.5000  0.5000  0.5000 )  
               a(2) = ( -0.5000  0.5000  0.5000 )  
               a(3) = ( -0.5000 -0.5000  0.5000 )  

     reciprocal axes: (cart. coord. in units 2 pi/alat)
               b(1) = (  1.0000  0.0000  1.0000 )  
               b(2) = ( -1.0000  1.0000  0.0000 )  
               b(3) = (  0.0000 -1.0000  1.0000 )  


     Atoms inside the unit cell: 

     Cartesian axes

     site n.  atom      mass           positions (alat units)
        1     Na  22.9900   tau(    1) = (    0.00000    0.00000    0.00000  )

     Computing dynamical matrix for 
                    q = (   0.0000000   0.5000000  -0.5000000 )

      9 Sym.Ops. (with q -> -q+G )


     G cutoff =  445.0683  (   1217 G-vectors)     FFT grid: ( 40, 40, 40)
     G cutoff =  222.5341  (    436 G-vectors)  smooth grid: ( 25, 25, 25)

     number of k points=  2310  Marzari-Vanderbilt smearing, width (Ry)=  0.0200

     PseudoPot. # 1 for Na read from file:
     /home/s1333534/quantum_espresso/qe-6.1/pseudo/Na_pbe_v1.uspp.F.UPF
     MD5 check sum: 76a99c7e9422403d3e93cbc85ab7bccb
     Pseudo is Ultrasoft, Zval =  9.0
     Generated by new atomic code, or converted to UPF format
     Using radial grid of  819 points,  5 beta functions with: 
                l(1) =   0
                l(2) =   0
                l(3) =   1
                l(4) =   1
                l(5) =   2
     Q(r) pseudized with  8 coefficients,  rinner =    1.250   1.250   1.250
                                                       1.250   1.250

     Mode symmetry, D_2h (mmm)  point group:


     Atomic displacements:
     There are   3 irreducible representations

     Representation     1      1 modes -B_1u  To be done

     Representation     2      1 modes -B_2u  To be done

     Representation     3      1 modes -B_3u  To be done



     Alpha used in Ewald sum =   2.8000
     PHONON       :  9m24.33s CPU    10m20.68s WALL



     Representation #  1 mode #   1

     Self-consistent Calculation

      iter #   1 total cpu time :   624.4 secs   av.it.:   5.5
      thresh= 1.000E-02 alpha_mix =  0.700 |ddv_scf|^2 =  1.238E-05

      iter #   2 total cpu time :   629.2 secs   av.it.:   7.7
      thresh= 3.519E-04 alpha_mix =  0.700 |ddv_scf|^2 =  1.799E-07

      iter #   3 total cpu time :   633.4 secs   av.it.:   7.8
      thresh= 4.242E-05 alpha_mix =  0.700 |ddv_scf|^2 =  9.558E-09

      iter #   4 total cpu time :   637.7 secs   av.it.:   7.3
      thresh= 9.776E-06 alpha_mix =  0.700 |ddv_scf|^2 =  3.370E-11

      iter #   5 total cpu time :   642.1 secs   av.it.:   7.7
      thresh= 5.805E-07 alpha_mix =  0.700 |ddv_scf|^2 =  3.350E-14

      iter #   6 total cpu time :   645.9 secs   av.it.:   6.8
      thresh= 1.830E-08 alpha_mix =  0.700 |ddv_scf|^2 =  2.167E-15

      iter #   7 total cpu time :   650.0 secs   av.it.:   7.5
      thresh= 4.655E-09 alpha_mix =  0.700 |ddv_scf|^2 =  1.933E-18

     End of self-consistent calculation

     Convergence has been achieved 


     Representation #  2 mode #   2

     Self-consistent Calculation

      iter #   1 total cpu time :   653.9 secs   av.it.:   5.5
      thresh= 1.000E-02 alpha_mix =  0.700 |ddv_scf|^2 =  1.084E-05

      iter #   2 total cpu time :   658.0 secs   av.it.:   7.7
      thresh= 3.292E-04 alpha_mix =  0.700 |ddv_scf|^2 =  1.832E-07

      iter #   3 total cpu time :   662.2 secs   av.it.:   7.9
      thresh= 4.281E-05 alpha_mix =  0.700 |ddv_scf|^2 =  4.813E-09

      iter #   4 total cpu time :   666.3 secs   av.it.:   7.2
      thresh= 6.938E-06 alpha_mix =  0.700 |ddv_scf|^2 =  1.584E-11

      iter #   5 total cpu time :   670.5 secs   av.it.:   7.6
      thresh= 3.980E-07 alpha_mix =  0.700 |ddv_scf|^2 =  2.080E-14

      iter #   6 total cpu time :   674.5 secs   av.it.:   7.3
      thresh= 1.442E-08 alpha_mix =  0.700 |ddv_scf|^2 =  6.459E-16

      iter #   7 total cpu time :   678.7 secs   av.it.:   7.6
      thresh= 2.541E-09 alpha_mix =  0.700 |ddv_scf|^2 =  2.867E-19

     End of self-consistent calculation

     Convergence has been achieved 


     Representation #  3 mode #   3

     Self-consistent Calculation

      iter #   1 total cpu time :   682.6 secs   av.it.:   5.7
      thresh= 1.000E-02 alpha_mix =  0.700 |ddv_scf|^2 =  9.573E-05

      iter #   2 total cpu time :   686.5 secs   av.it.:   6.8
      thresh= 9.784E-04 alpha_mix =  0.700 |ddv_scf|^2 =  4.651E-05

      iter #   3 total cpu time :   690.7 secs   av.it.:   6.8
      thresh= 6.820E-04 alpha_mix =  0.700 |ddv_scf|^2 =  6.951E-08

      iter #   4 total cpu time :   694.9 secs   av.it.:   7.8
      thresh= 2.636E-05 alpha_mix =  0.700 |ddv_scf|^2 =  2.293E-10

      iter #   5 total cpu time :   698.8 secs   av.it.:   6.7
      thresh= 1.514E-06 alpha_mix =  0.700 |ddv_scf|^2 =  4.755E-12

      iter #   6 total cpu time :   702.6 secs   av.it.:   6.8
      thresh= 2.181E-07 alpha_mix =  0.700 |ddv_scf|^2 =  1.561E-14

      iter #   7 total cpu time :   706.6 secs   av.it.:   7.2
      thresh= 1.249E-08 alpha_mix =  0.700 |ddv_scf|^2 =  3.672E-17

     End of self-consistent calculation

     Convergence has been achieved 

     Number of q in the star =    6
     List of q in the star:
          1   0.000000000   0.500000000  -0.500000000
          2  -0.500000000  -0.500000000   0.000000000
          3   0.500000000  -0.500000000   0.000000000
          4   0.500000000   0.000000000   0.500000000
          5   0.000000000  -0.500000000  -0.500000000
          6   0.500000000   0.000000000  -0.500000000

     Diagonalizing the dynamical matrix

     q = (    0.000000000   0.500000000  -0.500000000 ) 

 **************************************************************************
     freq (    1) =       1.161293 [THz] =      38.736572 [cm-1]
     freq (    2) =       3.061441 [THz] =     102.118691 [cm-1]
     freq (    3) =       5.211814 [THz] =     173.847391 [cm-1]
 **************************************************************************

     Mode symmetry, D_2h (mmm)  point group:

     freq (  1 -  1) =         38.7  [cm-1]   --> B_2u               
     freq (  2 -  2) =        102.1  [cm-1]   --> B_1u               
     freq (  3 -  3) =        173.8  [cm-1]   --> B_3u               

     Calculation of q =   -0.1666667  -0.1666667   0.3333333

   Info: using nr1, nr2, nr3 values from input

   Info: using nr1, nr2, nr3 values from input

     Parallelization info
     --------------------
     sticks:   dense  smooth     PW     G-vecs:    dense   smooth      PW
     Min          61      30     10                 1216      434      90
     Max          62      31     11                 1219      436      94
     Sum         981     487    173                19477     6963    1481



     bravais-lattice index     =            3
     lattice parameter (alat)  =       7.4100  a.u.
     unit-cell volume          =     203.4345 (a.u.)^3
     number of atoms/cell      =            1
     number of atomic types    =            1
     number of electrons       =         9.00
     number of Kohn-Sham states=            9
     kinetic-energy cutoff     =      40.0000  Ry
     charge density cutoff     =     320.0000  Ry
     Exchange-correlation      = SLA  PW   PBE  PBE ( 1  4  3  4 0 0)

     celldm(1)=   7.410000  celldm(2)=   0.000000  celldm(3)=   0.000000
     celldm(4)=   0.000000  celldm(5)=   0.000000  celldm(6)=   0.000000

     crystal axes: (cart. coord. in units of alat)
               a(1) = (   0.500000   0.500000   0.500000 )  
               a(2) = (  -0.500000   0.500000   0.500000 )  
               a(3) = (  -0.500000  -0.500000   0.500000 )  

     reciprocal axes: (cart. coord. in units 2 pi/alat)
               b(1) = (  1.000000  0.000000  1.000000 )  
               b(2) = ( -1.000000  1.000000  0.000000 )  
               b(3) = (  0.000000 -1.000000  1.000000 )  


     PseudoPot. # 1 for Na read from file:
     /home/s1333534/quantum_espresso/qe-6.1/pseudo/Na_pbe_v1.uspp.F.UPF
     MD5 check sum: 76a99c7e9422403d3e93cbc85ab7bccb
     Pseudo is Ultrasoft, Zval =  9.0
     Generated by new atomic code, or converted to UPF format
     Using radial grid of  819 points,  5 beta functions with: 
                l(1) =   0
                l(2) =   0
                l(3) =   1
                l(4) =   1
                l(5) =   2
     Q(r) pseudized with  8 coefficients,  rinner =    1.250   1.250   1.250
                                                       1.250   1.250

     atomic species   valence    mass     pseudopotential
        Na             9.00    22.99000     Na( 1.00)

     48 Sym. Ops., with inversion, found



   Cartesian axes

     site n.     atom                  positions (alat units)
         1           Na  tau(   1) = (   0.0000000   0.0000000   0.0000000  )

     number of k points=  8400  Marzari-Vanderbilt smearing, width (Ry)=  0.0200

     Number of k-points >= 100: set verbosity='high' to print them.

     Dense  grid:    19477 G-vectors     FFT dimensions: (  40,  40,  40)

     Smooth grid:     6963 G-vectors     FFT dimensions: (  25,  25,  25)

     Estimated max dynamical RAM per process >       0.67MB

     Estimated total allocated dynamical RAM >      42.80MB

     The potential is recalculated from file :
     ./_ph0/na.bcc.save/charge-density.dat

     Starting wfc are    5 atomic +    4 random wfc

     Band Structure Calculation
     Davidson diagonalization with overlap

     ethr =  1.11E-10,  avg # of iterations = 19.5

     total cpu time spent up to now is      293.7 secs

     End of band structure calculation

     Number of k-points >= 100: set verbosity='high' to print the bands.

     the Fermi energy is     2.5692 ev

     Writing output data file na.bcc.save

                                                                                

     bravais-lattice index     =            3
     lattice parameter (alat)  =       7.4100  a.u.
     unit-cell volume          =     203.4345 (a.u.)^3
     number of atoms/cell      =            1
     number of atomic types    =            1
     kinetic-energy cut-off    =      40.0000  Ry
     charge density cut-off    =     320.0000  Ry
     convergence threshold     =      1.0E-16
     beta                      =       0.7000
     number of iterations used =            4
     Exchange-correlation      = SLA  PW   PBE  PBE ( 1  4  3  4 0 0)


     celldm(1)=    7.41000  celldm(2)=    0.00000  celldm(3)=    0.00000
     celldm(4)=    0.00000  celldm(5)=    0.00000  celldm(6)=    0.00000

     crystal axes: (cart. coord. in units of alat)
               a(1) = (  0.5000  0.5000  0.5000 )  
               a(2) = ( -0.5000  0.5000  0.5000 )  
               a(3) = ( -0.5000 -0.5000  0.5000 )  

     reciprocal axes: (cart. coord. in units 2 pi/alat)
               b(1) = (  1.0000  0.0000  1.0000 )  
               b(2) = ( -1.0000  1.0000  0.0000 )  
               b(3) = (  0.0000 -1.0000  1.0000 )  


     Atoms inside the unit cell: 

     Cartesian axes

     site n.  atom      mass           positions (alat units)
        1     Na  22.9900   tau(    1) = (    0.00000    0.00000    0.00000  )

     Computing dynamical matrix for 
                    q = (  -0.1666667  -0.1666667   0.3333333 )

      2 Sym.Ops. (no q -> -q+G )


     G cutoff =  445.0683  (   1217 G-vectors)     FFT grid: ( 40, 40, 40)
     G cutoff =  222.5341  (    436 G-vectors)  smooth grid: ( 25, 25, 25)

     number of k points=  8400  Marzari-Vanderbilt smearing, width (Ry)=  0.0200

     PseudoPot. # 1 for Na read from file:
     /home/s1333534/quantum_espresso/qe-6.1/pseudo/Na_pbe_v1.uspp.F.UPF
     MD5 check sum: 76a99c7e9422403d3e93cbc85ab7bccb
     Pseudo is Ultrasoft, Zval =  9.0
     Generated by new atomic code, or converted to UPF format
     Using radial grid of  819 points,  5 beta functions with: 
                l(1) =   0
                l(2) =   0
                l(3) =   1
                l(4) =   1
                l(5) =   2
     Q(r) pseudized with  8 coefficients,  rinner =    1.250   1.250   1.250
                                                       1.250   1.250

     Mode symmetry, C_s (m)     point group:


     Atomic displacements:
     There are   3 irreducible representations

     Representation     1      1 modes -A'  To be done

     Representation     2      1 modes -A'  To be done

     Representation     3      1 modes -A''  To be done



     Alpha used in Ewald sum =   2.8000
     PHONON       : 12m56.50s CPU    14m 9.16s WALL



     Representation #  1 mode #   1

     Self-consistent Calculation

      iter #   1 total cpu time :   862.4 secs   av.it.:   5.6
      thresh= 1.000E-02 alpha_mix =  0.700 |ddv_scf|^2 =  1.167E-04

      iter #   2 total cpu time :   877.1 secs   av.it.:   7.3
      thresh= 1.080E-03 alpha_mix =  0.700 |ddv_scf|^2 =  1.183E-03

      iter #   3 total cpu time :   888.9 secs   av.it.:   5.5
      thresh= 3.440E-03 alpha_mix =  0.700 |ddv_scf|^2 =  1.402E-07

      iter #   4 total cpu time :   904.8 secs   av.it.:   8.3
      thresh= 3.744E-05 alpha_mix =  0.700 |ddv_scf|^2 =  5.074E-09

      iter #   5 total cpu time :   919.6 secs   av.it.:   7.9
      thresh= 7.123E-06 alpha_mix =  0.700 |ddv_scf|^2 =  1.828E-10

      iter #   6 total cpu time :   935.2 secs   av.it.:   8.2
      thresh= 1.352E-06 alpha_mix =  0.700 |ddv_scf|^2 =  1.955E-11

      iter #   7 total cpu time :   950.2 secs   av.it.:   7.8
      thresh= 4.421E-07 alpha_mix =  0.700 |ddv_scf|^2 =  4.171E-11

      iter #   8 total cpu time :   964.1 secs   av.it.:   7.2
      thresh= 6.459E-07 alpha_mix =  0.700 |ddv_scf|^2 =  3.373E-11

      iter #   9 total cpu time :   977.6 secs   av.it.:   6.7
      thresh= 5.807E-07 alpha_mix =  0.700 |ddv_scf|^2 =  9.952E-13

      iter #  10 total cpu time :   991.5 secs   av.it.:   7.2
      thresh= 9.976E-08 alpha_mix =  0.700 |ddv_scf|^2 =  4.866E-15

      iter #  11 total cpu time :  1007.7 secs   av.it.:   8.2
      thresh= 6.976E-09 alpha_mix =  0.700 |ddv_scf|^2 =  2.157E-16

      iter #  12 total cpu time :  1022.5 secs   av.it.:   7.8
      thresh= 1.469E-09 alpha_mix =  0.700 |ddv_scf|^2 =  1.464E-17

     End of self-consistent calculation

     Convergence has been achieved 


     Representation #  2 mode #   2

     Self-consistent Calculation

      iter #   1 total cpu time :  1036.9 secs   av.it.:   5.7
      thresh= 1.000E-02 alpha_mix =  0.700 |ddv_scf|^2 =  9.525E-04

      iter #   2 total cpu time :  1050.2 secs   av.it.:   6.6
      thresh= 3.086E-03 alpha_mix =  0.700 |ddv_scf|^2 =  1.050E-02

      iter #   3 total cpu time :  1061.8 secs   av.it.:   5.5
      thresh= 1.000E-02 alpha_mix =  0.700 |ddv_scf|^2 =  1.030E-06

      iter #   4 total cpu time :  1077.4 secs   av.it.:   7.7
      thresh= 1.015E-04 alpha_mix =  0.700 |ddv_scf|^2 =  5.684E-09

      iter #   5 total cpu time :  1093.1 secs   av.it.:   8.3
      thresh= 7.539E-06 alpha_mix =  0.700 |ddv_scf|^2 =  7.764E-10

      iter #   6 total cpu time :  1108.8 secs   av.it.:   8.1
      thresh= 2.786E-06 alpha_mix =  0.700 |ddv_scf|^2 =  1.462E-11

      iter #   7 total cpu time :  1124.5 secs   av.it.:   8.2
      thresh= 3.823E-07 alpha_mix =  0.700 |ddv_scf|^2 =  1.377E-11

      iter #   8 total cpu time :  1137.5 secs   av.it.:   6.5
      thresh= 3.711E-07 alpha_mix =  0.700 |ddv_scf|^2 =  4.556E-12

      iter #   9 total cpu time :  1152.2 secs   av.it.:   7.2
      thresh= 2.134E-07 alpha_mix =  0.700 |ddv_scf|^2 =  2.895E-13

      iter #  10 total cpu time :  1165.8 secs   av.it.:   7.0
      thresh= 5.381E-08 alpha_mix =  0.700 |ddv_scf|^2 =  9.965E-14

      iter #  11 total cpu time :  1179.8 secs   av.it.:   7.2
      thresh= 3.157E-08 alpha_mix =  0.700 |ddv_scf|^2 =  1.986E-16

      iter #  12 total cpu time :  1195.0 secs   av.it.:   7.7
      thresh= 1.409E-09 alpha_mix =  0.700 |ddv_scf|^2 =  1.269E-17

     End of self-consistent calculation

     Convergence has been achieved 


     Representation #  3 mode #   3

     Self-consistent Calculation

      iter #   1 total cpu time :  1208.7 secs   av.it.:   5.5
      thresh= 1.000E-02 alpha_mix =  0.700 |ddv_scf|^2 =  1.245E-05

      iter #   2 total cpu time :  1224.2 secs   av.it.:   7.8
      thresh= 3.528E-04 alpha_mix =  0.700 |ddv_scf|^2 =  1.749E-07

      iter #   3 total cpu time :  1239.7 secs   av.it.:   8.0
      thresh= 4.183E-05 alpha_mix =  0.700 |ddv_scf|^2 =  8.401E-09

      iter #   4 total cpu time :  1254.6 secs   av.it.:   7.7
      thresh= 9.166E-06 alpha_mix =  0.700 |ddv_scf|^2 =  6.825E-11

      iter #   5 total cpu time :  1269.5 secs   av.it.:   7.5
      thresh= 8.261E-07 alpha_mix =  0.700 |ddv_scf|^2 =  6.425E-14

      iter #   6 total cpu time :  1283.8 secs   av.it.:   7.5
      thresh= 2.535E-08 alpha_mix =  0.700 |ddv_scf|^2 =  3.014E-15

      iter #   7 total cpu time :  1298.1 secs   av.it.:   7.5
      thresh= 5.490E-09 alpha_mix =  0.700 |ddv_scf|^2 =  1.112E-17

     End of self-consistent calculation

     Convergence has been achieved 

     Number of q in the star =   24
     List of q in the star:
          1  -0.166666667  -0.166666667   0.333333333
          2  -0.166666667  -0.333333333   0.166666667
          3   0.166666667  -0.333333333   0.166666667
          4  -0.166666667   0.333333333  -0.166666667
          5   0.166666667   0.333333333  -0.166666667
          6   0.166666667   0.166666667  -0.333333333
          7  -0.166666667   0.166666667  -0.333333333
          8   0.333333333   0.166666667  -0.166666667
          9  -0.333333333   0.166666667   0.166666667
         10   0.333333333  -0.166666667   0.166666667
         11  -0.333333333  -0.166666667  -0.166666667
         12  -0.166666667  -0.166666667  -0.333333333
         13  -0.166666667   0.333333333   0.166666667
         14  -0.166666667  -0.333333333  -0.166666667
         15  -0.166666667   0.166666667   0.333333333
         16   0.166666667  -0.166666667   0.333333333
         17   0.166666667  -0.333333333  -0.166666667
         18  -0.333333333   0.166666667  -0.166666667
         19   0.333333333   0.166666667   0.166666667
         20  -0.333333333  -0.166666667   0.166666667
         21   0.333333333  -0.166666667  -0.166666667
         22   0.166666667  -0.166666667  -0.333333333
         23   0.166666667   0.166666667   0.333333333
         24   0.166666667   0.333333333   0.166666667

     Diagonalizing the dynamical matrix

     q = (   -0.166666667  -0.166666667   0.333333333 ) 

 **************************************************************************
     freq (    1) =       1.536755 [THz] =      51.260638 [cm-1]
     freq (    2) =       2.446900 [THz] =      81.619794 [cm-1]
     freq (    3) =       3.985300 [THz] =     132.935295 [cm-1]
 **************************************************************************

     Mode symmetry, C_s (m)     point group:

     freq (  1 -  1) =         51.3  [cm-1]   --> A'                 
     freq (  2 -  2) =         81.6  [cm-1]   --> A''                
     freq (  3 -  3) =        132.9  [cm-1]   --> A'                 

     Calculation of q =   -0.1666667   0.6666667  -0.5000000

   Info: using nr1, nr2, nr3 values from input

   Info: using nr1, nr2, nr3 values from input

     Parallelization info
     --------------------
     sticks:   dense  smooth     PW     G-vecs:    dense   smooth      PW
     Min          61      30     12                 1216      434     107
     Max          62      31     13                 1219      436     109
     Sum         981     487    197                19477     6963    1721



     bravais-lattice index     =            3
     lattice parameter (alat)  =       7.4100  a.u.
     unit-cell volume          =     203.4345 (a.u.)^3
     number of atoms/cell      =            1
     number of atomic types    =            1
     number of electrons       =         9.00
     number of Kohn-Sham states=            9
     kinetic-energy cutoff     =      40.0000  Ry
     charge density cutoff     =     320.0000  Ry
     Exchange-correlation      = SLA  PW   PBE  PBE ( 1  4  3  4 0 0)

     celldm(1)=   7.410000  celldm(2)=   0.000000  celldm(3)=   0.000000
     celldm(4)=   0.000000  celldm(5)=   0.000000  celldm(6)=   0.000000

     crystal axes: (cart. coord. in units of alat)
               a(1) = (   0.500000   0.500000   0.500000 )  
               a(2) = (  -0.500000   0.500000   0.500000 )  
               a(3) = (  -0.500000  -0.500000   0.500000 )  

     reciprocal axes: (cart. coord. in units 2 pi/alat)
               b(1) = (  1.000000  0.000000  1.000000 )  
               b(2) = ( -1.000000  1.000000  0.000000 )  
               b(3) = (  0.000000 -1.000000  1.000000 )  


     PseudoPot. # 1 for Na read from file:
     /home/s1333534/quantum_espresso/qe-6.1/pseudo/Na_pbe_v1.uspp.F.UPF
     MD5 check sum: 76a99c7e9422403d3e93cbc85ab7bccb
     Pseudo is Ultrasoft, Zval =  9.0
     Generated by new atomic code, or converted to UPF format
     Using radial grid of  819 points,  5 beta functions with: 
                l(1) =   0
                l(2) =   0
                l(3) =   1
                l(4) =   1
                l(5) =   2
     Q(r) pseudized with  8 coefficients,  rinner =    1.250   1.250   1.250
                                                       1.250   1.250

     atomic species   valence    mass     pseudopotential
        Na             9.00    22.99000     Na( 1.00)

     48 Sym. Ops., with inversion, found



   Cartesian axes

     site n.     atom                  positions (alat units)
         1           Na  tau(   1) = (   0.0000000   0.0000000   0.0000000  )

     number of k points= 16000  Marzari-Vanderbilt smearing, width (Ry)=  0.0200

     Number of k-points >= 100: set verbosity='high' to print them.

     Dense  grid:    19477 G-vectors     FFT dimensions: (  40,  40,  40)

     Smooth grid:     6963 G-vectors     FFT dimensions: (  25,  25,  25)

     Estimated max dynamical RAM per process >       0.67MB

     Estimated total allocated dynamical RAM >      42.80MB

     The potential is recalculated from file :
     ./_ph0/na.bcc.save/charge-density.dat

     Starting wfc are    5 atomic +    4 random wfc

     Band Structure Calculation
     Davidson diagonalization with overlap

     ethr =  1.11E-10,  avg # of iterations = 19.4

     total cpu time spent up to now is      536.1 secs

     End of band structure calculation

     Number of k-points >= 100: set verbosity='high' to print the bands.

     the Fermi energy is     2.5692 ev

     Writing output data file na.bcc.save

                                                                                

     bravais-lattice index     =            3
     lattice parameter (alat)  =       7.4100  a.u.
     unit-cell volume          =     203.4345 (a.u.)^3
     number of atoms/cell      =            1
     number of atomic types    =            1
     kinetic-energy cut-off    =      40.0000  Ry
     charge density cut-off    =     320.0000  Ry
     convergence threshold     =      1.0E-16
     beta                      =       0.7000
     number of iterations used =            4
     Exchange-correlation      = SLA  PW   PBE  PBE ( 1  4  3  4 0 0)


     celldm(1)=    7.41000  celldm(2)=    0.00000  celldm(3)=    0.00000
     celldm(4)=    0.00000  celldm(5)=    0.00000  celldm(6)=    0.00000

     crystal axes: (cart. coord. in units of alat)
               a(1) = (  0.5000  0.5000  0.5000 )  
               a(2) = ( -0.5000  0.5000  0.5000 )  
               a(3) = ( -0.5000 -0.5000  0.5000 )  

     reciprocal axes: (cart. coord. in units 2 pi/alat)
               b(1) = (  1.0000  0.0000  1.0000 )  
               b(2) = ( -1.0000  1.0000  0.0000 )  
               b(3) = (  0.0000 -1.0000  1.0000 )  


     Atoms inside the unit cell: 

     Cartesian axes

     site n.  atom      mass           positions (alat units)
        1     Na  22.9900   tau(    1) = (    0.00000    0.00000    0.00000  )

     Computing dynamical matrix for 
                    q = (  -0.1666667   0.6666667  -0.5000000 )

     No symmetry!

     G cutoff =  445.0683  (   1217 G-vectors)     FFT grid: ( 40, 40, 40)
     G cutoff =  222.5341  (    436 G-vectors)  smooth grid: ( 25, 25, 25)

     number of k points= 16000  Marzari-Vanderbilt smearing, width (Ry)=  0.0200

     PseudoPot. # 1 for Na read from file:
     /home/s1333534/quantum_espresso/qe-6.1/pseudo/Na_pbe_v1.uspp.F.UPF
     MD5 check sum: 76a99c7e9422403d3e93cbc85ab7bccb
     Pseudo is Ultrasoft, Zval =  9.0
     Generated by new atomic code, or converted to UPF format
     Using radial grid of  819 points,  5 beta functions with: 
                l(1) =   0
                l(2) =   0
                l(3) =   1
                l(4) =   1
                l(5) =   2
     Q(r) pseudized with  8 coefficients,  rinner =    1.250   1.250   1.250
                                                       1.250   1.250

     Mode symmetry, C_1 (1)     point group:


     Atomic displacements:
     There are   3 irreducible representations

     Representation     1      1 modes -A  To be done

     Representation     2      1 modes -A  To be done

     Representation     3      1 modes -A  To be done



     Alpha used in Ewald sum =   2.8000
     PHONON       : 24m 1.74s CPU    26m15.53s WALL



     Representation #  1 mode #   1

     Self-consistent Calculation

      iter #   1 total cpu time :  1602.6 secs   av.it.:   5.7
      thresh= 1.000E-02 alpha_mix =  0.700 |ddv_scf|^2 =  1.366E-05

      iter #   2 total cpu time :  1634.1 secs   av.it.:   8.1
      thresh= 3.696E-04 alpha_mix =  0.700 |ddv_scf|^2 =  1.640E-06

      iter #   3 total cpu time :  1663.9 secs   av.it.:   7.6
      thresh= 1.280E-04 alpha_mix =  0.700 |ddv_scf|^2 =  7.082E-07

      iter #   4 total cpu time :  1692.6 secs   av.it.:   7.3
      thresh= 8.415E-05 alpha_mix =  0.700 |ddv_scf|^2 =  4.351E-09

      iter #   5 total cpu time :  1723.8 secs   av.it.:   7.9
      thresh= 6.597E-06 alpha_mix =  0.700 |ddv_scf|^2 =  3.530E-10

      iter #   6 total cpu time :  1755.0 secs   av.it.:   7.9
      thresh= 1.879E-06 alpha_mix =  0.700 |ddv_scf|^2 =  4.375E-12

      iter #   7 total cpu time :  1786.3 secs   av.it.:   8.4
      thresh= 2.092E-07 alpha_mix =  0.700 |ddv_scf|^2 =  2.685E-13

      iter #   8 total cpu time :  1819.3 secs   av.it.:   8.4
      thresh= 5.182E-08 alpha_mix =  0.700 |ddv_scf|^2 =  1.310E-14

      iter #   9 total cpu time :  1851.9 secs   av.it.:   8.4
      thresh= 1.145E-08 alpha_mix =  0.700 |ddv_scf|^2 =  2.831E-16

      iter #  10 total cpu time :  1882.8 secs   av.it.:   7.6
      thresh= 1.683E-09 alpha_mix =  0.700 |ddv_scf|^2 =  1.303E-16

      iter #  11 total cpu time :  1912.0 secs   av.it.:   7.3
      thresh= 1.142E-09 alpha_mix =  0.700 |ddv_scf|^2 =  2.071E-18

     End of self-consistent calculation

     Convergence has been achieved 


     Representation #  2 mode #   2

     Self-consistent Calculation

      iter #   1 total cpu time :  1940.3 secs   av.it.:   5.8
      thresh= 1.000E-02 alpha_mix =  0.700 |ddv_scf|^2 =  5.814E-05

      iter #   2 total cpu time :  1971.2 secs   av.it.:   7.6
      thresh= 7.625E-04 alpha_mix =  0.700 |ddv_scf|^2 =  4.858E-05

      iter #   3 total cpu time :  1999.1 secs   av.it.:   7.0
      thresh= 6.970E-04 alpha_mix =  0.700 |ddv_scf|^2 =  9.193E-08

      iter #   4 total cpu time :  2031.0 secs   av.it.:   8.3
      thresh= 3.032E-05 alpha_mix =  0.700 |ddv_scf|^2 =  3.742E-09

      iter #   5 total cpu time :  2063.6 secs   av.it.:   8.3
      thresh= 6.118E-06 alpha_mix =  0.700 |ddv_scf|^2 =  3.331E-10

      iter #   6 total cpu time :  2094.7 secs   av.it.:   8.2
      thresh= 1.825E-06 alpha_mix =  0.700 |ddv_scf|^2 =  9.156E-12

      iter #   7 total cpu time :  2125.2 secs   av.it.:   7.8
      thresh= 3.026E-07 alpha_mix =  0.700 |ddv_scf|^2 =  6.049E-13

      iter #   8 total cpu time :  2156.1 secs   av.it.:   7.9
      thresh= 7.778E-08 alpha_mix =  0.700 |ddv_scf|^2 =  2.257E-14

      iter #   9 total cpu time :  2185.7 secs   av.it.:   7.5
      thresh= 1.502E-08 alpha_mix =  0.700 |ddv_scf|^2 =  1.445E-15

      iter #  10 total cpu time :  2215.0 secs   av.it.:   7.5
      thresh= 3.801E-09 alpha_mix =  0.700 |ddv_scf|^2 =  3.213E-17

     End of self-consistent calculation

     Convergence has been achieved 


     Representation #  3 mode #   3

     Self-consistent Calculation

      iter #   1 total cpu time :  2243.4 secs   av.it.:   5.8
      thresh= 1.000E-02 alpha_mix =  0.700 |ddv_scf|^2 =  6.510E-05

      iter #   2 total cpu time :  2273.3 secs   av.it.:   7.5
      thresh= 8.068E-04 alpha_mix =  0.700 |ddv_scf|^2 =  4.892E-05

      iter #   3 total cpu time :  2301.4 secs   av.it.:   7.0
      thresh= 6.995E-04 alpha_mix =  0.700 |ddv_scf|^2 =  3.232E-07

      iter #   4 total cpu time :  2331.8 secs   av.it.:   7.7
      thresh= 5.685E-05 alpha_mix =  0.700 |ddv_scf|^2 =  7.706E-09

      iter #   5 total cpu time :  2363.6 secs   av.it.:   8.3
      thresh= 8.778E-06 alpha_mix =  0.700 |ddv_scf|^2 =  2.130E-10

      iter #   6 total cpu time :  2395.3 secs   av.it.:   8.3
      thresh= 1.459E-06 alpha_mix =  0.700 |ddv_scf|^2 =  1.685E-11

      iter #   7 total cpu time :  2426.9 secs   av.it.:   8.3
      thresh= 4.105E-07 alpha_mix =  0.700 |ddv_scf|^2 =  8.584E-13

      iter #   8 total cpu time :  2458.6 secs   av.it.:   8.4
      thresh= 9.265E-08 alpha_mix =  0.700 |ddv_scf|^2 =  5.361E-14

      iter #   9 total cpu time :  2487.8 secs   av.it.:   7.4
      thresh= 2.315E-08 alpha_mix =  0.700 |ddv_scf|^2 =  3.683E-15

      iter #  10 total cpu time :  2517.6 secs   av.it.:   7.7
      thresh= 6.069E-09 alpha_mix =  0.700 |ddv_scf|^2 =  5.527E-17

     End of self-consistent calculation

     Convergence has been achieved 

     Number of q in the star =   48
     List of q in the star:
          1  -0.166666667   0.666666667  -0.500000000
          2   0.666666667  -0.166666667  -0.500000000
          3  -0.166666667   0.500000000  -0.666666667
          4   0.166666667   0.500000000  -0.666666667
          5  -0.166666667  -0.500000000   0.666666667
          6   0.166666667  -0.500000000   0.666666667
          7   0.166666667  -0.666666667   0.500000000
          8  -0.166666667  -0.666666667   0.500000000
          9  -0.500000000  -0.666666667  -0.166666667
         10   0.500000000  -0.666666667   0.166666667
         11  -0.500000000   0.666666667   0.166666667
         12   0.500000000   0.666666667  -0.166666667
         13   0.666666667  -0.166666667   0.500000000
         14   0.666666667  -0.500000000  -0.166666667
         15  -0.166666667  -0.500000000  -0.666666667
         16  -0.166666667   0.500000000   0.666666667
         17   0.666666667   0.166666667  -0.500000000
         18   0.166666667   0.666666667  -0.500000000
         19   0.666666667   0.500000000   0.166666667
         20  -0.666666667   0.500000000  -0.166666667
         21   0.500000000   0.166666667   0.666666667
         22  -0.500000000   0.166666667  -0.666666667
         23   0.500000000   0.666666667   0.166666667
         24   0.500000000  -0.166666667  -0.666666667
         25  -0.666666667   0.166666667   0.500000000
         26  -0.166666667   0.666666667   0.500000000
         27  -0.500000000  -0.166666667   0.666666667
         28   0.166666667   0.666666667   0.500000000
         29  -0.500000000   0.666666667  -0.166666667
         30  -0.666666667  -0.166666667  -0.500000000
         31  -0.666666667  -0.166666667   0.500000000
         32   0.666666667   0.166666667   0.500000000
         33   0.166666667  -0.666666667  -0.500000000
         34  -0.666666667   0.166666667  -0.500000000
         35   0.500000000  -0.666666667  -0.166666667
         36  -0.500000000  -0.666666667   0.166666667
         37  -0.166666667  -0.666666667  -0.500000000
         38  -0.666666667  -0.500000000   0.166666667
         39   0.166666667   0.500000000   0.666666667
         40   0.166666667  -0.500000000  -0.666666667
         41  -0.666666667   0.500000000   0.166666667
         42   0.666666667   0.500000000  -0.166666667
         43  -0.666666667  -0.500000000  -0.166666667
         44   0.666666667  -0.500000000   0.166666667
         45   0.500000000   0.166666667  -0.666666667
         46   0.500000000  -0.166666667   0.666666667
         47  -0.500000000  -0.166666667  -0.666666667
         48  -0.500000000   0.166666667   0.666666667

     Diagonalizing the dynamical matrix

     q = (   -0.166666667   0.666666667  -0.500000000 ) 

 **************************************************************************
     freq (    1) =       1.854214 [THz] =      61.849910 [cm-1]
     freq (    2) =       3.402081 [THz] =     113.481196 [cm-1]
     freq (    3) =       4.916595 [THz] =     163.999941 [cm-1]
 **************************************************************************

     Mode symmetry, C_1 (1)     point group:

     freq (  1 -  1) =         61.8  [cm-1]   --> A                  
     freq (  2 -  2) =        113.5  [cm-1]   --> A                  
     freq (  3 -  3) =        164.0  [cm-1]   --> A                  

     Calculation of q =   -0.3333333   0.6666667  -0.3333333

   Info: using nr1, nr2, nr3 values from input

   Info: using nr1, nr2, nr3 values from input

     Parallelization info
     --------------------
     sticks:   dense  smooth     PW     G-vecs:    dense   smooth      PW
     Min          61      30     11                 1216      434      99
     Max          62      31     12                 1219      436     101
     Sum         981     487    181                19477     6963    1601



     bravais-lattice index     =            3
     lattice parameter (alat)  =       7.4100  a.u.
     unit-cell volume          =     203.4345 (a.u.)^3
     number of atoms/cell      =            1
     number of atomic types    =            1
     number of electrons       =         9.00
     number of Kohn-Sham states=            9
     kinetic-energy cutoff     =      40.0000  Ry
     charge density cutoff     =     320.0000  Ry
     Exchange-correlation      = SLA  PW   PBE  PBE ( 1  4  3  4 0 0)

     celldm(1)=   7.410000  celldm(2)=   0.000000  celldm(3)=   0.000000
     celldm(4)=   0.000000  celldm(5)=   0.000000  celldm(6)=   0.000000

     crystal axes: (cart. coord. in units of alat)
               a(1) = (   0.500000   0.500000   0.500000 )  
               a(2) = (  -0.500000   0.500000   0.500000 )  
               a(3) = (  -0.500000  -0.500000   0.500000 )  

     reciprocal axes: (cart. coord. in units 2 pi/alat)
               b(1) = (  1.000000  0.000000  1.000000 )  
               b(2) = ( -1.000000  1.000000  0.000000 )  
               b(3) = (  0.000000 -1.000000  1.000000 )  


     PseudoPot. # 1 for Na read from file:
     /home/s1333534/quantum_espresso/qe-6.1/pseudo/Na_pbe_v1.uspp.F.UPF
     MD5 check sum: 76a99c7e9422403d3e93cbc85ab7bccb
     Pseudo is Ultrasoft, Zval =  9.0
     Generated by new atomic code, or converted to UPF format
     Using radial grid of  819 points,  5 beta functions with: 
                l(1) =   0
                l(2) =   0
                l(3) =   1
                l(4) =   1
                l(5) =   2
     Q(r) pseudized with  8 coefficients,  rinner =    1.250   1.250   1.250
                                                       1.250   1.250

     atomic species   valence    mass     pseudopotential
        Na             9.00    22.99000     Na( 1.00)

     48 Sym. Ops., with inversion, found



   Cartesian axes

     site n.     atom                  positions (alat units)
         1           Na  tau(   1) = (   0.0000000   0.0000000   0.0000000  )

     number of k points=  3080  Marzari-Vanderbilt smearing, width (Ry)=  0.0200

     Number of k-points >= 100: set verbosity='high' to print them.

     Dense  grid:    19477 G-vectors     FFT dimensions: (  40,  40,  40)

     Smooth grid:     6963 G-vectors     FFT dimensions: (  25,  25,  25)

     Estimated max dynamical RAM per process >       0.67MB

     Estimated total allocated dynamical RAM >      42.80MB

     The potential is recalculated from file :
     ./_ph0/na.bcc.save/charge-density.dat

     Starting wfc are    5 atomic +    4 random wfc

     Band Structure Calculation
     Davidson diagonalization with overlap

     ethr =  1.11E-10,  avg # of iterations = 19.7

     total cpu time spent up to now is      624.4 secs

     End of band structure calculation

     Number of k-points >= 100: set verbosity='high' to print the bands.

     the Fermi energy is     2.5692 ev

     Writing output data file na.bcc.save

                                                                                

     bravais-lattice index     =            3
     lattice parameter (alat)  =       7.4100  a.u.
     unit-cell volume          =     203.4345 (a.u.)^3
     number of atoms/cell      =            1
     number of atomic types    =            1
     kinetic-energy cut-off    =      40.0000  Ry
     charge density cut-off    =     320.0000  Ry
     convergence threshold     =      1.0E-16
     beta                      =       0.7000
     number of iterations used =            4
     Exchange-correlation      = SLA  PW   PBE  PBE ( 1  4  3  4 0 0)


     celldm(1)=    7.41000  celldm(2)=    0.00000  celldm(3)=    0.00000
     celldm(4)=    0.00000  celldm(5)=    0.00000  celldm(6)=    0.00000

     crystal axes: (cart. coord. in units of alat)
               a(1) = (  0.5000  0.5000  0.5000 )  
               a(2) = ( -0.5000  0.5000  0.5000 )  
               a(3) = ( -0.5000 -0.5000  0.5000 )  

     reciprocal axes: (cart. coord. in units 2 pi/alat)
               b(1) = (  1.0000  0.0000  1.0000 )  
               b(2) = ( -1.0000  1.0000  0.0000 )  
               b(3) = (  0.0000 -1.0000  1.0000 )  


     Atoms inside the unit cell: 

     Cartesian axes

     site n.  atom      mass           positions (alat units)
        1     Na  22.9900   tau(    1) = (    0.00000    0.00000    0.00000  )

     Computing dynamical matrix for 
                    q = (  -0.3333333   0.6666667  -0.3333333 )

      6 Sym.Ops. (no q -> -q+G )


     G cutoff =  445.0683  (   1217 G-vectors)     FFT grid: ( 40, 40, 40)
     G cutoff =  222.5341  (    436 G-vectors)  smooth grid: ( 25, 25, 25)

     number of k points=  3080  Marzari-Vanderbilt smearing, width (Ry)=  0.0200

     PseudoPot. # 1 for Na read from file:
     /home/s1333534/quantum_espresso/qe-6.1/pseudo/Na_pbe_v1.uspp.F.UPF
     MD5 check sum: 76a99c7e9422403d3e93cbc85ab7bccb
     Pseudo is Ultrasoft, Zval =  9.0
     Generated by new atomic code, or converted to UPF format
     Using radial grid of  819 points,  5 beta functions with: 
                l(1) =   0
                l(2) =   0
                l(3) =   1
                l(4) =   1
                l(5) =   2
     Q(r) pseudized with  8 coefficients,  rinner =    1.250   1.250   1.250
                                                       1.250   1.250

     Mode symmetry, C_3v (3m)   point group:


     Atomic displacements:
     There are   2 irreducible representations

     Representation     1      1 modes -A_1  L_1  To be done

     Representation     2      2 modes -E    L_3  To be done



     Alpha used in Ewald sum =   2.8000
     PHONON       : 39m 0.47s CPU    42m52.25s WALL



     Representation #  1 mode #   1

     Self-consistent Calculation

      iter #   1 total cpu time :  2577.2 secs   av.it.:   5.4
      thresh= 1.000E-02 alpha_mix =  0.700 |ddv_scf|^2 =  1.161E-05

      iter #   2 total cpu time :  2582.6 secs   av.it.:   7.8
      thresh= 3.408E-04 alpha_mix =  0.700 |ddv_scf|^2 =  1.832E-07

      iter #   3 total cpu time :  2588.3 secs   av.it.:   8.0
      thresh= 4.280E-05 alpha_mix =  0.700 |ddv_scf|^2 =  7.260E-09

      iter #   4 total cpu time :  2593.7 secs   av.it.:   7.6
      thresh= 8.520E-06 alpha_mix =  0.700 |ddv_scf|^2 =  1.414E-10

      iter #   5 total cpu time :  2599.3 secs   av.it.:   7.5
      thresh= 1.189E-06 alpha_mix =  0.700 |ddv_scf|^2 =  3.758E-12

      iter #   6 total cpu time :  2605.3 secs   av.it.:   8.1
      thresh= 1.939E-07 alpha_mix =  0.700 |ddv_scf|^2 =  1.949E-13

      iter #   7 total cpu time :  2611.2 secs   av.it.:   8.2
      thresh= 4.415E-08 alpha_mix =  0.700 |ddv_scf|^2 =  5.743E-15

      iter #   8 total cpu time :  2616.9 secs   av.it.:   8.0
      thresh= 7.578E-09 alpha_mix =  0.700 |ddv_scf|^2 =  6.004E-17

     End of self-consistent calculation

     Convergence has been achieved 


     Representation #  2 modes #   2  3

     Self-consistent Calculation

      iter #   1 total cpu time :  2627.1 secs   av.it.:   5.7
      thresh= 1.000E-02 alpha_mix =  0.700 |ddv_scf|^2 =  9.189E-06

      iter #   2 total cpu time :  2638.8 secs   av.it.:   8.2
      thresh= 3.031E-04 alpha_mix =  0.700 |ddv_scf|^2 =  1.060E-06

      iter #   3 total cpu time :  2650.2 secs   av.it.:   7.7
      thresh= 1.029E-04 alpha_mix =  0.700 |ddv_scf|^2 =  8.615E-09

      iter #   4 total cpu time :  2663.4 secs   av.it.:   8.6
      thresh= 9.281E-06 alpha_mix =  0.700 |ddv_scf|^2 =  6.330E-11

      iter #   5 total cpu time :  2674.5 secs   av.it.:   7.9
      thresh= 7.956E-07 alpha_mix =  0.700 |ddv_scf|^2 =  7.635E-14

      iter #   6 total cpu time :  2686.0 secs   av.it.:   8.0
      thresh= 2.763E-08 alpha_mix =  0.700 |ddv_scf|^2 =  4.560E-15

      iter #   7 total cpu time :  2697.5 secs   av.it.:   8.2
      thresh= 6.753E-09 alpha_mix =  0.700 |ddv_scf|^2 =  1.263E-17

     End of self-consistent calculation

     Convergence has been achieved 

     Number of q in the star =    8
     List of q in the star:
          1  -0.333333333   0.666666667  -0.333333333
          2   0.333333333  -0.666666667   0.333333333
          3  -0.333333333  -0.666666667   0.333333333
          4  -0.333333333  -0.666666667  -0.333333333
          5  -0.333333333   0.666666667   0.333333333
          6   0.333333333   0.666666667  -0.333333333
          7  -0.666666667   0.333333333  -0.333333333
          8   0.333333333   0.666666667   0.333333333

     Diagonalizing the dynamical matrix

     q = (   -0.333333333   0.666666667  -0.333333333 ) 

 **************************************************************************
     freq (    1) =       2.176624 [THz] =      72.604349 [cm-1]
     freq (    2) =       4.475413 [THz] =     149.283719 [cm-1]
     freq (    3) =       4.475413 [THz] =     149.283719 [cm-1]
 **************************************************************************

     Mode symmetry, C_3v (3m)   point group:

     freq (  1 -  1) =         72.6  [cm-1]   --> A_1  L_1           
     freq (  2 -  3) =        149.3  [cm-1]   --> E    L_3           

     Calculation of q =    0.0000000   0.0000000   0.3333333

   Info: using nr1, nr2, nr3 values from input

   Info: using nr1, nr2, nr3 values from input

     Parallelization info
     --------------------
     sticks:   dense  smooth     PW     G-vecs:    dense   smooth      PW
     Min          61      30     10                 1216      434      88
     Max          62      31     11                 1219      436      91
     Sum         981     487    173                19477     6963    1433



     bravais-lattice index     =            3
     lattice parameter (alat)  =       7.4100  a.u.
     unit-cell volume          =     203.4345 (a.u.)^3
     number of atoms/cell      =            1
     number of atomic types    =            1
     number of electrons       =         9.00
     number of Kohn-Sham states=            9
     kinetic-energy cutoff     =      40.0000  Ry
     charge density cutoff     =     320.0000  Ry
     Exchange-correlation      = SLA  PW   PBE  PBE ( 1  4  3  4 0 0)

     celldm(1)=   7.410000  celldm(2)=   0.000000  celldm(3)=   0.000000
     celldm(4)=   0.000000  celldm(5)=   0.000000  celldm(6)=   0.000000

     crystal axes: (cart. coord. in units of alat)
               a(1) = (   0.500000   0.500000   0.500000 )  
[...]
     G cutoff =  222.5341  (    436 G-vectors)  smooth grid: ( 25, 25, 25)

     number of k points=  4400  Marzari-Vanderbilt smearing, width (Ry)=  0.0200

     PseudoPot. # 1 for Na read from file:
     /home/s1333534/quantum_espresso/qe-6.1/pseudo/Na_pbe_v1.uspp.F.UPF
     MD5 check sum: 76a99c7e9422403d3e93cbc85ab7bccb
     Pseudo is Ultrasoft, Zval =  9.0
     Generated by new atomic code, or converted to UPF format
     Using radial grid of  819 points,  5 beta functions with: 
                l(1) =   0
                l(2) =   0
                l(3) =   1
                l(4) =   1
                l(5) =   2
     Q(r) pseudized with  8 coefficients,  rinner =    1.250   1.250   1.250
                                                       1.250   1.250

     Mode symmetry, C_2v (mm2)  point group:


     Atomic displacements:
     There are   3 irreducible representations

     Representation     1      1 modes -A_1  D_1  S_1  To be done

     Representation     2      1 modes -B_1  D_3  S_3  To be done

     Representation     3      1 modes -B_2  D_4  S_4  To be done



     Alpha used in Ewald sum =   2.8000
     PHONON       :     1h15m CPU        1h22m WALL



     Representation #  1 mode #   1

     Self-consistent Calculation

      iter #   1 total cpu time :  4963.2 secs   av.it.:   5.6
      thresh= 1.000E-02 alpha_mix =  0.700 |ddv_scf|^2 =  2.061E-05

      iter #   2 total cpu time :  4971.4 secs   av.it.:   7.8
      thresh= 4.540E-04 alpha_mix =  0.700 |ddv_scf|^2 =  9.021E-07

      iter #   3 total cpu time :  4979.7 secs   av.it.:   7.7
      thresh= 9.498E-05 alpha_mix =  0.700 |ddv_scf|^2 =  2.101E-08

      iter #   4 total cpu time :  4987.9 secs   av.it.:   8.1
      thresh= 1.450E-05 alpha_mix =  0.700 |ddv_scf|^2 =  1.334E-09

      iter #   5 total cpu time :  4996.0 secs   av.it.:   8.1
      thresh= 3.652E-06 alpha_mix =  0.700 |ddv_scf|^2 =  1.144E-10

      iter #   6 total cpu time :  5004.0 secs   av.it.:   7.9
      thresh= 1.070E-06 alpha_mix =  0.700 |ddv_scf|^2 =  5.351E-13

      iter #   7 total cpu time :  5011.9 secs   av.it.:   7.9
      thresh= 7.315E-08 alpha_mix =  0.700 |ddv_scf|^2 =  4.173E-14

      iter #   8 total cpu time :  5020.1 secs   av.it.:   8.0
      thresh= 2.043E-08 alpha_mix =  0.700 |ddv_scf|^2 =  6.651E-17

     End of self-consistent calculation

     Convergence has been achieved 


     Representation #  2 mode #   2

     Self-consistent Calculation

      iter #   1 total cpu time :  5027.2 secs   av.it.:   5.5
      thresh= 1.000E-02 alpha_mix =  0.700 |ddv_scf|^2 =  1.771E-05

      iter #   2 total cpu time :  5035.1 secs   av.it.:   7.7
      thresh= 4.209E-04 alpha_mix =  0.700 |ddv_scf|^2 =  2.098E-07

      iter #   3 total cpu time :  5042.8 secs   av.it.:   7.6
      thresh= 4.581E-05 alpha_mix =  0.700 |ddv_scf|^2 =  1.999E-08

      iter #   4 total cpu time :  5050.7 secs   av.it.:   7.7
      thresh= 1.414E-05 alpha_mix =  0.700 |ddv_scf|^2 =  8.786E-11

      iter #   5 total cpu time :  5058.5 secs   av.it.:   7.6
      thresh= 9.374E-07 alpha_mix =  0.700 |ddv_scf|^2 =  4.186E-14

      iter #   6 total cpu time :  5065.7 secs   av.it.:   7.0
      thresh= 2.046E-08 alpha_mix =  0.700 |ddv_scf|^2 =  2.794E-15

      iter #   7 total cpu time :  5074.4 secs   av.it.:   7.4
      thresh= 5.286E-09 alpha_mix =  0.700 |ddv_scf|^2 =  4.819E-18

     End of self-consistent calculation

     Convergence has been achieved 


     Representation #  3 mode #   3

     Self-consistent Calculation

      iter #   1 total cpu time :  5081.8 secs   av.it.:   5.7
      thresh= 1.000E-02 alpha_mix =  0.700 |ddv_scf|^2 =  3.035E-05

      iter #   2 total cpu time :  5089.6 secs   av.it.:   7.6
      thresh= 5.509E-04 alpha_mix =  0.700 |ddv_scf|^2 =  2.132E-06

      iter #   3 total cpu time :  5097.1 secs   av.it.:   7.3
      thresh= 1.460E-04 alpha_mix =  0.700 |ddv_scf|^2 =  2.971E-08

      iter #   4 total cpu time :  5105.1 secs   av.it.:   7.8
      thresh= 1.724E-05 alpha_mix =  0.700 |ddv_scf|^2 =  8.817E-10

      iter #   5 total cpu time :  5113.1 secs   av.it.:   7.4
      thresh= 2.969E-06 alpha_mix =  0.700 |ddv_scf|^2 =  1.596E-12

      iter #   6 total cpu time :  5121.1 secs   av.it.:   7.9
      thresh= 1.263E-07 alpha_mix =  0.700 |ddv_scf|^2 =  1.049E-14

      iter #   7 total cpu time :  5129.0 secs   av.it.:   7.8
      thresh= 1.024E-08 alpha_mix =  0.700 |ddv_scf|^2 =  1.861E-16

      iter #   8 total cpu time :  5136.7 secs   av.it.:   7.5
      thresh= 1.364E-09 alpha_mix =  0.700 |ddv_scf|^2 =  2.772E-19

     End of self-consistent calculation

     Convergence has been achieved 

     Number of q in the star =   12
     List of q in the star:
          1   0.000000000   0.833333333  -0.166666667
          2   0.000000000  -0.833333333  -0.166666667
          3   0.833333333   0.000000000  -0.166666667
          4  -0.833333333   0.000000000  -0.166666667
          5  -0.166666667  -0.833333333   0.000000000
          6   0.166666667  -0.833333333   0.000000000
          7  -0.166666667   0.833333333   0.000000000
          8   0.166666667   0.833333333   0.000000000
          9   0.833333333   0.000000000   0.166666667
         10   0.000000000   0.166666667  -0.833333333
         11   0.000000000  -0.166666667  -0.833333333
         12   0.166666667   0.000000000  -0.833333333

     Diagonalizing the dynamical matrix

     q = (    0.000000000   0.833333333  -0.166666667 ) 

 **************************************************************************
     freq (    1) =       3.975740 [THz] =     132.616410 [cm-1]
     freq (    2) =       4.311128 [THz] =     143.803747 [cm-1]
     freq (    3) =       4.775610 [THz] =     159.297190 [cm-1]
 **************************************************************************

     Mode symmetry, C_2v (mm2)  point group:

     freq (  1 -  1) =        132.6  [cm-1]   --> A_1  D_1  S_1      
     freq (  2 -  2) =        143.8  [cm-1]   --> B_1  D_3  S_3      
     freq (  3 -  3) =        159.3  [cm-1]   --> B_2  D_4  S_4      

     Calculation of q =    0.0000000   0.0000000  -1.0000000

   Info: using nr1, nr2, nr3 values from input

   Info: using nr1, nr2, nr3 values from input

     Parallelization info
     --------------------
     sticks:   dense  smooth     PW     G-vecs:    dense   smooth      PW
     Min          61      30     11                 1216      434      96
     Max          62      31     12                 1219      436      98
     Sum         981     487    181                19477     6963    1553



     bravais-lattice index     =            3
     lattice parameter (alat)  =       7.4100  a.u.
     unit-cell volume          =     203.4345 (a.u.)^3
     number of atoms/cell      =            1
     number of atomic types    =            1
     number of electrons       =         9.00
     number of Kohn-Sham states=            9
     kinetic-energy cutoff     =      40.0000  Ry
     charge density cutoff     =     320.0000  Ry
     Exchange-correlation      = SLA  PW   PBE  PBE ( 1  4  3  4 0 0)

     celldm(1)=   7.410000  celldm(2)=   0.000000  celldm(3)=   0.000000
     celldm(4)=   0.000000  celldm(5)=   0.000000  celldm(6)=   0.000000

     crystal axes: (cart. coord. in units of alat)
               a(1) = (   0.500000   0.500000   0.500000 )  
               a(2) = (  -0.500000   0.500000   0.500000 )  
               a(3) = (  -0.500000  -0.500000   0.500000 )  

     reciprocal axes: (cart. coord. in units 2 pi/alat)
               b(1) = (  1.000000  0.000000  1.000000 )  
               b(2) = ( -1.000000  1.000000  0.000000 )  
               b(3) = (  0.000000 -1.000000  1.000000 )  


     PseudoPot. # 1 for Na read from file:
     /home/s1333534/quantum_espresso/qe-6.1/pseudo/Na_pbe_v1.uspp.F.UPF
     MD5 check sum: 76a99c7e9422403d3e93cbc85ab7bccb
     Pseudo is Ultrasoft, Zval =  9.0
     Generated by new atomic code, or converted to UPF format
     Using radial grid of  819 points,  5 beta functions with: 
                l(1) =   0
                l(2) =   0
                l(3) =   1
                l(4) =   1
                l(5) =   2
     Q(r) pseudized with  8 coefficients,  rinner =    1.250   1.250   1.250
                                                       1.250   1.250

     atomic species   valence    mass     pseudopotential
        Na             9.00    22.99000     Na( 1.00)

     48 Sym. Ops., with inversion, found



   Cartesian axes

     site n.     atom                  positions (alat units)
         1           Na  tau(   1) = (   0.0000000   0.0000000   0.0000000  )

     number of k points=   500  Marzari-Vanderbilt smearing, width (Ry)=  0.0200

     Number of k-points >= 100: set verbosity='high' to print them.

     Dense  grid:    19477 G-vectors     FFT dimensions: (  40,  40,  40)

     Smooth grid:     6963 G-vectors     FFT dimensions: (  25,  25,  25)

     Estimated max dynamical RAM per process >       0.67MB

     Estimated total allocated dynamical RAM >      42.80MB

     The potential is recalculated from file :
     ./_ph0/na.bcc.save/charge-density.dat

     Starting wfc are    5 atomic +    4 random wfc

     Band Structure Calculation
     Davidson diagonalization with overlap

     ethr =  1.11E-10,  avg # of iterations = 19.8

     total cpu time spent up to now is     1269.9 secs

     End of band structure calculation

     Number of k-points >= 100: set verbosity='high' to print the bands.

     the Fermi energy is     2.5692 ev

     Writing output data file na.bcc.save

                                                                                

     bravais-lattice index     =            3
     lattice parameter (alat)  =       7.4100  a.u.
     unit-cell volume          =     203.4345 (a.u.)^3
     number of atoms/cell      =            1
     number of atomic types    =            1
     kinetic-energy cut-off    =      40.0000  Ry
     charge density cut-off    =     320.0000  Ry
     convergence threshold     =      1.0E-16
     beta                      =       0.7000
     number of iterations used =            4
     Exchange-correlation      = SLA  PW   PBE  PBE ( 1  4  3  4 0 0)


     celldm(1)=    7.41000  celldm(2)=    0.00000  celldm(3)=    0.00000
     celldm(4)=    0.00000  celldm(5)=    0.00000  celldm(6)=    0.00000

     crystal axes: (cart. coord. in units of alat)
               a(1) = (  0.5000  0.5000  0.5000 )  
               a(2) = ( -0.5000  0.5000  0.5000 )  
               a(3) = ( -0.5000 -0.5000  0.5000 )  

     reciprocal axes: (cart. coord. in units 2 pi/alat)
               b(1) = (  1.0000  0.0000  1.0000 )  
               b(2) = ( -1.0000  1.0000  0.0000 )  
               b(3) = (  0.0000 -1.0000  1.0000 )  


     Atoms inside the unit cell: 

     Cartesian axes

     site n.  atom      mass           positions (alat units)
        1     Na  22.9900   tau(    1) = (    0.00000    0.00000    0.00000  )

     Computing dynamical matrix for 
                    q = (   0.0000000   0.0000000  -1.0000000 )

     49 Sym.Ops. (with q -> -q+G )


     G cutoff =  445.0683  (   1217 G-vectors)     FFT grid: ( 40, 40, 40)
     G cutoff =  222.5341  (    436 G-vectors)  smooth grid: ( 25, 25, 25)

     number of k points=   500  Marzari-Vanderbilt smearing, width (Ry)=  0.0200

     PseudoPot. # 1 for Na read from file:
     /home/s1333534/quantum_espresso/qe-6.1/pseudo/Na_pbe_v1.uspp.F.UPF
     MD5 check sum: 76a99c7e9422403d3e93cbc85ab7bccb
     Pseudo is Ultrasoft, Zval =  9.0
     Generated by new atomic code, or converted to UPF format
     Using radial grid of  819 points,  5 beta functions with: 
                l(1) =   0
                l(2) =   0
                l(3) =   1
                l(4) =   1
                l(5) =   2
     Q(r) pseudized with  8 coefficients,  rinner =    1.250   1.250   1.250
                                                       1.250   1.250

     Mode symmetry, O_h (m-3m)  point group:


     Atomic displacements:
     There are   1 irreducible representations

     Representation     1      3 modes -T_1u G_15  G_4-  To be done



     Alpha used in Ewald sum =   2.8000
     PHONON       :     1h17m CPU        1h25m WALL



     Representation #  1 modes #   1  2  3

     Self-consistent Calculation

      iter #   1 total cpu time :  5149.6 secs   av.it.:   5.7
      thresh= 1.000E-02 alpha_mix =  0.700 |ddv_scf|^2 =  2.201E-06

      iter #   2 total cpu time :  5153.6 secs   av.it.:   8.5
      thresh= 1.484E-04 alpha_mix =  0.700 |ddv_scf|^2 =  3.000E-08

      iter #   3 total cpu time :  5157.5 secs   av.it.:   8.4
      thresh= 1.732E-05 alpha_mix =  0.700 |ddv_scf|^2 =  2.574E-09

      iter #   4 total cpu time :  5161.5 secs   av.it.:   8.5
      thresh= 5.073E-06 alpha_mix =  0.700 |ddv_scf|^2 =  1.053E-11

      iter #   5 total cpu time :  5165.7 secs   av.it.:   8.3
      thresh= 3.245E-07 alpha_mix =  0.700 |ddv_scf|^2 =  3.759E-15

      iter #   6 total cpu time :  5169.3 secs   av.it.:   7.3
      thresh= 6.131E-09 alpha_mix =  0.700 |ddv_scf|^2 =  2.645E-16

      iter #   7 total cpu time :  5173.1 secs   av.it.:   8.0
      thresh= 1.626E-09 alpha_mix =  0.700 |ddv_scf|^2 =  2.342E-19

     End of self-consistent calculation

     Convergence has been achieved 

     Number of q in the star =    1
     List of q in the star:
          1   0.000000000   0.000000000  -1.000000000

     Diagonalizing the dynamical matrix

     q = (    0.000000000   0.000000000  -1.000000000 ) 

 **************************************************************************
     freq (    1) =       4.639450 [THz] =     154.755396 [cm-1]
     freq (    2) =       4.639450 [THz] =     154.755396 [cm-1]
     freq (    3) =       4.639450 [THz] =     154.755396 [cm-1]
 **************************************************************************

     Mode symmetry, O_h (m-3m)  point group:

     freq (  1 -  3) =        154.8  [cm-1]   --> T_1u G_15  G_4-    

     init_run     :      2.18s CPU      2.32s WALL (      15 calls)
     electrons    :    971.99s CPU   1036.97s WALL (      15 calls)

     Called by init_run:
     wfcinit      :      0.00s CPU      0.01s WALL (      15 calls)
     potinit      :      0.40s CPU      0.41s WALL (      15 calls)

     Called by electrons:
     c_bands      :    971.57s CPU   1036.53s WALL (      15 calls)
     v_of_rho     :      0.16s CPU      0.16s WALL (      16 calls)
     newd         :      0.13s CPU      0.13s WALL (      16 calls)

     Called by c_bands:
     init_us_2    :     22.62s CPU     24.86s WALL (  336489 calls)
     cegterg      :    750.78s CPU    807.92s WALL (   24342 calls)

     Called by sum_band:

     Called by *egterg:
     h_psi        :   2519.51s CPU   2774.67s WALL ( 3101327 calls)
     s_psi        :     88.75s CPU     99.67s WALL ( 6047187 calls)
     g_psi        :      2.58s CPU      2.82s WALL (  374130 calls)
     cdiaghg      :    242.36s CPU    259.12s WALL (  393392 calls)

     Called by h_psi:
     h_psi:pot    :   2497.74s CPU   2750.07s WALL ( 3101327 calls)
     h_psi:calbec :    190.96s CPU    209.32s WALL ( 3101327 calls)
     vloc_psi     :   2226.20s CPU   2451.87s WALL ( 3101327 calls)
     add_vuspsi   :     47.89s CPU     53.55s WALL ( 3101327 calls)

     General routines
     calbec       :    349.20s CPU    384.05s WALL ( 6590391 calls)
     fft          :      3.89s CPU      4.63s WALL (    6346 calls)
     ffts         :      3.27s CPU      3.62s WALL (   30429 calls)
     fftw         :   2403.64s CPU   2664.15s WALL (29921524 calls)
     interpolate  :      0.57s CPU      1.03s WALL (     870 calls)
     davcio       :     31.31s CPU     56.87s WALL ( 1369453 calls)

     Parallel routines
     fft_scatter  :   1366.30s CPU   1514.01s WALL (29958299 calls)

     PHONON       :     1h18m CPU        1h26m WALL

     INITIALIZATION: 
     phq_setup    :      0.88s CPU      0.91s WALL (      16 calls)
     phq_init     :     52.14s CPU     56.43s WALL (      16 calls)

     phq_init     :     52.14s CPU     56.43s WALL (      16 calls)
     init_vloc    :      0.10s CPU      0.10s WALL (      16 calls)
     init_us_1    :      1.11s CPU      1.20s WALL (      16 calls)
     newd         :      0.13s CPU      0.13s WALL (      16 calls)
     dvanqq       :      0.54s CPU      0.55s WALL (      16 calls)
     drho         :     38.99s CPU     42.53s WALL (      16 calls)

     DYNAMICAL MATRIX:
     dynmat0      :      8.28s CPU      8.66s WALL (      16 calls)
     phqscf       :   3441.77s CPU   3841.09s WALL (      16 calls)
     dynmatrix    :      0.09s CPU      0.12s WALL (      16 calls)

     phqscf       :   3441.77s CPU   3841.09s WALL (      16 calls)
     solve_linter :   3429.56s CPU   3827.75s WALL (      40 calls)
     drhodv       :     11.99s CPU     12.90s WALL (      40 calls)

     dynmat0      :      8.28s CPU      8.66s WALL (      16 calls)
     dynmat_us    :      8.23s CPU      8.60s WALL (      16 calls)
     d2ionq       :      0.01s CPU      0.02s WALL (      16 calls)

     dynmat_us    :      8.23s CPU      8.60s WALL (      16 calls)
     addusdynmat  :      0.00s CPU      0.00s WALL (      16 calls)

     phqscf       :   3441.77s CPU   3841.09s WALL (      16 calls)
     solve_linter :   3429.56s CPU   3827.75s WALL (      40 calls)

     solve_linter :   3429.56s CPU   3827.75s WALL (      40 calls)
     dvqpsi_us    :     62.57s CPU     68.16s WALL (   29082 calls)
     ortho        :     50.32s CPU     54.81s WALL (  262267 calls)
     cgsolve      :   2685.11s CPU   2974.26s WALL (  262267 calls)
     incdrhoscf   :    252.43s CPU    295.05s WALL (  262267 calls)
     addusddens   :      4.03s CPU      4.15s WALL (     381 calls)
     vpsifft      :    193.77s CPU    215.41s WALL (  233185 calls)
     dv_of_drho   :      3.02s CPU      3.29s WALL (     395 calls)
     mix_pot      :      1.39s CPU      5.30s WALL (     341 calls)
     ef_shift     :      0.03s CPU      0.03s WALL (       7 calls)
     localdos     :      0.06s CPU      0.09s WALL (       1 calls)
     psymdvscf    :     28.91s CPU     29.46s WALL (     310 calls)
     newdq        :      4.02s CPU      4.06s WALL (     341 calls)
     adddvscf     :     13.80s CPU     15.19s WALL (  233185 calls)
     drhodvus     :      0.01s CPU      0.01s WALL (      40 calls)

     dvqpsi_us    :     62.57s CPU     68.16s WALL (   29082 calls)
     dvqpsi_us_on :     13.56s CPU     14.44s WALL (   29082 calls)

     cgsolve      :   2685.11s CPU   2974.26s WALL (  262267 calls)
     ch_psi       :   2500.01s CPU   2768.22s WALL ( 2683593 calls)

     ch_psi       :   2500.01s CPU   2768.22s WALL ( 2683593 calls)
     h_psi        :   2519.51s CPU   2774.67s WALL ( 3101327 calls)
     last         :    319.03s CPU    353.17s WALL ( 2683593 calls)

     h_psi        :   2519.51s CPU   2774.67s WALL ( 3101327 calls)
     add_vuspsi   :     47.89s CPU     53.55s WALL ( 3101327 calls)

     incdrhoscf   :    252.43s CPU    295.05s WALL (  262267 calls)
     addusdbec    :     25.31s CPU     28.02s WALL (  291349 calls)

     drhodvus     :      0.01s CPU      0.01s WALL (      40 calls)

      General routines
     calbec       :    349.20s CPU    384.05s WALL ( 6590391 calls)
     fft          :      3.89s CPU      4.63s WALL (    6346 calls)
     ffts         :      3.27s CPU      3.62s WALL (   30429 calls)
     fftw         :   2403.64s CPU   2664.15s WALL (29921524 calls)
     davcio       :     31.31s CPU     56.87s WALL ( 1369453 calls)
     write_rec    :      1.31s CPU      5.58s WALL (     381 calls)


     PHONON       :     1h18m CPU        1h26m WALL


   This run was terminated on:  13:36:27  13Feb2018            

=------------------------------------------------------------------------------=
   JOB DONE.
=------------------------------------------------------------------------------=
