
     Program PWSCF v.6.1 (svn rev. 13369) starts on 13Feb2018 at 12:10: 6 

     This program is part of the open-source Quantum ESPRESSO suite
     for quantum simulation of materials; please cite
         "P. Giannozzi et al., J. Phys.:Condens. Matter 21 395502 (2009);
          URL http://www.quantum-espresso.org", 
     in publications or presentations arising from this work. More details at
     http://www.quantum-espresso.org/quote

     Parallel version (MPI), running on    64 processors
     K-points division:     npool     =       4
     R & G space division:  proc/nbgrp/npool/nimage =      16
     Waiting for input...
     Reading input from standard input

     Current dimensions of program PWSCF are:
     Max number of different atomic species (ntypx) = 10
     Max number of k-points (npk) =  80000
     Max angular momentum in pseudopotentials (lmaxx) =  3

     Subspace diagonalization in iterative solution of the eigenvalue problem:
     a serial algorithm will be used


     Parallelization info
     --------------------
     sticks:   dense  smooth     PW     G-vecs:    dense   smooth      PW
     Min          61      30      9                 1216      434      76
     Max          62      31     10                 1219      436      79
     Sum         981     487    159                19477     6963    1253



     bravais-lattice index     =            3
     lattice parameter (alat)  =       7.4100  a.u.
     unit-cell volume          =     203.4345 (a.u.)^3
     number of atoms/cell      =            1
     number of atomic types    =            1
     number of electrons       =         9.00
     number of Kohn-Sham states=            9
     kinetic-energy cutoff     =      40.0000  Ry
     charge density cutoff     =     320.0000  Ry
     convergence threshold     =      1.0E-10
     mixing beta               =       0.7000
     number of iterations used =            8  plain     mixing
     Exchange-correlation      = SLA  PW   PBE  PBE ( 1  4  3  4 0 0)

     celldm(1)=   7.410000  celldm(2)=   0.000000  celldm(3)=   0.000000
     celldm(4)=   0.000000  celldm(5)=   0.000000  celldm(6)=   0.000000

     crystal axes: (cart. coord. in units of alat)
               a(1) = (   0.500000   0.500000   0.500000 )  
               a(2) = (  -0.500000   0.500000   0.500000 )  
               a(3) = (  -0.500000  -0.500000   0.500000 )  

     reciprocal axes: (cart. coord. in units 2 pi/alat)
               b(1) = (  1.000000  0.000000  1.000000 )  
               b(2) = ( -1.000000  1.000000  0.000000 )  
               b(3) = (  0.000000 -1.000000  1.000000 )  


     PseudoPot. # 1 for Na read from file:
     /home/s1333534/quantum_espresso/qe-6.1/pseudo/Na_pbe_v1.uspp.F.UPF
     MD5 check sum: 76a99c7e9422403d3e93cbc85ab7bccb
     Pseudo is Ultrasoft, Zval =  9.0
     Generated by new atomic code, or converted to UPF format
     Using radial grid of  819 points,  5 beta functions with: 
                l(1) =   0
                l(2) =   0
                l(3) =   1
                l(4) =   1
                l(5) =   2
     Q(r) pseudized with  8 coefficients,  rinner =    1.250   1.250   1.250
                                                       1.250   1.250

     atomic species   valence    mass     pseudopotential
        Na             9.00    22.99000     Na( 1.00)

     48 Sym. Ops., with inversion, found



   Cartesian axes

     site n.     atom                  positions (alat units)
         1           Na  tau(   1) = (   0.0000000   0.0000000   0.0000000  )

     number of k points=   250  Marzari-Vanderbilt smearing, width (Ry)=  0.0200

     Number of k-points >= 100: set verbosity='high' to print them.

     Dense  grid:    19477 G-vectors     FFT dimensions: (  40,  40,  40)

     Smooth grid:     6963 G-vectors     FFT dimensions: (  25,  25,  25)

     Estimated max dynamical RAM per process >       1.40MB

     Estimated total allocated dynamical RAM >      89.41MB

     Initial potential from superposition of free atoms

     starting charge    8.99371, renormalised to    9.00000
     Starting wfc are    5 randomized atomic wfcs +    4 random wfc

     total cpu time spent up to now is        0.6 secs

     per-process dynamical memory:     6.9 Mb

     Self-consistent Calculation

     iteration #  1     ecut=    40.00 Ry     beta=0.70
     Davidson diagonalization with overlap
     ethr =  1.00E-02,  avg # of iterations =  5.6

     Threshold (ethr) on eigenvalues was too large:
     Diagonalizing with lowered threshold

     Davidson diagonalization with overlap
     ethr =  1.13E-05,  avg # of iterations =  4.0

     total cpu time spent up to now is        2.5 secs

     total energy              =     -95.10329365 Ry
     Harris-Foulkes estimate   =     -95.10362805 Ry
     estimated scf accuracy    <       0.00101483 Ry

     iteration #  2     ecut=    40.00 Ry     beta=0.70
     Davidson diagonalization with overlap
     ethr =  1.13E-05,  avg # of iterations =  2.0

     total cpu time spent up to now is        3.1 secs

     total energy              =     -95.10341968 Ry
     Harris-Foulkes estimate   =     -95.10344855 Ry
     estimated scf accuracy    <       0.00011411 Ry

     iteration #  3     ecut=    40.00 Ry     beta=0.70
     Davidson diagonalization with overlap
     ethr =  1.27E-06,  avg # of iterations =  2.1

     total cpu time spent up to now is        3.8 secs

     total energy              =     -95.10343269 Ry
     Harris-Foulkes estimate   =     -95.10343396 Ry
     estimated scf accuracy    <       0.00000693 Ry

     iteration #  4     ecut=    40.00 Ry     beta=0.70
     Davidson diagonalization with overlap
     ethr =  7.70E-08,  avg # of iterations =  1.0

     total cpu time spent up to now is        4.3 secs

     total energy              =     -95.10343331 Ry
     Harris-Foulkes estimate   =     -95.10343326 Ry
     estimated scf accuracy    <          9.4E-09 Ry

     iteration #  5     ecut=    40.00 Ry     beta=0.70
     Davidson diagonalization with overlap
     ethr =  1.05E-10,  avg # of iterations =  3.0

     total cpu time spent up to now is        5.0 secs

     total energy              =     -95.10343334 Ry
     Harris-Foulkes estimate   =     -95.10343334 Ry
     estimated scf accuracy    <          1.4E-09 Ry

     iteration #  6     ecut=    40.00 Ry     beta=0.70
     Davidson diagonalization with overlap
     ethr =  1.50E-11,  avg # of iterations =  1.6

     total cpu time spent up to now is        5.5 secs

     End of self-consistent calculation

     Number of k-points >= 100: set verbosity='high' to print the bands.

     the Fermi energy is     2.5692 ev

!    total energy              =     -95.10343334 Ry
     Harris-Foulkes estimate   =     -95.10343334 Ry
     estimated scf accuracy    <          2.0E-11 Ry

     The total energy is the sum of the following terms:

     one-electron contribution =     -83.50093975 Ry
     hartree contribution      =      42.47555948 Ry
     xc contribution           =     -14.29685663 Ry
     ewald contribution        =     -39.78109439 Ry
     smearing contrib. (-TS)   =      -0.00010206 Ry

     convergence has been achieved in   6 iterations


     Computing stress (Cartesian axis) and pressure

          total   stress  (Ry/bohr**3)                   (kbar)     P=   19.82
   0.00013475  -0.00000000   0.00000000         19.82     -0.00      0.00
  -0.00000000   0.00013475  -0.00000000         -0.00     19.82     -0.00
   0.00000000  -0.00000000   0.00013475          0.00     -0.00     19.82


     Writing output data file na.bcc.save

     init_run     :      0.29s CPU      0.33s WALL (       1 calls)
     electrons    :      4.52s CPU      4.94s WALL (       1 calls)
     stress       :      0.18s CPU      0.19s WALL (       1 calls)

     Called by init_run:
     wfcinit      :      0.13s CPU      0.14s WALL (       1 calls)
     potinit      :      0.02s CPU      0.03s WALL (       1 calls)

     Called by electrons:
     c_bands      :      3.78s CPU      4.15s WALL (       7 calls)
     sum_band     :      0.58s CPU      0.62s WALL (       7 calls)
     v_of_rho     :      0.08s CPU      0.08s WALL (       7 calls)
     newd         :      0.05s CPU      0.06s WALL (       7 calls)
     mix_rho      :      0.01s CPU      0.01s WALL (       7 calls)

     Called by c_bands:
     init_us_2    :      0.07s CPU      0.07s WALL (    1008 calls)
     cegterg      :      3.20s CPU      3.56s WALL (     441 calls)

     Called by sum_band:
     sum_band:bec :      0.00s CPU      0.00s WALL (     441 calls)
     addusdens    :      0.07s CPU      0.08s WALL (       7 calls)

     Called by *egterg:
     h_psi        :      2.09s CPU      2.30s WALL (    1754 calls)
     s_psi        :      0.03s CPU      0.03s WALL (    1754 calls)
     g_psi        :      0.01s CPU      0.01s WALL (    1250 calls)
     cdiaghg      :      0.72s CPU      0.79s WALL (    1628 calls)

     Called by h_psi:
     h_psi:pot    :      2.08s CPU      2.28s WALL (    1754 calls)
     h_psi:calbec :      0.11s CPU      0.12s WALL (    1754 calls)
     vloc_psi     :      1.92s CPU      2.11s WALL (    1754 calls)
     add_vuspsi   :      0.03s CPU      0.04s WALL (    1754 calls)

     General routines
     calbec       :      0.15s CPU      0.16s WALL (    2258 calls)
     fft          :      0.08s CPU      0.09s WALL (     117 calls)
     ffts         :      0.00s CPU      0.00s WALL (      14 calls)
     fftw         :      1.98s CPU      2.17s WALL (   25667 calls)
     interpolate  :      0.01s CPU      0.01s WALL (      14 calls)
     davcio       :      0.00s CPU      0.02s WALL (      63 calls)

     Parallel routines
     fft_scatter  :      1.15s CPU      1.27s WALL (   25798 calls)

     PWSCF        :     6.23s CPU         6.79s WALL


   This run was terminated on:  12:10:13  13Feb2018            

=------------------------------------------------------------------------------=
   JOB DONE.
=------------------------------------------------------------------------------=
