
     Program PWSCF v.6.1 (svn rev. 13369) starts on 31Jan2018 at  0:48:19 

     This program is part of the open-source Quantum ESPRESSO suite
     for quantum simulation of materials; please cite
         "P. Giannozzi et al., J. Phys.:Condens. Matter 21 395502 (2009);
          URL http://www.quantum-espresso.org", 
     in publications or presentations arising from this work. More details at
     http://www.quantum-espresso.org/quote

     Parallel version (MPI), running on    64 processors
     K-points division:     npool     =       4
     R & G space division:  proc/nbgrp/npool/nimage =      16
     Waiting for input...
     Reading input from standard input

     Current dimensions of program PWSCF are:
     Max number of different atomic species (ntypx) = 10
     Max number of k-points (npk) =  80000
     Max angular momentum in pseudopotentials (lmaxx) =  3

     Subspace diagonalization in iterative solution of the eigenvalue problem:
     a serial algorithm will be used


     Parallelization info
     --------------------
     sticks:   dense  smooth     PW     G-vecs:    dense   smooth      PW
     Min          50      24      8                  911      315      59
     Max          51      25      9                  912      319      62
     Sum         809     399    129                14579     5089     959



     bravais-lattice index     =            3
     lattice parameter (alat)  =       6.6862  a.u.
     unit-cell volume          =     149.4567 (a.u.)^3
     number of atoms/cell      =            1
     number of atomic types    =            1
     number of electrons       =         9.00
     number of Kohn-Sham states=            9
     kinetic-energy cutoff     =      40.0000  Ry
     charge density cutoff     =     320.0000  Ry
     convergence threshold     =      1.0E-10
     mixing beta               =       0.7000
     number of iterations used =            8  plain     mixing
     Exchange-correlation      = SLA  PW   PBE  PBE ( 1  4  3  4 0 0)

     celldm(1)=   6.686237  celldm(2)=   0.000000  celldm(3)=   0.000000
     celldm(4)=   0.000000  celldm(5)=   0.000000  celldm(6)=   0.000000

     crystal axes: (cart. coord. in units of alat)
               a(1) = (   0.500000   0.500000   0.500000 )  
               a(2) = (  -0.500000   0.500000   0.500000 )  
               a(3) = (  -0.500000  -0.500000   0.500000 )  

     reciprocal axes: (cart. coord. in units 2 pi/alat)
               b(1) = (  1.000000  0.000000  1.000000 )  
               b(2) = ( -1.000000  1.000000  0.000000 )  
               b(3) = (  0.000000 -1.000000  1.000000 )  


     PseudoPot. # 1 for Na read from file:
     /home/s1333534/quantum_espresso/qe-6.1/pseudo/Na_pbe_v1.uspp.F.UPF
     MD5 check sum: 76a99c7e9422403d3e93cbc85ab7bccb
     Pseudo is Ultrasoft, Zval =  9.0
     Generated by new atomic code, or converted to UPF format
     Using radial grid of  819 points,  5 beta functions with: 
                l(1) =   0
                l(2) =   0
                l(3) =   1
                l(4) =   1
                l(5) =   2
     Q(r) pseudized with  8 coefficients,  rinner =    1.250   1.250   1.250
                                                       1.250   1.250

     atomic species   valence    mass     pseudopotential
        Na             9.00    22.99000     Na( 1.00)

     48 Sym. Ops., with inversion, found



   Cartesian axes

     site n.     atom                  positions (alat units)
         1           Na  tau(   1) = (   0.0000000   0.0000000   0.0000000  )

     number of k points=   250  Marzari-Vanderbilt smearing, width (Ry)=  0.0200

     Number of k-points >= 100: set verbosity='high' to print them.

     Dense  grid:    14579 G-vectors     FFT dimensions: (  36,  36,  36)

     Smooth grid:     5089 G-vectors     FFT dimensions: (  24,  24,  24)

     Estimated max dynamical RAM per process >       1.06MB

     Estimated total allocated dynamical RAM >      67.97MB

     Initial potential from superposition of free atoms

     starting charge    8.99371, renormalised to    9.00000
     Starting wfc are    5 randomized atomic wfcs +    4 random wfc

     total cpu time spent up to now is        0.6 secs

     per-process dynamical memory:     6.5 Mb

     Self-consistent Calculation

     iteration #  1     ecut=    40.00 Ry     beta=0.70
     Davidson diagonalization with overlap
     ethr =  1.00E-02,  avg # of iterations =  5.5

     Threshold (ethr) on eigenvalues was too large:
     Diagonalizing with lowered threshold

     Davidson diagonalization with overlap
     ethr =  1.78E-05,  avg # of iterations =  3.2

     total cpu time spent up to now is        2.7 secs

     total energy              =     -95.08297802 Ry
     Harris-Foulkes estimate   =     -95.08356731 Ry
     estimated scf accuracy    <       0.00160373 Ry

     iteration #  2     ecut=    40.00 Ry     beta=0.70
     Davidson diagonalization with overlap
     ethr =  1.78E-05,  avg # of iterations =  2.0

     total cpu time spent up to now is        3.2 secs

     total energy              =     -95.08319683 Ry
     Harris-Foulkes estimate   =     -95.08324424 Ry
     estimated scf accuracy    <       0.00018379 Ry

     iteration #  3     ecut=    40.00 Ry     beta=0.70
     Davidson diagonalization with overlap
     ethr =  2.04E-06,  avg # of iterations =  2.1

     total cpu time spent up to now is        3.8 secs

     total energy              =     -95.08321998 Ry
     Harris-Foulkes estimate   =     -95.08322111 Ry
     estimated scf accuracy    <       0.00001078 Ry

     iteration #  4     ecut=    40.00 Ry     beta=0.70
     Davidson diagonalization with overlap
     ethr =  1.20E-07,  avg # of iterations =  1.0

     total cpu time spent up to now is        4.3 secs

     total energy              =     -95.08322091 Ry
     Harris-Foulkes estimate   =     -95.08322085 Ry
     estimated scf accuracy    <       0.00000001 Ry

     iteration #  5     ecut=    40.00 Ry     beta=0.70
     Davidson diagonalization with overlap
     ethr =  1.65E-10,  avg # of iterations =  3.0

     total cpu time spent up to now is        5.0 secs

     total energy              =     -95.08322095 Ry
     Harris-Foulkes estimate   =     -95.08322094 Ry
     estimated scf accuracy    <          2.0E-09 Ry

     iteration #  6     ecut=    40.00 Ry     beta=0.70
     Davidson diagonalization with overlap
     ethr =  2.21E-11,  avg # of iterations =  2.0

     total cpu time spent up to now is        5.5 secs

     total energy              =     -95.08322095 Ry
     Harris-Foulkes estimate   =     -95.08322095 Ry
     estimated scf accuracy    <          3.3E-10 Ry

     iteration #  7     ecut=    40.00 Ry     beta=0.70
     Davidson diagonalization with overlap
     ethr =  3.72E-12,  avg # of iterations =  2.0

     total cpu time spent up to now is        6.1 secs

     End of self-consistent calculation

     Number of k-points >= 100: set verbosity='high' to print the bands.

     the Fermi energy is     4.4764 ev

!    total energy              =     -95.08322095 Ry
     Harris-Foulkes estimate   =     -95.08322095 Ry
     estimated scf accuracy    <          3.9E-12 Ry

     The total energy is the sum of the following terms:

     one-electron contribution =     -76.03228662 Ry
     hartree contribution      =      39.38377900 Ry
     xc contribution           =     -14.34734298 Ry
     ewald contribution        =     -44.08726588 Ry
     smearing contrib. (-TS)   =      -0.00010447 Ry

     convergence has been achieved in   7 iterations


     Computing stress (Cartesian axis) and pressure

          total   stress  (Ry/bohr**3)                   (kbar)     P=   98.96
   0.00067271  -0.00000000   0.00000000         98.96     -0.00      0.00
  -0.00000000   0.00067271  -0.00000000         -0.00     98.96     -0.00
   0.00000000  -0.00000000   0.00067271          0.00     -0.00     98.96


     Writing output data file na.bcc.save

     init_run     :      0.42s CPU      0.45s WALL (       1 calls)
     electrons    :      5.12s CPU      5.55s WALL (       1 calls)
     stress       :      0.13s CPU      0.13s WALL (       1 calls)

     Called by init_run:
     wfcinit      :      0.24s CPU      0.25s WALL (       1 calls)
     potinit      :      0.03s CPU      0.03s WALL (       1 calls)

     Called by electrons:
     c_bands      :      4.35s CPU      4.72s WALL (       8 calls)
     sum_band     :      0.63s CPU      0.68s WALL (       8 calls)
     v_of_rho     :      0.07s CPU      0.07s WALL (       8 calls)
     newd         :      0.08s CPU      0.08s WALL (       8 calls)
     mix_rho      :      0.01s CPU      0.01s WALL (       8 calls)

     Called by c_bands:
     init_us_2    :      0.06s CPU      0.07s WALL (    1134 calls)
     cegterg      :      3.65s CPU      4.01s WALL (     504 calls)

     Called by sum_band:
     sum_band:bec :      0.01s CPU      0.01s WALL (     504 calls)
     addusdens    :      0.06s CPU      0.06s WALL (       8 calls)

     Called by *egterg:
     h_psi        :      2.57s CPU      2.77s WALL (    1887 calls)
     s_psi        :      0.03s CPU      0.03s WALL (    1887 calls)
     g_psi        :      0.01s CPU      0.01s WALL (    1320 calls)
     cdiaghg      :      0.77s CPU      0.85s WALL (    1761 calls)

     Called by h_psi:
     h_psi:pot    :      2.56s CPU      2.76s WALL (    1887 calls)
     h_psi:calbec :      0.16s CPU      0.17s WALL (    1887 calls)
     vloc_psi     :      2.35s CPU      2.54s WALL (    1887 calls)
     add_vuspsi   :      0.03s CPU      0.03s WALL (    1887 calls)

     General routines
     calbec       :      0.20s CPU      0.21s WALL (    2454 calls)
     fft          :      0.10s CPU      0.11s WALL (     133 calls)
     ffts         :      0.01s CPU      0.01s WALL (      16 calls)
     fftw         :      2.48s CPU      2.68s WALL (   28922 calls)
     interpolate  :      0.02s CPU      0.02s WALL (      16 calls)
     davcio       :      0.00s CPU      0.02s WALL (      63 calls)

     Parallel routines
     fft_scatter  :      1.38s CPU      1.49s WALL (   29071 calls)

     PWSCF        :     6.83s CPU         7.36s WALL


   This run was terminated on:   0:48:26  31Jan2018            

=------------------------------------------------------------------------------=
   JOB DONE.
=------------------------------------------------------------------------------=
