
     Program PWSCF v.6.1 (svn rev. 13369) starts on 14Feb2018 at  1:20:30 

     This program is part of the open-source Quantum ESPRESSO suite
     for quantum simulation of materials; please cite
         "P. Giannozzi et al., J. Phys.:Condens. Matter 21 395502 (2009);
          URL http://www.quantum-espresso.org", 
     in publications or presentations arising from this work. More details at
     http://www.quantum-espresso.org/quote

     Parallel version (MPI), running on    64 processors
     K-points division:     npool     =       4
     R & G space division:  proc/nbgrp/npool/nimage =      16
     Waiting for input...
     Reading input from standard input

     Current dimensions of program PWSCF are:
     Max number of different atomic species (ntypx) = 10
     Max number of k-points (npk) =  80000
     Max angular momentum in pseudopotentials (lmaxx) =  3

     Subspace diagonalization in iterative solution of the eigenvalue problem:
     a serial algorithm will be used


     Parallelization info
     --------------------
     sticks:   dense  smooth     PW     G-vecs:    dense   smooth      PW
     Min          59      29      9                 1171      411      74
     Max          60      30     10                 1174      415      77
     Sum         949     475    155                18749     6603    1205



     bravais-lattice index     =            3
     lattice parameter (alat)  =       7.2900  a.u.
     unit-cell volume          =     193.7102 (a.u.)^3
     number of atoms/cell      =            1
     number of atomic types    =            1
     number of electrons       =         9.00
     number of Kohn-Sham states=            9
     kinetic-energy cutoff     =      40.0000  Ry
     charge density cutoff     =     320.0000  Ry
     convergence threshold     =      1.0E-10
     mixing beta               =       0.7000
     number of iterations used =            8  plain     mixing
     Exchange-correlation      = SLA  PW   PBE  PBE ( 1  4  3  4 0 0)

     celldm(1)=   7.290000  celldm(2)=   0.000000  celldm(3)=   0.000000
     celldm(4)=   0.000000  celldm(5)=   0.000000  celldm(6)=   0.000000

     crystal axes: (cart. coord. in units of alat)
               a(1) = (   0.500000   0.500000   0.500000 )  
               a(2) = (  -0.500000   0.500000   0.500000 )  
               a(3) = (  -0.500000  -0.500000   0.500000 )  

     reciprocal axes: (cart. coord. in units 2 pi/alat)
               b(1) = (  1.000000  0.000000  1.000000 )  
               b(2) = ( -1.000000  1.000000  0.000000 )  
               b(3) = (  0.000000 -1.000000  1.000000 )  


     PseudoPot. # 1 for Na read from file:
     /home/s1333534/quantum_espresso/qe-6.1/pseudo/Na_pbe_v1.uspp.F.UPF
     MD5 check sum: 76a99c7e9422403d3e93cbc85ab7bccb
     Pseudo is Ultrasoft, Zval =  9.0
     Generated by new atomic code, or converted to UPF format
     Using radial grid of  819 points,  5 beta functions with: 
                l(1) =   0
                l(2) =   0
                l(3) =   1
                l(4) =   1
                l(5) =   2
     Q(r) pseudized with  8 coefficients,  rinner =    1.250   1.250   1.250
                                                       1.250   1.250

     atomic species   valence    mass     pseudopotential
        Na             9.00    22.99000     Na( 1.00)

     48 Sym. Ops., with inversion, found



   Cartesian axes

     site n.     atom                  positions (alat units)
         1           Na  tau(   1) = (   0.0000000   0.0000000   0.0000000  )

     number of k points=   250  Marzari-Vanderbilt smearing, width (Ry)=  0.0200

     Number of k-points >= 100: set verbosity='high' to print them.

     Dense  grid:    18749 G-vectors     FFT dimensions: (  36,  36,  36)

     Smooth grid:     6603 G-vectors     FFT dimensions: (  25,  25,  25)

     Estimated max dynamical RAM per process >       1.29MB

     Estimated total allocated dynamical RAM >      82.33MB

     Initial potential from superposition of free atoms

     starting charge    8.99371, renormalised to    9.00000
     Starting wfc are    5 randomized atomic wfcs +    4 random wfc

     total cpu time spent up to now is        0.5 secs

     per-process dynamical memory:     6.8 Mb

     Self-consistent Calculation

     iteration #  1     ecut=    40.00 Ry     beta=0.70
     Davidson diagonalization with overlap
     ethr =  1.00E-02,  avg # of iterations =  5.6

     Threshold (ethr) on eigenvalues was too large:
     Diagonalizing with lowered threshold

     Davidson diagonalization with overlap
     ethr =  1.19E-05,  avg # of iterations =  3.9

     total cpu time spent up to now is        2.4 secs

     total energy              =     -95.10148934 Ry
     Harris-Foulkes estimate   =     -95.10183767 Ry
     estimated scf accuracy    <       0.00107230 Ry

     iteration #  2     ecut=    40.00 Ry     beta=0.70
     Davidson diagonalization with overlap
     ethr =  1.19E-05,  avg # of iterations =  2.0

     total cpu time spent up to now is        3.0 secs

     total energy              =     -95.10162614 Ry
     Harris-Foulkes estimate   =     -95.10165638 Ry
     estimated scf accuracy    <       0.00012108 Ry

     iteration #  3     ecut=    40.00 Ry     beta=0.70
     Davidson diagonalization with overlap
     ethr =  1.35E-06,  avg # of iterations =  2.2

     total cpu time spent up to now is        3.6 secs

     total energy              =     -95.10164005 Ry
     Harris-Foulkes estimate   =     -95.10164127 Ry
     estimated scf accuracy    <       0.00000731 Ry

     iteration #  4     ecut=    40.00 Ry     beta=0.70
     Davidson diagonalization with overlap
     ethr =  8.13E-08,  avg # of iterations =  1.0

     total cpu time spent up to now is        4.1 secs

     total energy              =     -95.10164070 Ry
     Harris-Foulkes estimate   =     -95.10164065 Ry
     estimated scf accuracy    <          9.6E-09 Ry

     iteration #  5     ecut=    40.00 Ry     beta=0.70
     Davidson diagonalization with overlap
     ethr =  1.06E-10,  avg # of iterations =  3.0

     total cpu time spent up to now is        4.7 secs

     total energy              =     -95.10164073 Ry
     Harris-Foulkes estimate   =     -95.10164073 Ry
     estimated scf accuracy    <          1.3E-09 Ry

     iteration #  6     ecut=    40.00 Ry     beta=0.70
     Davidson diagonalization with overlap
     ethr =  1.48E-11,  avg # of iterations =  1.5

     total cpu time spent up to now is        5.3 secs

     End of self-consistent calculation

     Number of k-points >= 100: set verbosity='high' to print the bands.

     the Fermi energy is     2.8307 ev

!    total energy              =     -95.10164073 Ry
     Harris-Foulkes estimate   =     -95.10164073 Ry
     estimated scf accuracy    <          3.5E-11 Ry

     The total energy is the sum of the following terms:

     one-electron contribution =     -82.35978271 Ry
     hartree contribution      =      41.99834816 Ry
     xc contribution           =     -14.30417538 Ry
     ewald contribution        =     -40.43592722 Ry
     smearing contrib. (-TS)   =      -0.00010359 Ry

     convergence has been achieved in   6 iterations


     Computing stress (Cartesian axis) and pressure

          total   stress  (Ry/bohr**3)                   (kbar)     P=   27.97
   0.00019017  -0.00000000   0.00000000         27.97     -0.00      0.00
  -0.00000000   0.00019017  -0.00000000         -0.00     27.97     -0.00
   0.00000000  -0.00000000   0.00019017          0.00     -0.00     27.97


     Writing output data file na.bcc.save

     init_run     :      0.28s CPU      0.31s WALL (       1 calls)
     electrons    :      4.41s CPU      4.81s WALL (       1 calls)
     stress       :      0.16s CPU      0.17s WALL (       1 calls)

     Called by init_run:
     wfcinit      :      0.13s CPU      0.14s WALL (       1 calls)
     potinit      :      0.02s CPU      0.02s WALL (       1 calls)

     Called by electrons:
     c_bands      :      3.71s CPU      4.05s WALL (       7 calls)
     sum_band     :      0.57s CPU      0.62s WALL (       7 calls)
     v_of_rho     :      0.06s CPU      0.07s WALL (       7 calls)
     newd         :      0.05s CPU      0.05s WALL (       7 calls)
     mix_rho      :      0.01s CPU      0.01s WALL (       7 calls)

     Called by c_bands:
     init_us_2    :      0.06s CPU      0.07s WALL (    1008 calls)
     cegterg      :      3.24s CPU      3.57s WALL (     441 calls)

     Called by sum_band:
     sum_band:bec :      0.00s CPU      0.00s WALL (     441 calls)
     addusdens    :      0.07s CPU      0.07s WALL (       7 calls)

     Called by *egterg:
     h_psi        :      2.12s CPU      2.29s WALL (    1758 calls)
     s_psi        :      0.03s CPU      0.03s WALL (    1758 calls)
     g_psi        :      0.01s CPU      0.01s WALL (    1254 calls)
     cdiaghg      :      0.72s CPU      0.80s WALL (    1632 calls)

     Called by h_psi:
     h_psi:pot    :      2.11s CPU      2.28s WALL (    1758 calls)
     h_psi:calbec :      0.13s CPU      0.14s WALL (    1758 calls)
     vloc_psi     :      1.93s CPU      2.09s WALL (    1758 calls)
     add_vuspsi   :      0.03s CPU      0.03s WALL (    1758 calls)

     General routines
     calbec       :      0.17s CPU      0.18s WALL (    2262 calls)
     fft          :      0.08s CPU      0.10s WALL (     117 calls)
     ffts         :      0.00s CPU      0.00s WALL (      14 calls)
     fftw         :      2.03s CPU      2.20s WALL (   25627 calls)
     interpolate  :      0.01s CPU      0.02s WALL (      14 calls)
     davcio       :      0.00s CPU      0.00s WALL (      63 calls)

     Parallel routines
     fft_scatter  :      1.19s CPU      1.30s WALL (   25758 calls)

     PWSCF        :     6.00s CPU         6.51s WALL


   This run was terminated on:   1:20:37  14Feb2018            

=------------------------------------------------------------------------------=
   JOB DONE.
=------------------------------------------------------------------------------=
