
     Program PWSCF v.6.1 (svn rev. 13369) starts on 20Dec2017 at 11:26:27 

     This program is part of the open-source Quantum ESPRESSO suite
     for quantum simulation of materials; please cite
         "P. Giannozzi et al., J. Phys.:Condens. Matter 21 395502 (2009);
          URL http://www.quantum-espresso.org", 
     in publications or presentations arising from this work. More details at
     http://www.quantum-espresso.org/quote

     Parallel version (MPI), running on     4 processors
     R & G space division:  proc/nbgrp/npool/nimage =       4
     Waiting for input...
     Reading input from standard input

     Current dimensions of program PWSCF are:
     Max number of different atomic species (ntypx) = 10
     Max number of k-points (npk) =  40000
     Max angular momentum in pseudopotentials (lmaxx) =  3

     Subspace diagonalization in iterative solution of the eigenvalue problem:
     a serial algorithm will be used


     Parallelization info
     --------------------
     sticks:   dense  smooth     PW     G-vecs:    dense   smooth      PW
     Min         175      90     30                 3084     1095     234
     Max         176      91     31                 3086     1096     238
     Sum         703     361    121                12339     4381     941



     bravais-lattice index     =            2
     lattice parameter (alat)  =       8.0000  a.u.
     unit-cell volume          =     128.0000 (a.u.)^3
     number of atoms/cell      =            1
     number of atomic types    =            1
     number of electrons       =         9.00
     number of Kohn-Sham states=            9
     kinetic-energy cutoff     =      40.0000  Ry
     charge density cutoff     =     320.0000  Ry
     convergence threshold     =      1.0E-08
     mixing beta               =       0.7000
     number of iterations used =            8  plain     mixing
     Exchange-correlation      = SLA  PW   PBE  PBE ( 1  4  3  4 0 0)
     nstep                     =           50


     celldm(1)=   8.000000  celldm(2)=   0.000000  celldm(3)=   0.000000
     celldm(4)=   0.000000  celldm(5)=   0.000000  celldm(6)=   0.000000

     crystal axes: (cart. coord. in units of alat)
               a(1) = (  -0.500000   0.000000   0.500000 )  
               a(2) = (   0.000000   0.500000   0.500000 )  
               a(3) = (  -0.500000   0.500000   0.000000 )  

     reciprocal axes: (cart. coord. in units 2 pi/alat)
               b(1) = ( -1.000000 -1.000000  1.000000 )  
               b(2) = (  1.000000  1.000000  1.000000 )  
               b(3) = ( -1.000000  1.000000 -1.000000 )  


     PseudoPot. # 1 for Na read from file:
     /home/s1333534/quantum_espresso/qe-6.1/pseudo/Na_pbe_v1.uspp.F.UPF
     MD5 check sum: 76a99c7e9422403d3e93cbc85ab7bccb
     Pseudo is Ultrasoft, Zval =  9.0
     Generated by new atomic code, or converted to UPF format
     Using radial grid of  819 points,  5 beta functions with: 
                l(1) =   0
                l(2) =   0
                l(3) =   1
                l(4) =   1
                l(5) =   2
     Q(r) pseudized with  8 coefficients,  rinner =    1.250   1.250   1.250
                                                       1.250   1.250

     atomic species   valence    mass     pseudopotential
        Na             9.00    22.99000     Na( 1.00)

     48 Sym. Ops., with inversion, found



   Cartesian axes

     site n.     atom                  positions (alat units)
         1           Na  tau(   1) = (   0.0000000   0.0000000   0.0000000  )

     number of k points=   770  Marzari-Vanderbilt smearing, width (Ry)=  0.0200

     Number of k-points >= 100: set verbosity='high' to print them.

     Dense  grid:    12339 G-vectors     FFT dimensions: (  36,  36,  36)

     Smooth grid:     4381 G-vectors     FFT dimensions: (  24,  24,  24)

     Estimated max dynamical RAM per process >      16.64MB

     Estimated total allocated dynamical RAM >      66.55MB

     Initial potential from superposition of free atoms

     starting charge    8.99371, renormalised to    9.00000
     Starting wfc are    5 randomized atomic wfcs +    4 random wfc

     total cpu time spent up to now is        1.2 secs

     per-process dynamical memory:    24.8 Mb

     Self-consistent Calculation

     iteration #  1     ecut=    40.00 Ry     beta=0.70
     Davidson diagonalization with overlap
     ethr =  1.00E-02,  avg # of iterations =  5.1

     Threshold (ethr) on eigenvalues was too large:
     Diagonalizing with lowered threshold

     Davidson diagonalization with overlap
     ethr =  2.47E-05,  avg # of iterations =  2.4

     total cpu time spent up to now is        8.3 secs

     total energy              =     -95.06263719 Ry
     Harris-Foulkes estimate   =     -95.06346383 Ry
     estimated scf accuracy    <       0.00221907 Ry

     iteration #  2     ecut=    40.00 Ry     beta=0.70
     Davidson diagonalization with overlap
     ethr =  2.47E-05,  avg # of iterations =  2.0

     total cpu time spent up to now is       10.8 secs

     total energy              =     -95.06293327 Ry
     Harris-Foulkes estimate   =     -95.06299962 Ry
     estimated scf accuracy    <       0.00025023 Ry

     iteration #  3     ecut=    40.00 Ry     beta=0.70
     Davidson diagonalization with overlap
     ethr =  2.78E-06,  avg # of iterations =  2.1

     total cpu time spent up to now is       13.4 secs

     total energy              =     -95.06296602 Ry
     Harris-Foulkes estimate   =     -95.06296754 Ry
     estimated scf accuracy    <       0.00001446 Ry

     iteration #  4     ecut=    40.00 Ry     beta=0.70
     Davidson diagonalization with overlap
     ethr =  1.61E-07,  avg # of iterations =  1.0

     total cpu time spent up to now is       15.6 secs

     total energy              =     -95.06296732 Ry
     Harris-Foulkes estimate   =     -95.06296725 Ry
     estimated scf accuracy    <       0.00000002 Ry

     iteration #  5     ecut=    40.00 Ry     beta=0.70
     Davidson diagonalization with overlap
     ethr =  2.20E-10,  avg # of iterations =  3.0

     total cpu time spent up to now is       18.8 secs

     End of self-consistent calculation

     Number of k-points >= 100: set verbosity='high' to print the bands.

     the Fermi energy is     5.7098 ev

!    total energy              =     -95.06296737 Ry
     Harris-Foulkes estimate   =     -95.06296737 Ry
     estimated scf accuracy    <          2.7E-09 Ry

     The total energy is the sum of the following terms:

     one-electron contribution =     -72.01868817 Ry
     hartree contribution      =      37.75480527 Ry
     xc contribution           =     -14.37732448 Ry
     ewald contribution        =     -46.42172850 Ry
     smearing contrib. (-TS)   =      -0.00003149 Ry

     convergence has been achieved in   5 iterations

     Forces acting on atoms (cartesian axes, Ry/au):

     atom    1 type  1   force =     0.00000000    0.00000000    0.00000000

     Total force =     0.000000     Total SCF correction =     0.000000


     Computing stress (Cartesian axis) and pressure

          total   stress  (Ry/bohr**3)                   (kbar)     P=  175.59
   0.00119366   0.00000000   0.00000000        175.59      0.00      0.00
   0.00000000   0.00119366  -0.00000000          0.00    175.59     -0.00
   0.00000000  -0.00000000   0.00119366          0.00     -0.00    175.59


     BFGS Geometry Optimization

     number of scf cycles    =   1
     number of bfgs steps    =   0

     enthalpy new            =     -94.9933572533 Ry

     new trust radius        =       0.0367602135 bohr
     new conv_thr            =       0.0000000100 Ry

     new unit-cell volume =    134.34031 a.u.^3 (    19.90718 Ang^3 )
     density =      1.91769 g/cm^3

CELL_PARAMETERS (alat=  8.00000000)
  -0.508122936  -0.000000000   0.508122936
   0.000000000   0.508122936   0.508122936
  -0.508122936   0.508122936  -0.000000000

ATOMIC_POSITIONS (crystal)
Na       0.000000000   0.000000000   0.000000000



     Writing output data file na.fcc.save
     NEW-OLD atomic charge density approx. for the potential
     extrapolated charge    9.42447, renormalised to    9.00000

     total cpu time spent up to now is       20.7 secs

     per-process dynamical memory:    31.6 Mb

     Self-consistent Calculation

     iteration #  1     ecut=    40.00 Ry     beta=0.70
     Davidson diagonalization with overlap
     ethr =  1.00E-06,  avg # of iterations =  3.8

     total cpu time spent up to now is       25.0 secs

     total energy              =     -94.93826927 Ry
     Harris-Foulkes estimate   =     -92.32967879 Ry
     estimated scf accuracy    <       0.07364277 Ry

     iteration #  2     ecut=    40.00 Ry     beta=0.70
     Davidson diagonalization with overlap
     ethr =  8.18E-04,  avg # of iterations =  2.9

     total cpu time spent up to now is       28.5 secs

     total energy              =     -95.07440730 Ry
     Harris-Foulkes estimate   =     -95.12855849 Ry
     estimated scf accuracy    <       0.12330268 Ry

     iteration #  3     ecut=    40.00 Ry     beta=0.70
     Davidson diagonalization with overlap
     ethr =  8.18E-04,  avg # of iterations =  1.2

     total cpu time spent up to now is       30.7 secs

     total energy              =     -95.07300286 Ry
     Harris-Foulkes estimate   =     -95.08178245 Ry
     estimated scf accuracy    <       0.02622324 Ry

     iteration #  4     ecut=    40.00 Ry     beta=0.70
     Davidson diagonalization with overlap
     ethr =  2.91E-04,  avg # of iterations =  1.0

     total cpu time spent up to now is       32.9 secs

     total energy              =     -95.07258006 Ry
     Harris-Foulkes estimate   =     -95.07409677 Ry
     estimated scf accuracy    <       0.00896391 Ry

     iteration #  5     ecut=    40.00 Ry     beta=0.70
     Davidson diagonalization with overlap
     ethr =  9.96E-05,  avg # of iterations =  1.0

     total cpu time spent up to now is       35.1 secs

     total energy              =     -95.07116243 Ry
     Harris-Foulkes estimate   =     -95.07268974 Ry
     estimated scf accuracy    <       0.00597608 Ry

     iteration #  6     ecut=    40.00 Ry     beta=0.70
     Davidson diagonalization with overlap
     ethr =  6.64E-05,  avg # of iterations =  1.0

     total cpu time spent up to now is       37.3 secs

     total energy              =     -95.06949272 Ry
     Harris-Foulkes estimate   =     -95.07127126 Ry
     estimated scf accuracy    <       0.00297345 Ry

     iteration #  7     ecut=    40.00 Ry     beta=0.70
     Davidson diagonalization with overlap
     ethr =  3.30E-05,  avg # of iterations =  2.0

     total cpu time spent up to now is       39.9 secs

     total energy              =     -95.06990505 Ry
     Harris-Foulkes estimate   =     -95.06993665 Ry
     estimated scf accuracy    <       0.00008575 Ry

     iteration #  8     ecut=    40.00 Ry     beta=0.70
     Davidson diagonalization with overlap
     ethr =  9.53E-07,  avg # of iterations =  1.8

     total cpu time spent up to now is       42.3 secs

     total energy              =     -95.06988859 Ry
     Harris-Foulkes estimate   =     -95.06991080 Ry
     estimated scf accuracy    <       0.00002622 Ry

     iteration #  9     ecut=    40.00 Ry     beta=0.70
     Davidson diagonalization with overlap
     ethr =  2.91E-07,  avg # of iterations =  2.0

     total cpu time spent up to now is       45.1 secs

     total energy              =     -95.06989550 Ry
     Harris-Foulkes estimate   =     -95.06990556 Ry
     estimated scf accuracy    <       0.00001438 Ry

     iteration # 10     ecut=    40.00 Ry     beta=0.70
     Davidson diagonalization with overlap
     ethr =  1.60E-07,  avg # of iterations =  2.0

     total cpu time spent up to now is       47.8 secs

     total energy              =     -95.06989932 Ry
     Harris-Foulkes estimate   =     -95.06989919 Ry
     estimated scf accuracy    <       0.00000043 Ry

     iteration # 11     ecut=    40.00 Ry     beta=0.70
     Davidson diagonalization with overlap
     ethr =  4.73E-09,  avg # of iterations =  1.0

     total cpu time spent up to now is       50.0 secs

     total energy              =     -95.06989907 Ry
     Harris-Foulkes estimate   =     -95.06989935 Ry
     estimated scf accuracy    <       0.00000073 Ry

     iteration # 12     ecut=    40.00 Ry     beta=0.70
     Davidson diagonalization with overlap
     ethr =  4.73E-09,  avg # of iterations =  1.1

     total cpu time spent up to now is       52.3 secs

     total energy              =     -95.06989906 Ry
     Harris-Foulkes estimate   =     -95.06989911 Ry
     estimated scf accuracy    <       0.00000017 Ry

     iteration # 13     ecut=    40.00 Ry     beta=0.70
     Davidson diagonalization with overlap
     ethr =  1.92E-09,  avg # of iterations =  1.0

     total cpu time spent up to now is       54.5 secs

     total energy              =     -95.06989905 Ry
     Harris-Foulkes estimate   =     -95.06989907 Ry
     estimated scf accuracy    <       0.00000006 Ry

     iteration # 14     ecut=    40.00 Ry     beta=0.70
     Davidson diagonalization with overlap
     ethr =  6.34E-10,  avg # of iterations =  1.5

     total cpu time spent up to now is       56.8 secs

     End of self-consistent calculation

     Number of k-points >= 100: set verbosity='high' to print the bands.

     the Fermi energy is     5.3016 ev

!    total energy              =     -95.06989905 Ry
     Harris-Foulkes estimate   =     -95.06989905 Ry
     estimated scf accuracy    <          1.3E-10 Ry

     The total energy is the sum of the following terms:

     one-electron contribution =     -73.29187029 Ry
     hartree contribution      =      38.26919272 Ry
     xc contribution           =     -14.36756670 Ry
     ewald contribution        =     -45.67962315 Ry
     smearing contrib. (-TS)   =      -0.00003164 Ry

     convergence has been achieved in  14 iterations

     Forces acting on atoms (cartesian axes, Ry/au):

     atom    1 type  1   force =     0.00000000    0.00000000    0.00000000

     Total force =     0.000000     Total SCF correction =     0.000000


     Computing stress (Cartesian axis) and pressure

          total   stress  (Ry/bohr**3)                   (kbar)     P=  146.94
   0.00099885   0.00000000   0.00000000        146.94      0.00      0.00
   0.00000000   0.00099885  -0.00000000          0.00    146.94     -0.00
   0.00000000  -0.00000000   0.00099885          0.00     -0.00    146.94


     number of scf cycles    =   2
     number of bfgs steps    =   1

     enthalpy old            =     -94.9933572533 Ry
     enthalpy new            =     -94.9968408908 Ry

     CASE: enthalpy_new < enthalpy_old

     new trust radius        =       0.0407633725 bohr
     new conv_thr            =            1.0E-10 Ry

     new unit-cell volume =    141.55270 a.u.^3 (    20.97595 Ang^3 )
     density =      1.81998 g/cm^3

CELL_PARAMETERS (alat=  8.00000000)
  -0.517058166  -0.000000000   0.517058166
   0.000000000   0.517058166   0.517058166
  -0.517058166   0.517058166  -0.000000000

ATOMIC_POSITIONS (crystal)
Na       0.000000000   0.000000000   0.000000000



     Writing output data file na.fcc.save
     NEW-OLD atomic charge density approx. for the potential
     extrapolated charge    9.45825, renormalised to    9.00000

     total cpu time spent up to now is       58.6 secs

     per-process dynamical memory:    31.6 Mb

     Self-consistent Calculation

     iteration #  1     ecut=    40.00 Ry     beta=0.70
     Davidson diagonalization with overlap
     ethr =  1.00E-06,  avg # of iterations =  3.9

     total cpu time spent up to now is       63.0 secs

     total energy              =     -94.91923124 Ry
     Harris-Foulkes estimate   =     -92.06019722 Ry
     estimated scf accuracy    <       0.08790958 Ry

     iteration #  2     ecut=    40.00 Ry     beta=0.70
     Davidson diagonalization with overlap
     ethr =  9.77E-04,  avg # of iterations =  3.0

     total cpu time spent up to now is       66.5 secs

     total energy              =     -95.08201623 Ry
     Harris-Foulkes estimate   =     -95.14661777 Ry
     estimated scf accuracy    <       0.14703985 Ry

     iteration #  3     ecut=    40.00 Ry     beta=0.70
     Davidson diagonalization with overlap
     ethr =  9.77E-04,  avg # of iterations =  1.2

     total cpu time spent up to now is       68.7 secs

     total energy              =     -95.08005543 Ry
     Harris-Foulkes estimate   =     -95.09073757 Ry
     estimated scf accuracy    <       0.03150426 Ry

     iteration #  4     ecut=    40.00 Ry     beta=0.70
     Davidson diagonalization with overlap
     ethr =  3.50E-04,  avg # of iterations =  1.0

     total cpu time spent up to now is       70.9 secs

     total energy              =     -95.07948975 Ry
     Harris-Foulkes estimate   =     -95.08138912 Ry
     estimated scf accuracy    <       0.01061056 Ry

     iteration #  5     ecut=    40.00 Ry     beta=0.70
     Davidson diagonalization with overlap
     ethr =  1.18E-04,  avg # of iterations =  1.0

     total cpu time spent up to now is       73.1 secs

     total energy              =     -95.07781974 Ry
     Harris-Foulkes estimate   =     -95.07963087 Ry
     estimated scf accuracy    <       0.00684901 Ry

     iteration #  6     ecut=    40.00 Ry     beta=0.70
     Davidson diagonalization with overlap
     ethr =  7.61E-05,  avg # of iterations =  1.0

     total cpu time spent up to now is       75.3 secs

     total energy              =     -95.07591266 Ry
     Harris-Foulkes estimate   =     -95.07795072 Ry
     estimated scf accuracy    <       0.00331877 Ry

     iteration #  7     ecut=    40.00 Ry     beta=0.70
     Davidson diagonalization with overlap
     ethr =  3.69E-05,  avg # of iterations =  2.0

     total cpu time spent up to now is       78.0 secs

     total energy              =     -95.07642713 Ry
     Harris-Foulkes estimate   =     -95.07644600 Ry
     estimated scf accuracy    <       0.00006498 Ry

     iteration #  8     ecut=    40.00 Ry     beta=0.70
     Davidson diagonalization with overlap
     ethr =  7.22E-07,  avg # of iterations =  1.6

     total cpu time spent up to now is       80.3 secs

     total energy              =     -95.07640588 Ry
     Harris-Foulkes estimate   =     -95.07642993 Ry
     estimated scf accuracy    <       0.00002840 Ry

     iteration #  9     ecut=    40.00 Ry     beta=0.70
     Davidson diagonalization with overlap
     ethr =  3.16E-07,  avg # of iterations =  2.0

     total cpu time spent up to now is       83.1 secs

     total energy              =     -95.07641381 Ry
     Harris-Foulkes estimate   =     -95.07642409 Ry
     estimated scf accuracy    <       0.00001524 Ry

     iteration # 10     ecut=    40.00 Ry     beta=0.70
     Davidson diagonalization with overlap
     ethr =  1.69E-07,  avg # of iterations =  2.0

     total cpu time spent up to now is       85.8 secs

     total energy              =     -95.07641735 Ry
     Harris-Foulkes estimate   =     -95.07641729 Ry
     estimated scf accuracy    <       0.00000078 Ry

     iteration # 11     ecut=    40.00 Ry     beta=0.70
     Davidson diagonalization with overlap
     ethr =  8.72E-09,  avg # of iterations =  1.7

     total cpu time spent up to now is       88.2 secs

     total energy              =     -95.07641706 Ry
     Harris-Foulkes estimate   =     -95.07641746 Ry
     estimated scf accuracy    <       0.00000092 Ry

     iteration # 12     ecut=    40.00 Ry     beta=0.70
     Davidson diagonalization with overlap
     ethr =  8.72E-09,  avg # of iterations =  1.2

     total cpu time spent up to now is       90.5 secs

     total energy              =     -95.07641710 Ry
     Harris-Foulkes estimate   =     -95.07641713 Ry
     estimated scf accuracy    <       0.00000010 Ry

     iteration # 13     ecut=    40.00 Ry     beta=0.70
     Davidson diagonalization with overlap
     ethr =  1.10E-09,  avg # of iterations =  1.6

     total cpu time spent up to now is       92.8 secs

     total energy              =     -95.07641711 Ry
     Harris-Foulkes estimate   =     -95.07641711 Ry
     estimated scf accuracy    <       0.00000001 Ry

     iteration # 14     ecut=    40.00 Ry     beta=0.70
     Davidson diagonalization with overlap
     ethr =  1.65E-10,  avg # of iterations =  1.6

     total cpu time spent up to now is       95.2 secs

     total energy              =     -95.07641710 Ry
     Harris-Foulkes estimate   =     -95.07641711 Ry
     estimated scf accuracy    <       0.00000001 Ry

     iteration # 15     ecut=    40.00 Ry     beta=0.70
     Davidson diagonalization with overlap
     ethr =  1.12E-10,  avg # of iterations =  2.0

     total cpu time spent up to now is       97.8 secs

     End of self-consistent calculation

     Number of k-points >= 100: set verbosity='high' to print the bands.

     the Fermi energy is     4.8839 ev

!    total energy              =     -95.07641710 Ry
     Harris-Foulkes estimate   =     -95.07641710 Ry
     estimated scf accuracy    <          8.9E-12 Ry

     The total energy is the sum of the following terms:

     one-electron contribution =     -74.64887688 Ry
     hartree contribution      =      38.82013188 Ry
     xc contribution           =     -14.35740189 Ry
     ewald contribution        =     -44.89023819 Ry
     smearing contrib. (-TS)   =      -0.00003202 Ry

     convergence has been achieved in  15 iterations

     Forces acting on atoms (cartesian axes, Ry/au):

     atom    1 type  1   force =     0.00000000    0.00000000    0.00000000

     Total force =     0.000000     Total SCF correction =     0.000000


     Computing stress (Cartesian axis) and pressure

          total   stress  (Ry/bohr**3)                   (kbar)     P=  120.01
   0.00081581   0.00000000   0.00000000        120.01      0.00      0.00
   0.00000000   0.00081581  -0.00000000          0.00    120.01     -0.00
   0.00000000  -0.00000000   0.00081581          0.00     -0.00    120.01


     number of scf cycles    =   3
     number of bfgs steps    =   2

     enthalpy old            =     -94.9968408908 Ry
     enthalpy new            =     -94.9994366349 Ry

     CASE: enthalpy_new < enthalpy_old

     new trust radius        =       0.0616803271 bohr
     new conv_thr            =            1.0E-10 Ry

     new unit-cell volume =    152.84821 a.u.^3 (    22.64977 Ang^3 )
     density =      1.68548 g/cm^3

CELL_PARAMETERS (alat=  8.00000000)
  -0.530461012  -0.000000000   0.530461012
   0.000000000   0.530461012   0.530461012
  -0.530461012   0.530461012  -0.000000000

ATOMIC_POSITIONS (crystal)
Na       0.000000000   0.000000000   0.000000000



     Writing output data file na.fcc.save
     NEW-OLD atomic charge density approx. for the potential
     extrapolated charge    9.66464, renormalised to    9.00000

     total cpu time spent up to now is       99.6 secs

     per-process dynamical memory:    31.6 Mb

     Self-consistent Calculation

     iteration #  1     ecut=    40.00 Ry     beta=0.70
     Davidson diagonalization with overlap
     ethr =  1.00E-06,  avg # of iterations =  4.4

     total cpu time spent up to now is      104.2 secs

     total energy              =     -94.71424758 Ry
     Harris-Foulkes estimate   =     -90.58725802 Ry
     estimated scf accuracy    <       0.20747874 Ry

     iteration #  2     ecut=    40.00 Ry     beta=0.70
     Davidson diagonalization with overlap
     ethr =  2.31E-03,  avg # of iterations =  3.0

     total cpu time spent up to now is      107.7 secs

     total energy              =     -95.10048118 Ry
     Harris-Foulkes estimate   =     -95.25182023 Ry
     estimated scf accuracy    <       0.34327021 Ry

     iteration #  3     ecut=    40.00 Ry     beta=0.70
     Davidson diagonalization with overlap
     ethr =  2.31E-03,  avg # of iterations =  1.1

     total cpu time spent up to now is      109.9 secs

     total energy              =     -95.09254475 Ry
     Harris-Foulkes estimate   =     -95.11983199 Ry
     estimated scf accuracy    <       0.07678996 Ry

     iteration #  4     ecut=    40.00 Ry     beta=0.70
     Davidson diagonalization with overlap
     ethr =  8.53E-04,  avg # of iterations =  1.0

     total cpu time spent up to now is      112.1 secs

     total energy              =     -95.09121507 Ry
     Harris-Foulkes estimate   =     -95.09595303 Ry
     estimated scf accuracy    <       0.02458508 Ry

     iteration #  5     ecut=    40.00 Ry     beta=0.70
     Davidson diagonalization with overlap
     ethr =  2.73E-04,  avg # of iterations =  1.0

     total cpu time spent up to now is      114.3 secs

     total energy              =     -95.08706491 Ry
     Harris-Foulkes estimate   =     -95.09157985 Ry
     estimated scf accuracy    <       0.01522748 Ry

     iteration #  6     ecut=    40.00 Ry     beta=0.70
     Davidson diagonalization with overlap
     ethr =  1.69E-04,  avg # of iterations =  1.0

     total cpu time spent up to now is      116.5 secs

     total energy              =     -95.08308325 Ry
     Harris-Foulkes estimate   =     -95.08742482 Ry
     estimated scf accuracy    <       0.00663555 Ry

     iteration #  7     ecut=    40.00 Ry     beta=0.70
     Davidson diagonalization with overlap
     ethr =  7.37E-05,  avg # of iterations =  2.0

     total cpu time spent up to now is      119.2 secs

     total energy              =     -95.08436481 Ry
     Harris-Foulkes estimate   =     -95.08435016 Ry
     estimated scf accuracy    <       0.00003140 Ry

     iteration #  8     ecut=    40.00 Ry     beta=0.70
     Davidson diagonalization with overlap
     ethr =  3.49E-07,  avg # of iterations =  2.4

     total cpu time spent up to now is      121.9 secs

     total energy              =     -95.08431309 Ry
     Harris-Foulkes estimate   =     -95.08436879 Ry
     estimated scf accuracy    <       0.00006516 Ry

     iteration #  9     ecut=    40.00 Ry     beta=0.70
     Davidson diagonalization with overlap
     ethr =  3.49E-07,  avg # of iterations =  2.1

     total cpu time spent up to now is      124.7 secs

     total energy              =     -95.08436381 Ry
     Harris-Foulkes estimate   =     -95.08436240 Ry
     estimated scf accuracy    <       0.00005428 Ry

     iteration # 10     ecut=    40.00 Ry     beta=0.70
     Davidson diagonalization with overlap
     ethr =  3.49E-07,  avg # of iterations =  1.0

     total cpu time spent up to now is      126.9 secs

     total energy              =     -95.08432775 Ry
     Harris-Foulkes estimate   =     -95.08436383 Ry
     estimated scf accuracy    <       0.00005740 Ry

     iteration # 11     ecut=    40.00 Ry     beta=0.70
     Davidson diagonalization with overlap
     ethr =  3.49E-07,  avg # of iterations =  2.0

     total cpu time spent up to now is      129.6 secs

     total energy              =     -95.08433846 Ry
     Harris-Foulkes estimate   =     -95.08433855 Ry
     estimated scf accuracy    <       0.00000013 Ry

     iteration # 12     ecut=    40.00 Ry     beta=0.70
     Davidson diagonalization with overlap
     ethr =  1.47E-09,  avg # of iterations =  2.0

     total cpu time spent up to now is      132.3 secs

     total energy              =     -95.08433849 Ry
     Harris-Foulkes estimate   =     -95.08433852 Ry
     estimated scf accuracy    <       0.00000007 Ry

     iteration # 13     ecut=    40.00 Ry     beta=0.70
     Davidson diagonalization with overlap
     ethr =  8.13E-10,  avg # of iterations =  2.0

     total cpu time spent up to now is      135.1 secs

     total energy              =     -95.08433855 Ry
     Harris-Foulkes estimate   =     -95.08433850 Ry
     estimated scf accuracy    <          2.8E-09 Ry

     iteration # 14     ecut=    40.00 Ry     beta=0.70
     Davidson diagonalization with overlap
     ethr =  3.12E-11,  avg # of iterations =  3.0

     total cpu time spent up to now is      138.3 secs

     total energy              =     -95.08433846 Ry
     Harris-Foulkes estimate   =     -95.08433858 Ry
     estimated scf accuracy    <       0.00000020 Ry

     iteration # 15     ecut=    40.00 Ry     beta=0.70
     Davidson diagonalization with overlap
     ethr =  3.12E-11,  avg # of iterations =  3.0

     total cpu time spent up to now is      141.6 secs

     total energy              =     -95.08433850 Ry
     Harris-Foulkes estimate   =     -95.08433850 Ry
     estimated scf accuracy    <          3.9E-10 Ry

     iteration # 16     ecut=    40.00 Ry     beta=0.70
     Davidson diagonalization with overlap
     ethr =  4.34E-12,  avg # of iterations =  1.0

     total cpu time spent up to now is      143.8 secs

     total energy              =     -95.08433850 Ry
     Harris-Foulkes estimate   =     -95.08433850 Ry
     estimated scf accuracy    <          1.3E-10 Ry

     iteration # 17     ecut=    40.00 Ry     beta=0.70
     Davidson diagonalization with overlap
     ethr =  1.40E-12,  avg # of iterations =  1.0

     total cpu time spent up to now is      146.0 secs

     End of self-consistent calculation

     Number of k-points >= 100: set verbosity='high' to print the bands.

     the Fermi energy is     4.3128 ev

!    total energy              =     -95.08433850 Ry
     Harris-Foulkes estimate   =     -95.08433850 Ry
     estimated scf accuracy    <          3.6E-12 Ry

     The total energy is the sum of the following terms:

     one-electron contribution =     -76.60401149 Ry
     hartree contribution      =      39.61900947 Ry
     xc contribution           =     -14.34328049 Ry
     ewald contribution        =     -43.75602305 Ry
     smearing contrib. (-TS)   =      -0.00003294 Ry

     convergence has been achieved in  17 iterations

     Forces acting on atoms (cartesian axes, Ry/au):

     atom    1 type  1   force =     0.00000000    0.00000000    0.00000000

     Total force =     0.000000     Total SCF correction =     0.000000


     Computing stress (Cartesian axis) and pressure

          total   stress  (Ry/bohr**3)                   (kbar)     P=   88.13
   0.00059911  -0.00000000   0.00000000         88.13     -0.00      0.00
  -0.00000000   0.00059911   0.00000000         -0.00     88.13      0.00
   0.00000000   0.00000000   0.00059911          0.00      0.00     88.13


     number of scf cycles    =   4
     number of bfgs steps    =   3

     enthalpy old            =     -94.9994366349 Ry
     enthalpy new            =     -95.0012152051 Ry

     CASE: enthalpy_new < enthalpy_old

     new trust radius        =       0.0170002600 bohr
     new conv_thr            =            1.0E-10 Ry

     new unit-cell volume =    156.02260 a.u.^3 (    23.12016 Ang^3 )
     density =      1.65119 g/cm^3

CELL_PARAMETERS (alat=  8.00000000)
  -0.534108122  -0.000000000   0.534108122
   0.000000000   0.534108122   0.534108122
  -0.534108122   0.534108122  -0.000000000

ATOMIC_POSITIONS (crystal)
Na       0.000000000   0.000000000   0.000000000



     Writing output data file na.fcc.save
     NEW-OLD atomic charge density approx. for the potential
     extrapolated charge    9.18298, renormalised to    9.00000

     total cpu time spent up to now is      147.8 secs

     per-process dynamical memory:    31.6 Mb

     Self-consistent Calculation

     iteration #  1     ecut=    40.00 Ry     beta=0.70
     Davidson diagonalization with overlap
     ethr =  1.00E-06,  avg # of iterations =  3.3

     total cpu time spent up to now is      151.9 secs

     total energy              =     -95.06353343 Ry
     Harris-Foulkes estimate   =     -93.84233376 Ry
     estimated scf accuracy    <       0.01265411 Ry

     iteration #  2     ecut=    40.00 Ry     beta=0.70
     Davidson diagonalization with overlap
     ethr =  1.41E-04,  avg # of iterations =  2.9

     total cpu time spent up to now is      155.4 secs

     total energy              =     -95.08673672 Ry
     Harris-Foulkes estimate   =     -95.09607349 Ry
     estimated scf accuracy    <       0.02128808 Ry

     iteration #  3     ecut=    40.00 Ry     beta=0.70
     Davidson diagonalization with overlap
     ethr =  1.41E-04,  avg # of iterations =  1.4

     total cpu time spent up to now is      157.7 secs

     total energy              =     -95.08670682 Ry
     Harris-Foulkes estimate   =     -95.08808492 Ry
     estimated scf accuracy    <       0.00429273 Ry

     iteration #  4     ecut=    40.00 Ry     beta=0.70
     Davidson diagonalization with overlap
     ethr =  4.77E-05,  avg # of iterations =  1.0

     total cpu time spent up to now is      159.9 secs

     total energy              =     -95.08651354 Ry
     Harris-Foulkes estimate   =     -95.08687513 Ry
     estimated scf accuracy    <       0.00154077 Ry

     iteration #  5     ecut=    40.00 Ry     beta=0.70
     Davidson diagonalization with overlap
     ethr =  1.71E-05,  avg # of iterations =  1.0

     total cpu time spent up to now is      162.2 secs

     total energy              =     -95.08630639 Ry
     Harris-Foulkes estimate   =     -95.08654292 Ry
     estimated scf accuracy    <       0.00081375 Ry

     iteration #  6     ecut=    40.00 Ry     beta=0.70
     Davidson diagonalization with overlap
     ethr =  9.04E-06,  avg # of iterations =  1.0

     total cpu time spent up to now is      164.4 secs

     total energy              =     -95.08610834 Ry
     Harris-Foulkes estimate   =     -95.08632501 Ry
     estimated scf accuracy    <       0.00035713 Ry

     iteration #  7     ecut=    40.00 Ry     beta=0.70
     Davidson diagonalization with overlap
     ethr =  3.97E-06,  avg # of iterations =  2.0

     total cpu time spent up to now is      167.0 secs

     total energy              =     -95.08616275 Ry
     Harris-Foulkes estimate   =     -95.08616439 Ry
     estimated scf accuracy    <       0.00000760 Ry

     iteration #  8     ecut=    40.00 Ry     beta=0.70
     Davidson diagonalization with overlap
     ethr =  8.45E-08,  avg # of iterations =  1.1

     total cpu time spent up to now is      169.2 secs

     total energy              =     -95.08616071 Ry
     Harris-Foulkes estimate   =     -95.08616294 Ry
     estimated scf accuracy    <       0.00000434 Ry

     iteration #  9     ecut=    40.00 Ry     beta=0.70
     Davidson diagonalization with overlap
     ethr =  4.82E-08,  avg # of iterations =  1.2

     total cpu time spent up to now is      171.5 secs

     total energy              =     -95.08616111 Ry
     Harris-Foulkes estimate   =     -95.08616115 Ry
     estimated scf accuracy    <       0.00000044 Ry

     iteration # 10     ecut=    40.00 Ry     beta=0.70
     Davidson diagonalization with overlap
     ethr =  4.84E-09,  avg # of iterations =  1.0

     total cpu time spent up to now is      173.7 secs

     total energy              =     -95.08616091 Ry
     Harris-Foulkes estimate   =     -95.08616112 Ry
     estimated scf accuracy    <       0.00000034 Ry

     iteration # 11     ecut=    40.00 Ry     beta=0.70
     Davidson diagonalization with overlap
     ethr =  3.83E-09,  avg # of iterations =  2.0

     total cpu time spent up to now is      176.4 secs

     total energy              =     -95.08616097 Ry
     Harris-Foulkes estimate   =     -95.08616097 Ry
     estimated scf accuracy    <          5.7E-09 Ry

     iteration # 12     ecut=    40.00 Ry     beta=0.70
     Davidson diagonalization with overlap
     ethr =  6.39E-11,  avg # of iterations =  1.0

     total cpu time spent up to now is      178.6 secs

     total energy              =     -95.08616097 Ry
     Harris-Foulkes estimate   =     -95.08616097 Ry
     estimated scf accuracy    <          4.7E-09 Ry

     iteration # 13     ecut=    40.00 Ry     beta=0.70
     Davidson diagonalization with overlap
     ethr =  5.25E-11,  avg # of iterations =  2.0

     total cpu time spent up to now is      181.3 secs

     total energy              =     -95.08616097 Ry
     Harris-Foulkes estimate   =     -95.08616097 Ry
     estimated scf accuracy    <          1.1E-10 Ry

     iteration # 14     ecut=    40.00 Ry     beta=0.70
     Davidson diagonalization with overlap
     ethr =  1.21E-12,  avg # of iterations =  1.0

     total cpu time spent up to now is      183.5 secs

     End of self-consistent calculation

     Number of k-points >= 100: set verbosity='high' to print the bands.

     the Fermi energy is     4.1679 ev

!    total energy              =     -95.08616097 Ry
     Harris-Foulkes estimate   =     -95.08616097 Ry
     estimated scf accuracy    <          1.3E-11 Ry

     The total energy is the sum of the following terms:

     one-electron contribution =     -77.12009668 Ry
     hartree contribution      =      39.83086067 Ry
     xc contribution           =     -14.33965277 Ry
     ewald contribution        =     -43.45723892 Ry
     smearing contrib. (-TS)   =      -0.00003326 Ry

     convergence has been achieved in  14 iterations

     Forces acting on atoms (cartesian axes, Ry/au):

     atom    1 type  1   force =     0.00000000    0.00000000    0.00000000

     Total force =     0.000000     Total SCF correction =     0.000000


     Computing stress (Cartesian axis) and pressure

          total   stress  (Ry/bohr**3)                   (kbar)     P=   80.93
   0.00055017  -0.00000000   0.00000000         80.93     -0.00      0.00
  -0.00000000   0.00055017   0.00000000         -0.00     80.93      0.00
   0.00000000   0.00000000   0.00055017          0.00      0.00     80.93


     number of scf cycles    =   5
     number of bfgs steps    =   4

     enthalpy old            =     -95.0012152051 Ry
     enthalpy new            =     -95.0013113474 Ry

     CASE: enthalpy_new < enthalpy_old

     new trust radius        =       0.0022439391 bohr
     new conv_thr            =            1.0E-10 Ry

     new unit-cell volume =    156.44341 a.u.^3 (    23.18252 Ang^3 )
     density =      1.64675 g/cm^3

CELL_PARAMETERS (alat=  8.00000000)
  -0.534587873  -0.000000000   0.534587873
   0.000000000   0.534587873   0.534587873
  -0.534587873   0.534587873  -0.000000000

ATOMIC_POSITIONS (crystal)
Na       0.000000000   0.000000000   0.000000000



     Writing output data file na.fcc.save
     NEW-OLD atomic charge density approx. for the potential
     extrapolated charge    9.02419, renormalised to    9.00000

     total cpu time spent up to now is      185.3 secs

     per-process dynamical memory:    31.6 Mb

     Self-consistent Calculation

     iteration #  1     ecut=    40.00 Ry     beta=0.70
     Davidson diagonalization with overlap
     ethr =  1.00E-06,  avg # of iterations =  2.1

     total cpu time spent up to now is      188.5 secs

     total energy              =     -95.08601918 Ry
     Harris-Foulkes estimate   =     -94.92213234 Ry
     estimated scf accuracy    <       0.00020867 Ry

     iteration #  2     ecut=    40.00 Ry     beta=0.70
     Davidson diagonalization with overlap
     ethr =  2.32E-06,  avg # of iterations =  2.9

     total cpu time spent up to now is      192.0 secs

     total energy              =     -95.08639838 Ry
     Harris-Foulkes estimate   =     -95.08655222 Ry
     estimated scf accuracy    <       0.00035066 Ry

     iteration #  3     ecut=    40.00 Ry     beta=0.70
     Davidson diagonalization with overlap
     ethr =  2.32E-06,  avg # of iterations =  1.5

     total cpu time spent up to now is      194.3 secs

     total energy              =     -95.08640067 Ry
     Harris-Foulkes estimate   =     -95.08642144 Ry
     estimated scf accuracy    <       0.00006813 Ry

     iteration #  4     ecut=    40.00 Ry     beta=0.70
     Davidson diagonalization with overlap
     ethr =  7.57E-07,  avg # of iterations =  1.0

     total cpu time spent up to now is      196.5 secs

     total energy              =     -95.08639655 Ry
     Harris-Foulkes estimate   =     -95.08640314 Ry
     estimated scf accuracy    <       0.00002601 Ry

     iteration #  5     ecut=    40.00 Ry     beta=0.70
     Davidson diagonalization with overlap
     ethr =  2.89E-07,  avg # of iterations =  1.0

     total cpu time spent up to now is      198.7 secs

     total energy              =     -95.08639371 Ry
     Harris-Foulkes estimate   =     -95.08639710 Ry
     estimated scf accuracy    <       0.00001279 Ry

     iteration #  6     ecut=    40.00 Ry     beta=0.70
     Davidson diagonalization with overlap
     ethr =  1.42E-07,  avg # of iterations =  1.0

     total cpu time spent up to now is      200.9 secs

     total energy              =     -95.08639022 Ry
     Harris-Foulkes estimate   =     -95.08639396 Ry
     estimated scf accuracy    <       0.00000613 Ry

     iteration #  7     ecut=    40.00 Ry     beta=0.70
     Davidson diagonalization with overlap
     ethr =  6.81E-08,  avg # of iterations =  2.0

     total cpu time spent up to now is      203.6 secs

     total energy              =     -95.08639115 Ry
     Harris-Foulkes estimate   =     -95.08639119 Ry
     estimated scf accuracy    <       0.00000012 Ry

     iteration #  8     ecut=    40.00 Ry     beta=0.70
     Davidson diagonalization with overlap
     ethr =  1.28E-09,  avg # of iterations =  1.0

     total cpu time spent up to now is      205.8 secs

     total energy              =     -95.08639113 Ry
     Harris-Foulkes estimate   =     -95.08639115 Ry
     estimated scf accuracy    <       0.00000003 Ry

     iteration #  9     ecut=    40.00 Ry     beta=0.70
     Davidson diagonalization with overlap
     ethr =  3.65E-10,  avg # of iterations =  2.0

     total cpu time spent up to now is      208.4 secs

     total energy              =     -95.08639114 Ry
     Harris-Foulkes estimate   =     -95.08639114 Ry
     estimated scf accuracy    <          7.2E-10 Ry

     iteration # 10     ecut=    40.00 Ry     beta=0.70
     Davidson diagonalization with overlap
     ethr =  7.96E-12,  avg # of iterations =  1.0

     total cpu time spent up to now is      210.6 secs

     total energy              =     -95.08639114 Ry
     Harris-Foulkes estimate   =     -95.08639114 Ry
     estimated scf accuracy    <          1.2E-09 Ry

     iteration # 11     ecut=    40.00 Ry     beta=0.70
     Davidson diagonalization with overlap
     ethr =  7.96E-12,  avg # of iterations =  2.0

     total cpu time spent up to now is      213.2 secs

     total energy              =     -95.08639114 Ry
     Harris-Foulkes estimate   =     -95.08639114 Ry
     estimated scf accuracy    <          1.4E-10 Ry

     iteration # 12     ecut=    40.00 Ry     beta=0.70
     Davidson diagonalization with overlap
     ethr =  1.50E-12,  avg # of iterations =  1.0

     total cpu time spent up to now is      215.4 secs

     End of self-consistent calculation

     Number of k-points >= 100: set verbosity='high' to print the bands.

     the Fermi energy is     4.1491 ev

!    total energy              =     -95.08639114 Ry
     Harris-Foulkes estimate   =     -95.08639114 Ry
     estimated scf accuracy    <          5.4E-11 Ry

     The total energy is the sum of the following terms:

     one-electron contribution =     -77.18751525 Ry
     hartree contribution      =      39.85858400 Ry
     xc contribution           =     -14.33918721 Ry
     ewald contribution        =     -43.41823938 Ry
     smearing contrib. (-TS)   =      -0.00003330 Ry

     convergence has been achieved in  12 iterations

     Forces acting on atoms (cartesian axes, Ry/au):

     atom    1 type  1   force =     0.00000000    0.00000000    0.00000000

     Total force =     0.000000     Total SCF correction =     0.000000


     Computing stress (Cartesian axis) and pressure

          total   stress  (Ry/bohr**3)                   (kbar)     P=   80.10
   0.00054449  -0.00000000  -0.00000000         80.10     -0.00     -0.00
  -0.00000000   0.00054449   0.00000000         -0.00     80.10      0.00
  -0.00000000   0.00000000   0.00054449         -0.00      0.00     80.10


     bfgs converged in   6 scf cycles and   5 bfgs steps
     (criteria: energy <  1.0E-04 Ry, force <  1.0E-03Ry/Bohr, cell <  5.0E-01kbar)

     End of BFGS Geometry Optimization

     Final enthalpy =     -95.0013126704 Ry
Begin final coordinates
     new unit-cell volume =    156.44341 a.u.^3 (    23.18252 Ang^3 )
     density =      1.64675 g/cm^3

CELL_PARAMETERS (alat=  8.00000000)
  -0.534587873  -0.000000000   0.534587873
   0.000000000   0.534587873   0.534587873
  -0.534587873   0.534587873  -0.000000000

ATOMIC_POSITIONS (crystal)
Na       0.000000000   0.000000000   0.000000000
End final coordinates



     A final scf calculation at the relaxed structure.
     The G-vectors are recalculated for the final unit cell
     Results may differ from those at the preceding step.

     Parallelization info
     --------------------
     sticks:   dense  smooth     PW     G-vecs:    dense   smooth      PW
     Min         201     102     34                 3771     1332     266
     Max         202     103     35                 3774     1333     267
     Sum         805     409    139                15089     5329    1067



     bravais-lattice index     =            2
     lattice parameter (alat)  =       8.0000  a.u.
     unit-cell volume          =     156.4434 (a.u.)^3
     number of atoms/cell      =            1
     number of atomic types    =            1
     number of electrons       =         9.00
     number of Kohn-Sham states=            9
     kinetic-energy cutoff     =      40.0000  Ry
     charge density cutoff     =     320.0000  Ry
     convergence threshold     =      1.0E-10
     mixing beta               =       0.7000
     number of iterations used =            8  plain     mixing
     Exchange-correlation      = SLA  PW   PBE  PBE ( 1  4  3  4 0 0)

     celldm(1)=   8.000000  celldm(2)=   0.000000  celldm(3)=   0.000000
     celldm(4)=   0.000000  celldm(5)=   0.000000  celldm(6)=   0.000000

     crystal axes: (cart. coord. in units of alat)
               a(1) = (  -0.534588  -0.000000   0.534588 )  
               a(2) = (   0.000000   0.534588   0.534588 )  
               a(3) = (  -0.534588   0.534588  -0.000000 )  

     reciprocal axes: (cart. coord. in units 2 pi/alat)
               b(1) = ( -0.935300 -0.935300  0.935300 )  
               b(2) = (  0.935300  0.935300  0.935300 )  
               b(3) = ( -0.935300  0.935300 -0.935300 )  


     PseudoPot. # 1 for Na read from file:
     /home/s1333534/quantum_espresso/qe-6.1/pseudo/Na_pbe_v1.uspp.F.UPF
     MD5 check sum: 76a99c7e9422403d3e93cbc85ab7bccb
     Pseudo is Ultrasoft, Zval =  9.0
     Generated by new atomic code, or converted to UPF format
     Using radial grid of  819 points,  5 beta functions with: 
                l(1) =   0
                l(2) =   0
                l(3) =   1
                l(4) =   1
                l(5) =   2
     Q(r) pseudized with  8 coefficients,  rinner =    1.250   1.250   1.250
                                                       1.250   1.250

     atomic species   valence    mass     pseudopotential
        Na             9.00    22.99000     Na( 1.00)

     48 Sym. Ops., with inversion, found



   Cartesian axes

     site n.     atom                  positions (alat units)
         1           Na  tau(   1) = (   0.0000000   0.0000000   0.0000000  )

     number of k points=   770  Marzari-Vanderbilt smearing, width (Ry)=  0.0200

     Number of k-points >= 100: set verbosity='high' to print them.

     Dense  grid:    15089 G-vectors     FFT dimensions: (  36,  36,  36)

     Smooth grid:     5329 G-vectors     FFT dimensions: (  25,  25,  25)

     Estimated max dynamical RAM per process >      20.23MB

     Estimated total allocated dynamical RAM >      80.93MB

     Initial potential from superposition of free atoms

     starting charge    8.99371, renormalised to    9.00000
     Starting wfc are    5 randomized atomic wfcs +    4 random wfc

     Writing output data file na.fcc.save

     total cpu time spent up to now is      218.4 secs

     per-process dynamical memory:    35.2 Mb

     Self-consistent Calculation

     iteration #  1     ecut=    40.00 Ry     beta=0.70
     Davidson diagonalization with overlap
     c_bands:  1 eigenvalues not converged
     ethr =  1.00E-06,  avg # of iterations = 10.3

     total cpu time spent up to now is      226.6 secs

     total energy              =     -95.08741842 Ry
     Harris-Foulkes estimate   =     -95.08798006 Ry
     estimated scf accuracy    <       0.00152340 Ry

     iteration #  2     ecut=    40.00 Ry     beta=0.70
     Davidson diagonalization with overlap
     ethr =  1.69E-05,  avg # of iterations =  2.0

     total cpu time spent up to now is      229.4 secs

     total energy              =     -95.08762305 Ry
     Harris-Foulkes estimate   =     -95.08767059 Ry
     estimated scf accuracy    <       0.00017579 Ry

     iteration #  3     ecut=    40.00 Ry     beta=0.70
     Davidson diagonalization with overlap
     ethr =  1.95E-06,  avg # of iterations =  2.0

     total cpu time spent up to now is      232.2 secs

     total energy              =     -95.08764492 Ry
     Harris-Foulkes estimate   =     -95.08764632 Ry
     estimated scf accuracy    <       0.00001025 Ry

     iteration #  4     ecut=    40.00 Ry     beta=0.70
     Davidson diagonalization with overlap
     ethr =  1.14E-07,  avg # of iterations =  1.0

     total cpu time spent up to now is      234.6 secs

     total energy              =     -95.08764582 Ry
     Harris-Foulkes estimate   =     -95.08764576 Ry
     estimated scf accuracy    <       0.00000001 Ry

     iteration #  5     ecut=    40.00 Ry     beta=0.70
     Davidson diagonalization with overlap
     ethr =  1.45E-10,  avg # of iterations =  3.0

     total cpu time spent up to now is      238.0 secs

     total energy              =     -95.08764586 Ry
     Harris-Foulkes estimate   =     -95.08764585 Ry
     estimated scf accuracy    <          1.7E-09 Ry

     iteration #  6     ecut=    40.00 Ry     beta=0.70
     Davidson diagonalization with overlap
     ethr =  1.87E-11,  avg # of iterations =  1.6

     total cpu time spent up to now is      240.5 secs

     End of self-consistent calculation

     Number of k-points >= 100: set verbosity='high' to print the bands.

     the Fermi energy is     4.1500 ev

!    total energy              =     -95.08764586 Ry
     Harris-Foulkes estimate   =     -95.08764586 Ry
     estimated scf accuracy    <          5.7E-11 Ry

     The total energy is the sum of the following terms:

     one-electron contribution =     -77.18834270 Ry
     hartree contribution      =      39.85816120 Ry
     xc contribution           =     -14.33919166 Ry
     ewald contribution        =     -43.41823938 Ry
     smearing contrib. (-TS)   =      -0.00003332 Ry

     convergence has been achieved in   6 iterations

     Forces acting on atoms (cartesian axes, Ry/au):

     atom    1 type  1   force =     0.00000000    0.00000000    0.00000000

     Total force =     0.000000     Total SCF correction =     0.000000


     Computing stress (Cartesian axis) and pressure

          total   stress  (Ry/bohr**3)                   (kbar)     P=   82.46
   0.00056056   0.00000000   0.00000000         82.46      0.00      0.00
   0.00000000   0.00056056  -0.00000000          0.00     82.46     -0.00
   0.00000000  -0.00000000   0.00056056          0.00     -0.00     82.46


     Writing output data file na.fcc.save

     init_run     :      2.35s CPU      2.42s WALL (       2 calls)
     electrons    :    218.52s CPU    227.13s WALL (       7 calls)
     update_pot   :      0.61s CPU      0.61s WALL (       5 calls)
     forces       :      1.12s CPU      1.14s WALL (       7 calls)
     stress       :      5.92s CPU      6.01s WALL (       7 calls)

     Called by init_run:
     wfcinit      :      1.75s CPU      1.82s WALL (       2 calls)
     potinit      :      0.06s CPU      0.06s WALL (       2 calls)

     Called by electrons:
     c_bands      :    181.40s CPU    188.86s WALL (      84 calls)
     sum_band     :     35.75s CPU     36.86s WALL (      84 calls)
     v_of_rho     :      0.71s CPU      0.72s WALL (      90 calls)
     newd         :      0.67s CPU      0.68s WALL (      90 calls)
     mix_rho      :      0.05s CPU      0.05s WALL (      84 calls)

     Called by c_bands:
     init_us_2    :      9.27s CPU      8.64s WALL (  141680 calls)
     cegterg      :    172.22s CPU    179.83s WALL (   64680 calls)

     Called by sum_band:
     sum_band:bec :      0.16s CPU      0.19s WALL (   64680 calls)
     addusdens    :      0.81s CPU      0.82s WALL (      84 calls)

     Called by *egterg:
     h_psi        :    135.43s CPU    141.18s WALL (  188567 calls)
     s_psi        :      2.21s CPU      1.78s WALL (  188567 calls)
     g_psi        :      1.08s CPU      1.00s WALL (  122347 calls)
     cdiaghg      :     23.12s CPU     23.78s WALL (  182407 calls)

     Called by h_psi:
     h_psi:pot    :    134.96s CPU    140.43s WALL (  188567 calls)
     h_psi:calbec :      3.43s CPU      2.97s WALL (  188567 calls)
     vloc_psi     :    129.66s CPU    135.05s WALL (  188567 calls)
     add_vuspsi   :      1.58s CPU      1.95s WALL (  188567 calls)

     General routines
     calbec       :      4.47s CPU      4.28s WALL (  280197 calls)
     fft          :      0.33s CPU      0.34s WALL (    1477 calls)
     ffts         :      0.01s CPU      0.02s WALL (     174 calls)
     fftw         :    145.50s CPU    140.58s WALL ( 3398590 calls)
     interpolate  :      0.06s CPU      0.06s WALL (     174 calls)
     davcio       :      0.01s CPU      0.02s WALL (    1540 calls)

     Parallel routines
     fft_scatter  :     21.78s CPU     26.76s WALL ( 3400241 calls)

     PWSCF        :  3m53.32s CPU     4m 2.64s WALL


   This run was terminated on:  11:30:30  20Dec2017            

=------------------------------------------------------------------------------=
   JOB DONE.
=------------------------------------------------------------------------------=
