
     Program PWSCF v.6.1 (svn rev. 13369) starts on 20Dec2017 at 10:53:32 

     This program is part of the open-source Quantum ESPRESSO suite
     for quantum simulation of materials; please cite
         "P. Giannozzi et al., J. Phys.:Condens. Matter 21 395502 (2009);
          URL http://www.quantum-espresso.org", 
     in publications or presentations arising from this work. More details at
     http://www.quantum-espresso.org/quote

     Parallel version (MPI), running on     4 processors
     R & G space division:  proc/nbgrp/npool/nimage =       4
     Waiting for input...
     Reading input from standard input

     Current dimensions of program PWSCF are:
     Max number of different atomic species (ntypx) = 10
     Max number of k-points (npk) =  40000
     Max angular momentum in pseudopotentials (lmaxx) =  3

     Subspace diagonalization in iterative solution of the eigenvalue problem:
     a serial algorithm will be used


     Parallelization info
     --------------------
     sticks:   dense  smooth     PW     G-vecs:    dense   smooth      PW
     Min         175      90     30                 3084     1095     234
     Max         176      91     31                 3086     1096     238
     Sum         703     361    121                12339     4381     941



     bravais-lattice index     =            2
     lattice parameter (alat)  =       8.0000  a.u.
     unit-cell volume          =     128.0000 (a.u.)^3
     number of atoms/cell      =            1
     number of atomic types    =            1
     number of electrons       =         9.00
     number of Kohn-Sham states=            9
     kinetic-energy cutoff     =      40.0000  Ry
     charge density cutoff     =     320.0000  Ry
     convergence threshold     =      1.0E-08
     mixing beta               =       0.7000
     number of iterations used =            8  plain     mixing
     Exchange-correlation      = SLA  PW   PBE  PBE ( 1  4  3  4 0 0)
     nstep                     =           50


     celldm(1)=   8.000000  celldm(2)=   0.000000  celldm(3)=   0.000000
     celldm(4)=   0.000000  celldm(5)=   0.000000  celldm(6)=   0.000000

     crystal axes: (cart. coord. in units of alat)
               a(1) = (  -0.500000   0.000000   0.500000 )  
               a(2) = (   0.000000   0.500000   0.500000 )  
               a(3) = (  -0.500000   0.500000   0.000000 )  

     reciprocal axes: (cart. coord. in units 2 pi/alat)
               b(1) = ( -1.000000 -1.000000  1.000000 )  
               b(2) = (  1.000000  1.000000  1.000000 )  
               b(3) = ( -1.000000  1.000000 -1.000000 )  


     PseudoPot. # 1 for Na read from file:
     /home/s1333534/quantum_espresso/qe-6.1/pseudo/Na_pbe_v1.uspp.F.UPF
     MD5 check sum: 76a99c7e9422403d3e93cbc85ab7bccb
     Pseudo is Ultrasoft, Zval =  9.0
     Generated by new atomic code, or converted to UPF format
     Using radial grid of  819 points,  5 beta functions with: 
                l(1) =   0
                l(2) =   0
                l(3) =   1
                l(4) =   1
                l(5) =   2
     Q(r) pseudized with  8 coefficients,  rinner =    1.250   1.250   1.250
                                                       1.250   1.250

     atomic species   valence    mass     pseudopotential
        Na             9.00    22.99000     Na( 1.00)

     48 Sym. Ops., with inversion, found



   Cartesian axes

     site n.     atom                  positions (alat units)
         1           Na  tau(   1) = (   0.0000000   0.0000000   0.0000000  )

     number of k points=   770  Marzari-Vanderbilt smearing, width (Ry)=  0.0200

     Number of k-points >= 100: set verbosity='high' to print them.

     Dense  grid:    12339 G-vectors     FFT dimensions: (  36,  36,  36)

     Smooth grid:     4381 G-vectors     FFT dimensions: (  24,  24,  24)

     Estimated max dynamical RAM per process >      16.64MB

     Estimated total allocated dynamical RAM >      66.55MB

     Initial potential from superposition of free atoms

     starting charge    8.99371, renormalised to    9.00000
     Starting wfc are    5 randomized atomic wfcs +    4 random wfc

     total cpu time spent up to now is        1.2 secs

     per-process dynamical memory:    24.8 Mb

     Self-consistent Calculation

     iteration #  1     ecut=    40.00 Ry     beta=0.70
     Davidson diagonalization with overlap
     ethr =  1.00E-02,  avg # of iterations =  5.1

     Threshold (ethr) on eigenvalues was too large:
     Diagonalizing with lowered threshold

     Davidson diagonalization with overlap
     ethr =  2.47E-05,  avg # of iterations =  2.4

     total cpu time spent up to now is        8.3 secs

     total energy              =     -95.06263719 Ry
     Harris-Foulkes estimate   =     -95.06346383 Ry
     estimated scf accuracy    <       0.00221907 Ry

     iteration #  2     ecut=    40.00 Ry     beta=0.70
     Davidson diagonalization with overlap
     ethr =  2.47E-05,  avg # of iterations =  2.0

     total cpu time spent up to now is       10.8 secs

     total energy              =     -95.06293327 Ry
     Harris-Foulkes estimate   =     -95.06299962 Ry
     estimated scf accuracy    <       0.00025023 Ry

     iteration #  3     ecut=    40.00 Ry     beta=0.70
     Davidson diagonalization with overlap
     ethr =  2.78E-06,  avg # of iterations =  2.1

     total cpu time spent up to now is       13.4 secs

     total energy              =     -95.06296602 Ry
     Harris-Foulkes estimate   =     -95.06296754 Ry
     estimated scf accuracy    <       0.00001446 Ry

     iteration #  4     ecut=    40.00 Ry     beta=0.70
     Davidson diagonalization with overlap
     ethr =  1.61E-07,  avg # of iterations =  1.0

     total cpu time spent up to now is       15.6 secs

     total energy              =     -95.06296732 Ry
     Harris-Foulkes estimate   =     -95.06296725 Ry
     estimated scf accuracy    <       0.00000002 Ry

     iteration #  5     ecut=    40.00 Ry     beta=0.70
     Davidson diagonalization with overlap
     ethr =  2.20E-10,  avg # of iterations =  3.0

     total cpu time spent up to now is       18.8 secs

     End of self-consistent calculation

     Number of k-points >= 100: set verbosity='high' to print the bands.

     the Fermi energy is     5.7098 ev

!    total energy              =     -95.06296737 Ry
     Harris-Foulkes estimate   =     -95.06296737 Ry
     estimated scf accuracy    <          2.7E-09 Ry

     The total energy is the sum of the following terms:

     one-electron contribution =     -72.01868817 Ry
     hartree contribution      =      37.75480527 Ry
     xc contribution           =     -14.37732448 Ry
     ewald contribution        =     -46.42172850 Ry
     smearing contrib. (-TS)   =      -0.00003149 Ry

     convergence has been achieved in   5 iterations

     Forces acting on atoms (cartesian axes, Ry/au):

     atom    1 type  1   force =     0.00000000    0.00000000    0.00000000

     Total force =     0.000000     Total SCF correction =     0.000000


     Computing stress (Cartesian axis) and pressure

          total   stress  (Ry/bohr**3)                   (kbar)     P=  175.59
   0.00119366   0.00000000   0.00000000        175.59      0.00      0.00
   0.00000000   0.00119366  -0.00000000          0.00    175.59     -0.00
   0.00000000  -0.00000000   0.00119366          0.00     -0.00    175.59


     BFGS Geometry Optimization

     number of scf cycles    =   1
     number of bfgs steps    =   0

     enthalpy new            =     -95.0542661055 Ry

     new trust radius        =       0.0636783779 bohr
     new conv_thr            =       0.0000000100 Ry

     new unit-cell volume =    139.11355 a.u.^3 (    20.61450 Ang^3 )
     density =      1.85189 g/cm^3

CELL_PARAMETERS (alat=  8.00000000)
  -0.514071067  -0.000000000   0.514071067
   0.000000000   0.514071067   0.514071067
  -0.514071067   0.514071067  -0.000000000

ATOMIC_POSITIONS (crystal)
Na       0.000000000   0.000000000   0.000000000



     Writing output data file na.fcc.save
     NEW-OLD atomic charge density approx. for the potential
     extrapolated charge    9.71849, renormalised to    9.00000

     total cpu time spent up to now is       20.7 secs

     per-process dynamical memory:    31.6 Mb

     Self-consistent Calculation

     iteration #  1     ecut=    40.00 Ry     beta=0.70
     Davidson diagonalization with overlap
     ethr =  1.00E-06,  avg # of iterations =  4.5

     total cpu time spent up to now is       25.3 secs

     total energy              =     -94.63836358 Ry
     Harris-Foulkes estimate   =     -90.37499644 Ry
     estimated scf accuracy    <       0.24490374 Ry

     iteration #  2     ecut=    40.00 Ry     beta=0.70
     Davidson diagonalization with overlap
     ethr =  2.72E-03,  avg # of iterations =  3.0

     total cpu time spent up to now is       28.7 secs

     total energy              =     -95.09417445 Ry
     Harris-Foulkes estimate   =     -95.27241008 Ry
     estimated scf accuracy    <       0.40393121 Ry

     iteration #  3     ecut=    40.00 Ry     beta=0.70
     Davidson diagonalization with overlap
     ethr =  2.72E-03,  avg # of iterations =  1.0

     total cpu time spent up to now is       31.0 secs

     total energy              =     -95.08409191 Ry
     Harris-Foulkes estimate   =     -95.11665947 Ry
     estimated scf accuracy    <       0.09129887 Ry

     iteration #  4     ecut=    40.00 Ry     beta=0.70
     Davidson diagonalization with overlap
     ethr =  1.01E-03,  avg # of iterations =  1.0

     total cpu time spent up to now is       33.2 secs

     total energy              =     -95.08328070 Ry
     Harris-Foulkes estimate   =     -95.08815932 Ry
     estimated scf accuracy    <       0.02913671 Ry

     iteration #  5     ecut=    40.00 Ry     beta=0.70
     Davidson diagonalization with overlap
     ethr =  3.24E-04,  avg # of iterations =  1.0

     total cpu time spent up to now is       35.4 secs

     total energy              =     -95.07857217 Ry
     Harris-Foulkes estimate   =     -95.08364605 Ry
     estimated scf accuracy    <       0.01965536 Ry

     iteration #  6     ecut=    40.00 Ry     beta=0.70
     Davidson diagonalization with overlap
     ethr =  2.18E-04,  avg # of iterations =  1.0

     total cpu time spent up to now is       37.6 secs

     total energy              =     -95.07275595 Ry
     Harris-Foulkes estimate   =     -95.07893229 Ry
     estimated scf accuracy    <       0.00979236 Ry

     iteration #  7     ecut=    40.00 Ry     beta=0.70
     Davidson diagonalization with overlap
     ethr =  1.09E-04,  avg # of iterations =  2.0

     total cpu time spent up to now is       40.2 secs

     total energy              =     -95.07435660 Ry
     Harris-Foulkes estimate   =     -95.07442010 Ry
     estimated scf accuracy    <       0.00014265 Ry

     iteration #  8     ecut=    40.00 Ry     beta=0.70
     Davidson diagonalization with overlap
     ethr =  1.59E-06,  avg # of iterations =  2.4

     total cpu time spent up to now is       42.8 secs

     total energy              =     -95.07434975 Ry
     Harris-Foulkes estimate   =     -95.07436853 Ry
     estimated scf accuracy    <       0.00002453 Ry

     iteration #  9     ecut=    40.00 Ry     beta=0.70
     Davidson diagonalization with overlap
     ethr =  2.73E-07,  avg # of iterations =  2.0

     total cpu time spent up to now is       45.6 secs

     total energy              =     -95.07437588 Ry
     Harris-Foulkes estimate   =     -95.07437756 Ry
     estimated scf accuracy    <       0.00004584 Ry

     iteration # 10     ecut=    40.00 Ry     beta=0.70
     Davidson diagonalization with overlap
     ethr =  2.73E-07,  avg # of iterations =  1.0

     total cpu time spent up to now is       47.8 secs

     total energy              =     -95.07435490 Ry
     Harris-Foulkes estimate   =     -95.07437591 Ry
     estimated scf accuracy    <       0.00004270 Ry

     iteration # 11     ecut=    40.00 Ry     beta=0.70
     Davidson diagonalization with overlap
     ethr =  2.73E-07,  avg # of iterations =  2.0

     total cpu time spent up to now is       50.5 secs

     total energy              =     -95.07435723 Ry
     Harris-Foulkes estimate   =     -95.07435937 Ry
     estimated scf accuracy    <       0.00000345 Ry

     iteration # 12     ecut=    40.00 Ry     beta=0.70
     Davidson diagonalization with overlap
     ethr =  3.83E-08,  avg # of iterations =  2.0

     total cpu time spent up to now is       53.2 secs

     total energy              =     -95.07435846 Ry
     Harris-Foulkes estimate   =     -95.07435833 Ry
     estimated scf accuracy    <       0.00000068 Ry

     iteration # 13     ecut=    40.00 Ry     beta=0.70
     Davidson diagonalization with overlap
     ethr =  7.54E-09,  avg # of iterations =  1.0

     total cpu time spent up to now is       55.4 secs

     total energy              =     -95.07435793 Ry
     Harris-Foulkes estimate   =     -95.07435847 Ry
     estimated scf accuracy    <       0.00000122 Ry

     iteration # 14     ecut=    40.00 Ry     beta=0.70
     Davidson diagonalization with overlap
     ethr =  7.54E-09,  avg # of iterations =  2.0

     total cpu time spent up to now is       58.1 secs

     End of self-consistent calculation

     Number of k-points >= 100: set verbosity='high' to print the bands.

     the Fermi energy is     5.0201 ev

!    total energy              =     -95.07435811 Ry
     Harris-Foulkes estimate   =     -95.07435811 Ry
     estimated scf accuracy    <          3.1E-09 Ry

     The total energy is the sum of the following terms:

     one-electron contribution =     -74.19990961 Ry
     hartree contribution      =      38.63734165 Ry
     xc contribution           =     -14.36067752 Ry
     ewald contribution        =     -45.15108077 Ry
     smearing contrib. (-TS)   =      -0.00003187 Ry

     convergence has been achieved in  14 iterations

     Forces acting on atoms (cartesian axes, Ry/au):

     atom    1 type  1   force =     0.00000000    0.00000000    0.00000000

     Total force =     0.000000     Total SCF correction =     0.000000


     Computing stress (Cartesian axis) and pressure

          total   stress  (Ry/bohr**3)                   (kbar)     P=  127.75
   0.00086840   0.00000000   0.00000000        127.75      0.00      0.00
   0.00000000   0.00086840  -0.00000000          0.00    127.75     -0.00
   0.00000000  -0.00000000   0.00086840          0.00     -0.00    127.75


     number of scf cycles    =   2
     number of bfgs steps    =   1

     enthalpy old            =     -95.0542661055 Ry
     enthalpy new            =     -95.0649013604 Ry

     CASE: enthalpy_new < enthalpy_old

     new trust radius        =       0.0710250021 bohr
     new conv_thr            =            1.0E-10 Ry

     new unit-cell volume =    152.06141 a.u.^3 (    22.53318 Ang^3 )
     density =      1.69420 g/cm^3

CELL_PARAMETERS (alat=  8.00000000)
  -0.529549240  -0.000000000   0.529549240
   0.000000000   0.529549240   0.529549240
  -0.529549240   0.529549240  -0.000000000

ATOMIC_POSITIONS (crystal)
Na       0.000000000   0.000000000   0.000000000



     Writing output data file na.fcc.save
     NEW-OLD atomic charge density approx. for the potential
     extrapolated charge    9.76580, renormalised to    9.00000

     total cpu time spent up to now is       59.9 secs

     per-process dynamical memory:    31.6 Mb

     Self-consistent Calculation

     iteration #  1     ecut=    40.00 Ry     beta=0.70
     Davidson diagonalization with overlap
     ethr =  1.00E-06,  avg # of iterations =  4.6

     total cpu time spent up to now is       64.6 secs

     total energy              =     -94.56629968 Ry
     Harris-Foulkes estimate   =     -89.91325662 Ry
     estimated scf accuracy    <       0.29100915 Ry

     iteration #  2     ecut=    40.00 Ry     beta=0.70
     Davidson diagonalization with overlap
     ethr =  3.23E-03,  avg # of iterations =  3.0

     total cpu time spent up to now is       68.0 secs

     total energy              =     -95.10844571 Ry
     Harris-Foulkes estimate   =     -95.31960649 Ry
     estimated scf accuracy    <       0.47783128 Ry

     iteration #  3     ecut=    40.00 Ry     beta=0.70
     Davidson diagonalization with overlap
     ethr =  3.23E-03,  avg # of iterations =  1.0

     total cpu time spent up to now is       70.2 secs

     total energy              =     -95.09524891 Ry
     Harris-Foulkes estimate   =     -95.13470748 Ry
     estimated scf accuracy    <       0.10908790 Ry

     iteration #  4     ecut=    40.00 Ry     beta=0.70
     Davidson diagonalization with overlap
     ethr =  1.21E-03,  avg # of iterations =  1.0

     total cpu time spent up to now is       72.5 secs

     total energy              =     -95.09371742 Ry
     Harris-Foulkes estimate   =     -95.10016119 Ry
     estimated scf accuracy    <       0.03433149 Ry

     iteration #  5     ecut=    40.00 Ry     beta=0.70
     Davidson diagonalization with overlap
     ethr =  3.81E-04,  avg # of iterations =  1.0

     total cpu time spent up to now is       74.7 secs

     total energy              =     -95.08784825 Ry
     Harris-Foulkes estimate   =     -95.09420987 Ry
     estimated scf accuracy    <       0.02168331 Ry

     iteration #  6     ecut=    40.00 Ry     beta=0.70
     Davidson diagonalization with overlap
     ethr =  2.41E-04,  avg # of iterations =  1.0

     total cpu time spent up to now is       76.9 secs

     total energy              =     -95.08199102 Ry
     Harris-Foulkes estimate   =     -95.08834829 Ry
     estimated scf accuracy    <       0.00960012 Ry

     iteration #  7     ecut=    40.00 Ry     beta=0.70
     Davidson diagonalization with overlap
     ethr =  1.07E-04,  avg # of iterations =  2.0

     total cpu time spent up to now is       79.5 secs

     total energy              =     -95.08386600 Ry
     Harris-Foulkes estimate   =     -95.08387353 Ry
     estimated scf accuracy    <       0.00003457 Ry

     iteration #  8     ecut=    40.00 Ry     beta=0.70
     Davidson diagonalization with overlap
     ethr =  3.84E-07,  avg # of iterations =  2.6

     total cpu time spent up to now is       82.6 secs

     total energy              =     -95.08386031 Ry
     Harris-Foulkes estimate   =     -95.08387627 Ry
     estimated scf accuracy    <       0.00005619 Ry

     iteration #  9     ecut=    40.00 Ry     beta=0.70
     Davidson diagonalization with overlap
     ethr =  3.84E-07,  avg # of iterations =  1.4

     total cpu time spent up to now is       84.9 secs

     total energy              =     -95.08386267 Ry
     Harris-Foulkes estimate   =     -95.08386331 Ry
     estimated scf accuracy    <       0.00000274 Ry

     iteration # 10     ecut=    40.00 Ry     beta=0.70
     Davidson diagonalization with overlap
     ethr =  3.04E-08,  avg # of iterations =  2.0

     total cpu time spent up to now is       87.7 secs

     total energy              =     -95.08386020 Ry
     Harris-Foulkes estimate   =     -95.08386738 Ry
     estimated scf accuracy    <       0.00001184 Ry

     iteration # 11     ecut=    40.00 Ry     beta=0.70
     Davidson diagonalization with overlap
     ethr =  3.04E-08,  avg # of iterations =  2.0

     total cpu time spent up to now is       90.4 secs

     total energy              =     -95.08386218 Ry
     Harris-Foulkes estimate   =     -95.08386225 Ry
     estimated scf accuracy    <       0.00000008 Ry

     iteration # 12     ecut=    40.00 Ry     beta=0.70
     Davidson diagonalization with overlap
     ethr =  9.25E-10,  avg # of iterations =  2.0

     total cpu time spent up to now is       93.1 secs

     total energy              =     -95.08386221 Ry
     Harris-Foulkes estimate   =     -95.08386222 Ry
     estimated scf accuracy    <       0.00000003 Ry

     iteration # 13     ecut=    40.00 Ry     beta=0.70
     Davidson diagonalization with overlap
     ethr =  3.47E-10,  avg # of iterations =  1.0

     total cpu time spent up to now is       95.3 secs

     total energy              =     -95.08386221 Ry
     Harris-Foulkes estimate   =     -95.08386221 Ry
     estimated scf accuracy    <       0.00000001 Ry

     iteration # 14     ecut=    40.00 Ry     beta=0.70
     Davidson diagonalization with overlap
     ethr =  1.25E-10,  avg # of iterations =  1.1

     total cpu time spent up to now is       97.5 secs

     total energy              =     -95.08386221 Ry
     Harris-Foulkes estimate   =     -95.08386221 Ry
     estimated scf accuracy    <          5.1E-10 Ry

     iteration # 15     ecut=    40.00 Ry     beta=0.70
     Davidson diagonalization with overlap
     ethr =  5.61E-12,  avg # of iterations =  2.0

     total cpu time spent up to now is      100.2 secs

     End of self-consistent calculation

     Number of k-points >= 100: set verbosity='high' to print the bands.

     the Fermi energy is     4.3497 ev

!    total energy              =     -95.08386221 Ry
     Harris-Foulkes estimate   =     -95.08386221 Ry
     estimated scf accuracy    <          1.0E-11 Ry

     The total energy is the sum of the following terms:

     one-electron contribution =     -76.47395236 Ry
     hartree contribution      =      39.56568664 Ry
     xc contribution           =     -14.34420197 Ry
     ewald contribution        =     -43.83136165 Ry
     smearing contrib. (-TS)   =      -0.00003287 Ry

     convergence has been achieved in  15 iterations

     Forces acting on atoms (cartesian axes, Ry/au):

     atom    1 type  1   force =     0.00000000    0.00000000    0.00000000

     Total force =     0.000000     Total SCF correction =     0.000000


     Computing stress (Cartesian axis) and pressure

          total   stress  (Ry/bohr**3)                   (kbar)     P=   90.03
   0.00061201  -0.00000000   0.00000000         90.03     -0.00      0.00
  -0.00000000   0.00061201   0.00000000         -0.00     90.03      0.00
   0.00000000   0.00000000   0.00061201          0.00      0.00     90.03


     number of scf cycles    =   3
     number of bfgs steps    =   2

     enthalpy old            =     -95.0649013604 Ry
     enthalpy new            =     -95.0735252850 Ry

     CASE: enthalpy_new < enthalpy_old

     new trust radius        =       0.1081294785 bohr
     new conv_thr            =            1.0E-10 Ry

     new unit-cell volume =    172.95181 a.u.^3 (    25.62881 Ang^3 )
     density =      1.48957 g/cm^3

CELL_PARAMETERS (alat=  8.00000000)
  -0.552766500  -0.000000000   0.552766500
   0.000000000   0.552766500   0.552766500
  -0.552766500   0.552766500  -0.000000000

ATOMIC_POSITIONS (crystal)
Na       0.000000000   0.000000000   0.000000000



     Writing output data file na.fcc.save
     NEW-OLD atomic charge density approx. for the potential
     extrapolated charge   10.08633, renormalised to    9.00000

     total cpu time spent up to now is      102.1 secs

     per-process dynamical memory:    31.6 Mb

     Self-consistent Calculation

     iteration #  1     ecut=    40.00 Ry     beta=0.70
     Davidson diagonalization with overlap
     ethr =  1.00E-06,  avg # of iterations =  5.0

     total cpu time spent up to now is      107.0 secs

     total energy              =     -93.78581594 Ry
     Harris-Foulkes estimate   =     -87.45639020 Ry
     estimated scf accuracy    <       0.74838411 Ry

     iteration #  2     ecut=    40.00 Ry     beta=0.70
     Davidson diagonalization with overlap
     ethr =  8.32E-03,  avg # of iterations =  3.0

     total cpu time spent up to now is      110.3 secs

     total energy              =     -95.17284758 Ry
     Harris-Foulkes estimate   =     -95.70068048 Ry
     estimated scf accuracy    <       1.17901017 Ry

     iteration #  3     ecut=    40.00 Ry     beta=0.70
     Davidson diagonalization with overlap
     ethr =  8.32E-03,  avg # of iterations =  1.0

     total cpu time spent up to now is      112.5 secs

     total energy              =     -95.12159404 Ry
     Harris-Foulkes estimate   =     -95.23231190 Ry
     estimated scf accuracy    <       0.28638119 Ry

     iteration #  4     ecut=    40.00 Ry     beta=0.70
     Davidson diagonalization with overlap
     ethr =  3.18E-03,  avg # of iterations =  1.0

     total cpu time spent up to now is      114.7 secs

     total energy              =     -95.11658458 Ry
     Harris-Foulkes estimate   =     -95.13491373 Ry
     estimated scf accuracy    <       0.08515840 Ry

     iteration #  5     ecut=    40.00 Ry     beta=0.70
     Davidson diagonalization with overlap
     ethr =  9.46E-04,  avg # of iterations =  1.0

     total cpu time spent up to now is      116.9 secs

     total energy              =     -95.09878157 Ry
     Harris-Foulkes estimate   =     -95.11798424 Ry
     estimated scf accuracy    <       0.04960574 Ry

     iteration #  6     ecut=    40.00 Ry     beta=0.70
     Davidson diagonalization with overlap
     ethr =  5.51E-04,  avg # of iterations =  1.0

     total cpu time spent up to now is      119.1 secs

     total energy              =     -95.09013073 Ry
     Harris-Foulkes estimate   =     -95.10079890 Ry
     estimated scf accuracy    <       0.01513947 Ry

     iteration #  7     ecut=    40.00 Ry     beta=0.70
     Davidson diagonalization with overlap
     ethr =  1.68E-04,  avg # of iterations =  2.0

     total cpu time spent up to now is      121.8 secs

     total energy              =     -95.09367793 Ry
     Harris-Foulkes estimate   =     -95.09368227 Ry
     estimated scf accuracy    <       0.00002468 Ry

     iteration #  8     ecut=    40.00 Ry     beta=0.70
     Davidson diagonalization with overlap
     ethr =  2.74E-07,  avg # of iterations =  3.4

     total cpu time spent up to now is      125.0 secs

     total energy              =     -95.09367502 Ry
     Harris-Foulkes estimate   =     -95.09367986 Ry
     estimated scf accuracy    <       0.00001487 Ry

     iteration #  9     ecut=    40.00 Ry     beta=0.70
     Davidson diagonalization with overlap
     ethr =  1.65E-07,  avg # of iterations =  1.0

     total cpu time spent up to now is      127.2 secs

     total energy              =     -95.09367500 Ry
     Harris-Foulkes estimate   =     -95.09367593 Ry
     estimated scf accuracy    <       0.00000498 Ry

     iteration # 10     ecut=    40.00 Ry     beta=0.70
     Davidson diagonalization with overlap
     ethr =  5.53E-08,  avg # of iterations =  2.0

     total cpu time spent up to now is      129.9 secs

     total energy              =     -95.09367668 Ry
     Harris-Foulkes estimate   =     -95.09367772 Ry
     estimated scf accuracy    <       0.00000599 Ry

     iteration # 11     ecut=    40.00 Ry     beta=0.70
     Davidson diagonalization with overlap
     ethr =  5.53E-08,  avg # of iterations =  1.0

     total cpu time spent up to now is      132.1 secs

     total energy              =     -95.09367461 Ry
     Harris-Foulkes estimate   =     -95.09367673 Ry
     estimated scf accuracy    <       0.00000372 Ry

     iteration # 12     ecut=    40.00 Ry     beta=0.70
     Davidson diagonalization with overlap
     ethr =  4.13E-08,  avg # of iterations =  2.0

     total cpu time spent up to now is      134.8 secs

     total energy              =     -95.09367517 Ry
     Harris-Foulkes estimate   =     -95.09367520 Ry
     estimated scf accuracy    <       0.00000007 Ry

     iteration # 13     ecut=    40.00 Ry     beta=0.70
     Davidson diagonalization with overlap
     ethr =  8.19E-10,  avg # of iterations =  2.0

     total cpu time spent up to now is      137.5 secs

     total energy              =     -95.09367518 Ry
     Harris-Foulkes estimate   =     -95.09367518 Ry
     estimated scf accuracy    <          3.8E-09 Ry

     iteration # 14     ecut=    40.00 Ry     beta=0.70
     Davidson diagonalization with overlap
     ethr =  4.17E-11,  avg # of iterations =  1.0

     total cpu time spent up to now is      139.7 secs

     total energy              =     -95.09367518 Ry
     Harris-Foulkes estimate   =     -95.09367518 Ry
     estimated scf accuracy    <          4.0E-09 Ry

     iteration # 15     ecut=    40.00 Ry     beta=0.70
     Davidson diagonalization with overlap
     ethr =  4.17E-11,  avg # of iterations =  1.9

     total cpu time spent up to now is      142.2 secs

     total energy              =     -95.09367518 Ry
     Harris-Foulkes estimate   =     -95.09367518 Ry
     estimated scf accuracy    <          2.6E-10 Ry

     iteration # 16     ecut=    40.00 Ry     beta=0.70
     Davidson diagonalization with overlap
     ethr =  2.88E-12,  avg # of iterations =  1.0

     total cpu time spent up to now is      144.4 secs

     total energy              =     -95.09367518 Ry
     Harris-Foulkes estimate   =     -95.09367518 Ry
     estimated scf accuracy    <          3.1E-10 Ry

     iteration # 17     ecut=    40.00 Ry     beta=0.70
     Davidson diagonalization with overlap
     ethr =  2.88E-12,  avg # of iterations =  1.6

     total cpu time spent up to now is      146.7 secs

     total energy              =     -95.09367518 Ry
     Harris-Foulkes estimate   =     -95.09367518 Ry
     estimated scf accuracy    <          7.0E-10 Ry

     iteration # 18     ecut=    40.00 Ry     beta=0.70
     Davidson diagonalization with overlap
     ethr =  2.88E-12,  avg # of iterations =  2.0

     total cpu time spent up to now is      149.5 secs

     total energy              =     -95.09367518 Ry
     Harris-Foulkes estimate   =     -95.09367518 Ry
     estimated scf accuracy    <          1.8E-10 Ry

     iteration # 19     ecut=    40.00 Ry     beta=0.70
     Davidson diagonalization with overlap
     ethr =  2.00E-12,  avg # of iterations =  1.7

     total cpu time spent up to now is      151.9 secs

     End of self-consistent calculation

     Number of k-points >= 100: set verbosity='high' to print the bands.

     the Fermi energy is     3.4893 ev

!    total energy              =     -95.09367518 Ry
     Harris-Foulkes estimate   =     -95.09367518 Ry
     estimated scf accuracy    <          6.0E-14 Ry

     The total energy is the sum of the following terms:

     one-electron contribution =     -79.66021045 Ry
     hartree contribution      =      40.87931206 Ry
     xc contribution           =     -14.32238168 Ry
     ewald contribution        =     -41.99035986 Ry
     smearing contrib. (-TS)   =      -0.00003525 Ry

     convergence has been achieved in  19 iterations

     Forces acting on atoms (cartesian axes, Ry/au):

     atom    1 type  1   force =     0.00000000    0.00000000    0.00000000

     Total force =     0.000000     Total SCF correction =     0.000000


     Computing stress (Cartesian axis) and pressure

          total   stress  (Ry/bohr**3)                   (kbar)     P=   52.00
   0.00035348   0.00000000  -0.00000000         52.00      0.00     -0.00
   0.00000000   0.00035348   0.00000000          0.00     52.00      0.00
  -0.00000000   0.00000000   0.00035348         -0.00      0.00     52.00


     number of scf cycles    =   4
     number of bfgs steps    =   3

     enthalpy old            =     -95.0735252850 Ry
     enthalpy new            =     -95.0819181546 Ry

     CASE: enthalpy_new < enthalpy_old

     new trust radius        =       0.1475332037 bohr
     new conv_thr            =            1.0E-10 Ry

     new unit-cell volume =    203.71817 a.u.^3 (    30.18792 Ang^3 )
     density =      1.26460 g/cm^3

CELL_PARAMETERS (alat=  8.00000000)
  -0.583772015  -0.000000000   0.583772015
   0.000000000   0.583772015   0.583772015
  -0.583772015   0.583772015  -0.000000000

ATOMIC_POSITIONS (crystal)
Na       0.000000000   0.000000000   0.000000000



     Writing output data file na.fcc.save
     NEW-OLD atomic charge density approx. for the potential
     extrapolated charge   10.35827, renormalised to    9.00000

     total cpu time spent up to now is      153.7 secs

     per-process dynamical memory:    31.6 Mb

     Self-consistent Calculation

     iteration #  1     ecut=    40.00 Ry     beta=0.70
     Davidson diagonalization with overlap
     ethr =  1.00E-06,  avg # of iterations =  5.3

     total cpu time spent up to now is      159.0 secs

     total energy              =     -92.40892618 Ry
     Harris-Foulkes estimate   =     -85.11248495 Ry
     estimated scf accuracy    <       1.58818797 Ry

     iteration #  2     ecut=    40.00 Ry     beta=0.70
     Davidson diagonalization with overlap
     ethr =  1.00E-02,  avg # of iterations =  3.0

     total cpu time spent up to now is      162.6 secs

     total energy              =     -95.29770164 Ry
     Harris-Foulkes estimate   =     -96.36844018 Ry
     estimated scf accuracy    <       2.34217007 Ry

     iteration #  3     ecut=    40.00 Ry     beta=0.70
     Davidson diagonalization with overlap
     ethr =  1.00E-02,  avg # of iterations =  2.0

     total cpu time spent up to now is      165.1 secs

     total energy              =     -95.15537710 Ry
     Harris-Foulkes estimate   =     -95.40669704 Ry
     estimated scf accuracy    <       0.59577380 Ry

     iteration #  4     ecut=    40.00 Ry     beta=0.70
     Davidson diagonalization with overlap
     ethr =  6.62E-03,  avg # of iterations =  1.0

     total cpu time spent up to now is      167.3 secs

     total energy              =     -95.13980383 Ry
     Harris-Foulkes estimate   =     -95.18301975 Ry
     estimated scf accuracy    <       0.16516787 Ry

     iteration #  5     ecut=    40.00 Ry     beta=0.70
     Davidson diagonalization with overlap
     ethr =  1.84E-03,  avg # of iterations =  1.0

     total cpu time spent up to now is      169.5 secs

     total energy              =     -95.11793538 Ry
     Harris-Foulkes estimate   =     -95.14312984 Ry
     estimated scf accuracy    <       0.08377400 Ry

     iteration #  6     ecut=    40.00 Ry     beta=0.70
     Davidson diagonalization with overlap
     ethr =  9.31E-04,  avg # of iterations =  1.0

     total cpu time spent up to now is      171.7 secs

     total energy              =     -95.09499391 Ry
     Harris-Foulkes estimate   =     -95.11978756 Ry
     estimated scf accuracy    <       0.03792620 Ry

     iteration #  7     ecut=    40.00 Ry     beta=0.70
     Davidson diagonalization with overlap
     ethr =  4.21E-04,  avg # of iterations =  2.0

     total cpu time spent up to now is      174.4 secs

     total energy              =     -95.10195458 Ry
     Harris-Foulkes estimate   =     -95.10137076 Ry
     estimated scf accuracy    <       0.00046382 Ry

     iteration #  8     ecut=    40.00 Ry     beta=0.70
     Davidson diagonalization with overlap
     ethr =  5.15E-06,  avg # of iterations =  3.3

     total cpu time spent up to now is      177.8 secs

     total energy              =     -95.10150103 Ry
     Harris-Foulkes estimate   =     -95.10206577 Ry
     estimated scf accuracy    <       0.00187464 Ry

     iteration #  9     ecut=    40.00 Ry     beta=0.70
     Davidson diagonalization with overlap
     ethr =  5.15E-06,  avg # of iterations =  1.2

     total cpu time spent up to now is      180.1 secs

     total energy              =     -95.10104464 Ry
     Harris-Foulkes estimate   =     -95.10154783 Ry
     estimated scf accuracy    <       0.00081229 Ry

     iteration # 10     ecut=    40.00 Ry     beta=0.70
     Davidson diagonalization with overlap
     ethr =  5.15E-06,  avg # of iterations =  2.0

     total cpu time spent up to now is      182.8 secs

     total energy              =     -95.10115148 Ry
     Harris-Foulkes estimate   =     -95.10116897 Ry
     estimated scf accuracy    <       0.00002163 Ry

     iteration # 11     ecut=    40.00 Ry     beta=0.70
     Davidson diagonalization with overlap
     ethr =  2.40E-07,  avg # of iterations =  2.0

     total cpu time spent up to now is      185.6 secs

     total energy              =     -95.10115805 Ry
     Harris-Foulkes estimate   =     -95.10115955 Ry
     estimated scf accuracy    <       0.00000222 Ry

     iteration # 12     ecut=    40.00 Ry     beta=0.70
     Davidson diagonalization with overlap
     ethr =  2.47E-08,  avg # of iterations =  2.0

     total cpu time spent up to now is      188.3 secs

     total energy              =     -95.10115855 Ry
     Harris-Foulkes estimate   =     -95.10115855 Ry
     estimated scf accuracy    <          5.0E-09 Ry

     iteration # 13     ecut=    40.00 Ry     beta=0.70
     Davidson diagonalization with overlap
     ethr =  5.59E-11,  avg # of iterations =  1.6

     total cpu time spent up to now is      190.6 secs

     total energy              =     -95.10115855 Ry
     Harris-Foulkes estimate   =     -95.10115855 Ry
     estimated scf accuracy    <          1.1E-09 Ry

     iteration # 14     ecut=    40.00 Ry     beta=0.70
     Davidson diagonalization with overlap
     ethr =  1.26E-11,  avg # of iterations =  2.5

     total cpu time spent up to now is      193.5 secs

     total energy              =     -95.10115855 Ry
     Harris-Foulkes estimate   =     -95.10115856 Ry
     estimated scf accuracy    <          9.3E-09 Ry

     iteration # 15     ecut=    40.00 Ry     beta=0.70
     Davidson diagonalization with overlap
     ethr =  1.26E-11,  avg # of iterations =  2.0

     total cpu time spent up to now is      196.3 secs

     total energy              =     -95.10115855 Ry
     Harris-Foulkes estimate   =     -95.10115855 Ry
     estimated scf accuracy    <          2.3E-09 Ry

     iteration # 16     ecut=    40.00 Ry     beta=0.70
     Davidson diagonalization with overlap
     ethr =  1.26E-11,  avg # of iterations =  2.0

     total cpu time spent up to now is      199.0 secs

     End of self-consistent calculation

     Number of k-points >= 100: set verbosity='high' to print the bands.

     the Fermi energy is     2.5573 ev

!    total energy              =     -95.10115855 Ry
     Harris-Foulkes estimate   =     -95.10115855 Ry
     estimated scf accuracy    <          2.0E-13 Ry

     The total energy is the sum of the following terms:

     one-electron contribution =     -83.54146854 Ry
     hartree contribution      =      42.49793317 Ry
     xc contribution           =     -14.29743116 Ry
     ewald contribution        =     -39.76015237 Ry
     smearing contrib. (-TS)   =      -0.00003965 Ry

     convergence has been achieved in  16 iterations

     Forces acting on atoms (cartesian axes, Ry/au):

     atom    1 type  1   force =     0.00000000    0.00000000    0.00000000

     Total force =     0.000000     Total SCF correction =     0.000000


     Computing stress (Cartesian axis) and pressure

          total   stress  (Ry/bohr**3)                   (kbar)     P=   22.63
   0.00015386  -0.00000000   0.00000000         22.63     -0.00      0.00
  -0.00000000   0.00015386   0.00000000         -0.00     22.63      0.00
   0.00000000   0.00000000   0.00015386          0.00      0.00     22.63


     number of scf cycles    =   5
     number of bfgs steps    =   4

     enthalpy old            =     -95.0819181546 Ry
     enthalpy new            =     -95.0873100704 Ry

     CASE: enthalpy_new < enthalpy_old

     new trust radius        =       0.0765473739 bohr
     new conv_thr            =            1.0E-10 Ry

     new unit-cell volume =    220.54996 a.u.^3 (    32.68213 Ang^3 )
     density =      1.16809 g/cm^3

CELL_PARAMETERS (alat=  8.00000000)
  -0.599426136  -0.000000000   0.599426136
   0.000000000   0.599426136   0.599426136
  -0.599426136   0.599426136  -0.000000000

ATOMIC_POSITIONS (crystal)
Na       0.000000000   0.000000000   0.000000000



     Writing output data file na.fcc.save
     NEW-OLD atomic charge density approx. for the potential
     extrapolated charge    9.68638, renormalised to    9.00000

     total cpu time spent up to now is      200.9 secs

     per-process dynamical memory:    31.6 Mb

     Self-consistent Calculation

     iteration #  1     ecut=    40.00 Ry     beta=0.70
     Davidson diagonalization with overlap
     ethr =  1.00E-06,  avg # of iterations =  4.8

     total cpu time spent up to now is      205.6 secs

     total energy              =     -94.68033703 Ry
     Harris-Foulkes estimate   =     -89.88605471 Ry
     estimated scf accuracy    <       0.23662466 Ry

     iteration #  2     ecut=    40.00 Ry     beta=0.70
     Davidson diagonalization with overlap
     ethr =  2.63E-03,  avg # of iterations =  3.0

     total cpu time spent up to now is      209.0 secs

     total energy              =     -95.12213498 Ry
     Harris-Foulkes estimate   =     -95.29293428 Ry
     estimated scf accuracy    <       0.38582970 Ry

     iteration #  3     ecut=    40.00 Ry     beta=0.70
     Davidson diagonalization with overlap
     ethr =  2.63E-03,  avg # of iterations =  1.1

     total cpu time spent up to now is      211.3 secs

     total energy              =     -95.11242993 Ry
     Harris-Foulkes estimate   =     -95.14372670 Ry
     estimated scf accuracy    <       0.08669990 Ry

     iteration #  4     ecut=    40.00 Ry     beta=0.70
     Davidson diagonalization with overlap
     ethr =  9.63E-04,  avg # of iterations =  1.0

     total cpu time spent up to now is      213.5 secs

     total energy              =     -95.10597010 Ry
     Harris-Foulkes estimate   =     -95.11621756 Ry
     estimated scf accuracy    <       0.02764420 Ry

     iteration #  5     ecut=    40.00 Ry     beta=0.70
     Davidson diagonalization with overlap
     ethr =  3.07E-04,  avg # of iterations =  1.0

     total cpu time spent up to now is      215.7 secs

     total energy              =     -95.10204479 Ry
     Harris-Foulkes estimate   =     -95.10715530 Ry
     estimated scf accuracy    <       0.00861138 Ry

     iteration #  6     ecut=    40.00 Ry     beta=0.70
     Davidson diagonalization with overlap
     ethr =  9.57E-05,  avg # of iterations =  2.0

     total cpu time spent up to now is      218.3 secs

     total energy              =     -95.10316827 Ry
     Harris-Foulkes estimate   =     -95.10323194 Ry
     estimated scf accuracy    <       0.00034385 Ry

     iteration #  7     ecut=    40.00 Ry     beta=0.70
     Davidson diagonalization with overlap
     ethr =  3.82E-06,  avg # of iterations =  2.8

     total cpu time spent up to now is      221.0 secs

     total energy              =     -95.10301376 Ry
     Harris-Foulkes estimate   =     -95.10317306 Ry
     estimated scf accuracy    <       0.00021537 Ry

     iteration #  8     ecut=    40.00 Ry     beta=0.70
     Davidson diagonalization with overlap
     ethr =  2.39E-06,  avg # of iterations =  2.0

     total cpu time spent up to now is      223.7 secs

     total energy              =     -95.10307594 Ry
     Harris-Foulkes estimate   =     -95.10307469 Ry
     estimated scf accuracy    <       0.00000470 Ry

     iteration #  9     ecut=    40.00 Ry     beta=0.70
     Davidson diagonalization with overlap
     ethr =  5.22E-08,  avg # of iterations =  1.0

     total cpu time spent up to now is      225.9 secs

     total energy              =     -95.10307196 Ry
     Harris-Foulkes estimate   =     -95.10307603 Ry
     estimated scf accuracy    <       0.00000760 Ry

     iteration # 10     ecut=    40.00 Ry     beta=0.70
     Davidson diagonalization with overlap
     ethr =  5.22E-08,  avg # of iterations =  2.0

     total cpu time spent up to now is      228.6 secs

     total energy              =     -95.10307247 Ry
     Harris-Foulkes estimate   =     -95.10307283 Ry
     estimated scf accuracy    <       0.00000055 Ry

     iteration # 11     ecut=    40.00 Ry     beta=0.70
     Davidson diagonalization with overlap
     ethr =  6.08E-09,  avg # of iterations =  2.0

     total cpu time spent up to now is      231.3 secs

     total energy              =     -95.10307256 Ry
     Harris-Foulkes estimate   =     -95.10307256 Ry
     estimated scf accuracy    <          5.5E-09 Ry

     iteration # 12     ecut=    40.00 Ry     beta=0.70
     Davidson diagonalization with overlap
     ethr =  6.08E-11,  avg # of iterations =  2.0

     total cpu time spent up to now is      234.0 secs

     total energy              =     -95.10307256 Ry
     Harris-Foulkes estimate   =     -95.10307256 Ry
     estimated scf accuracy    <          6.7E-10 Ry

     iteration # 13     ecut=    40.00 Ry     beta=0.70
     Davidson diagonalization with overlap
     ethr =  7.42E-12,  avg # of iterations =  2.0

     total cpu time spent up to now is      236.7 secs

     total energy              =     -95.10307256 Ry
     Harris-Foulkes estimate   =     -95.10307256 Ry
     estimated scf accuracy    <          8.5E-10 Ry

     iteration # 14     ecut=    40.00 Ry     beta=0.70
     Davidson diagonalization with overlap
     ethr =  7.42E-12,  avg # of iterations =  1.0

     total cpu time spent up to now is      238.9 secs

     total energy              =     -95.10307256 Ry
     Harris-Foulkes estimate   =     -95.10307256 Ry
     estimated scf accuracy    <          3.8E-10 Ry

     iteration # 15     ecut=    40.00 Ry     beta=0.70
     Davidson diagonalization with overlap
     ethr =  4.28E-12,  avg # of iterations =  2.0

     total cpu time spent up to now is      241.6 secs

     End of self-consistent calculation

     Number of k-points >= 100: set verbosity='high' to print the bands.

     the Fermi energy is     2.1620 ev

!    total energy              =     -95.10307256 Ry
     Harris-Foulkes estimate   =     -95.10307256 Ry
     estimated scf accuracy    <          3.7E-12 Ry

     The total energy is the sum of the following terms:

     one-electron contribution =     -85.35465679 Ry
     hartree contribution      =      43.25930627 Ry
     xc contribution           =     -14.28587088 Ry
     ewald contribution        =     -38.72180889 Ry
     smearing contrib. (-TS)   =      -0.00004227 Ry

     convergence has been achieved in  15 iterations

     Forces acting on atoms (cartesian axes, Ry/au):

     atom    1 type  1   force =     0.00000000    0.00000000    0.00000000

     Total force =     0.000000     Total SCF correction =     0.000000


     Computing stress (Cartesian axis) and pressure

          total   stress  (Ry/bohr**3)                   (kbar)     P=   10.90
   0.00007409   0.00000000   0.00000000         10.90      0.00      0.00
   0.00000000   0.00007409   0.00000000          0.00     10.90      0.00
   0.00000000  -0.00000000   0.00007409          0.00     -0.00     10.90


     number of scf cycles    =   6
     number of bfgs steps    =   5

     enthalpy old            =     -95.0873100704 Ry
     enthalpy new            =     -95.0880798766 Ry

     CASE: enthalpy_new < enthalpy_old

     new trust radius        =       0.0062893994 bohr
     new conv_thr            =            1.0E-10 Ry

     new unit-cell volume =    221.95398 a.u.^3 (    32.89019 Ang^3 )
     density =      1.16070 g/cm^3

CELL_PARAMETERS (alat=  8.00000000)
  -0.600695427  -0.000000000   0.600695427
   0.000000000   0.600695427   0.600695427
  -0.600695427   0.600695427  -0.000000000

ATOMIC_POSITIONS (crystal)
Na       0.000000000   0.000000000   0.000000000



     Writing output data file na.fcc.save
     NEW-OLD atomic charge density approx. for the potential
     extrapolated charge    9.05689, renormalised to    9.00000

     total cpu time spent up to now is      243.5 secs

     per-process dynamical memory:    31.6 Mb

     Self-consistent Calculation

     iteration #  1     ecut=    40.00 Ry     beta=0.70
     Davidson diagonalization with overlap
     ethr =  1.00E-06,  avg # of iterations =  2.5

     total cpu time spent up to now is      246.8 secs

     total energy              =     -95.10101196 Ry
     Harris-Foulkes estimate   =     -94.67240320 Ry
     estimated scf accuracy    <       0.00120551 Ry

     iteration #  2     ecut=    40.00 Ry     beta=0.70
     Davidson diagonalization with overlap
     ethr =  1.34E-05,  avg # of iterations =  2.7

     total cpu time spent up to now is      250.3 secs

     total energy              =     -95.10321741 Ry
     Harris-Foulkes estimate   =     -95.10409949 Ry
     estimated scf accuracy    <       0.00200490 Ry

     iteration #  3     ecut=    40.00 Ry     beta=0.70
     Davidson diagonalization with overlap
     ethr =  1.34E-05,  avg # of iterations =  1.6

     total cpu time spent up to now is      252.6 secs

     total energy              =     -95.10322000 Ry
     Harris-Foulkes estimate   =     -95.10334859 Ry
     estimated scf accuracy    <       0.00039111 Ry

     iteration #  4     ecut=    40.00 Ry     beta=0.70
     Davidson diagonalization with overlap
     ethr =  4.35E-06,  avg # of iterations =  1.0

     total cpu time spent up to now is      254.9 secs

     total energy              =     -95.10317880 Ry
     Harris-Foulkes estimate   =     -95.10323532 Ry
     estimated scf accuracy    <       0.00013718 Ry

     iteration #  5     ecut=    40.00 Ry     beta=0.70
     Davidson diagonalization with overlap
     ethr =  1.52E-06,  avg # of iterations =  1.0

     total cpu time spent up to now is      257.1 secs

     total energy              =     -95.10317834 Ry
     Harris-Foulkes estimate   =     -95.10318672 Ry
     estimated scf accuracy    <       0.00003213 Ry

     iteration #  6     ecut=    40.00 Ry     beta=0.70
     Davidson diagonalization with overlap
     ethr =  3.57E-07,  avg # of iterations =  1.0

     total cpu time spent up to now is      259.3 secs

     total energy              =     -95.10317566 Ry
     Harris-Foulkes estimate   =     -95.10317919 Ry
     estimated scf accuracy    <       0.00001526 Ry

     iteration #  7     ecut=    40.00 Ry     beta=0.70
     Davidson diagonalization with overlap
     ethr =  1.70E-07,  avg # of iterations =  1.0

     total cpu time spent up to now is      261.5 secs

     total energy              =     -95.10317029 Ry
     Harris-Foulkes estimate   =     -95.10317588 Ry
     estimated scf accuracy    <       0.00000830 Ry

     iteration #  8     ecut=    40.00 Ry     beta=0.70
     Davidson diagonalization with overlap
     ethr =  9.23E-08,  avg # of iterations =  2.0

     total cpu time spent up to now is      264.2 secs

     total energy              =     -95.10317201 Ry
     Harris-Foulkes estimate   =     -95.10317201 Ry
     estimated scf accuracy    <          1.8E-09 Ry

     iteration #  9     ecut=    40.00 Ry     beta=0.70
     Davidson diagonalization with overlap
     ethr =  2.03E-11,  avg # of iterations =  2.2

     total cpu time spent up to now is      266.9 secs

     total energy              =     -95.10317201 Ry
     Harris-Foulkes estimate   =     -95.10317201 Ry
     estimated scf accuracy    <          8.2E-10 Ry

     iteration # 10     ecut=    40.00 Ry     beta=0.70
     Davidson diagonalization with overlap
     ethr =  9.16E-12,  avg # of iterations =  1.0

     total cpu time spent up to now is      269.1 secs

     total energy              =     -95.10317201 Ry
     Harris-Foulkes estimate   =     -95.10317201 Ry
     estimated scf accuracy    <          3.2E-09 Ry

     iteration # 11     ecut=    40.00 Ry     beta=0.70
     Davidson diagonalization with overlap
     ethr =  9.16E-12,  avg # of iterations =  1.6

     total cpu time spent up to now is      271.5 secs

     total energy              =     -95.10317201 Ry
     Harris-Foulkes estimate   =     -95.10317201 Ry
     estimated scf accuracy    <          1.0E-09 Ry

     iteration # 12     ecut=    40.00 Ry     beta=0.70
     Davidson diagonalization with overlap
     ethr =  9.16E-12,  avg # of iterations =  2.0

     total cpu time spent up to now is      274.1 secs

     End of self-consistent calculation

     Number of k-points >= 100: set verbosity='high' to print the bands.

     the Fermi energy is     2.1319 ev

!    total energy              =     -95.10317201 Ry
     Harris-Foulkes estimate   =     -95.10317201 Ry
     estimated scf accuracy    <          1.6E-11 Ry

     The total energy is the sum of the following terms:

     one-electron contribution =     -85.49762166 Ry
     hartree contribution      =      43.31942386 Ry
     xc contribution           =     -14.28494343 Ry
     ewald contribution        =     -38.63998829 Ry
     smearing contrib. (-TS)   =      -0.00004249 Ry

     convergence has been achieved in  12 iterations

     Forces acting on atoms (cartesian axes, Ry/au):

     atom    1 type  1   force =     0.00000000    0.00000000    0.00000000

     Total force =     0.000000     Total SCF correction =     0.000000


     Computing stress (Cartesian axis) and pressure

          total   stress  (Ry/bohr**3)                   (kbar)     P=    9.92
   0.00006740  -0.00000000  -0.00000000          9.92     -0.00     -0.00
  -0.00000000   0.00006740   0.00000000         -0.00      9.92      0.00
   0.00000000  -0.00000000   0.00006740          0.00     -0.00      9.92


     bfgs converged in   7 scf cycles and   6 bfgs steps
     (criteria: energy <  1.0E-04 Ry, force <  1.0E-03Ry/Bohr, cell <  5.0E-01kbar)

     End of BFGS Geometry Optimization

     Final enthalpy =     -95.0880838837 Ry
Begin final coordinates
     new unit-cell volume =    221.95398 a.u.^3 (    32.89019 Ang^3 )
     density =      1.16070 g/cm^3

CELL_PARAMETERS (alat=  8.00000000)
  -0.600695427  -0.000000000   0.600695427
   0.000000000   0.600695427   0.600695427
  -0.600695427   0.600695427  -0.000000000

ATOMIC_POSITIONS (crystal)
Na       0.000000000   0.000000000   0.000000000
End final coordinates



     A final scf calculation at the relaxed structure.
     The G-vectors are recalculated for the final unit cell
     Results may differ from those at the preceding step.

     Parallelization info
     --------------------
     sticks:   dense  smooth     PW     G-vecs:    dense   smooth      PW
     Min         256     127     40                 5397     1907     362
     Max         257     128     41                 5400     1909     366
     Sum        1027     511    163                21595     7631    1459



     bravais-lattice index     =            2
     lattice parameter (alat)  =       8.0000  a.u.
     unit-cell volume          =     221.9540 (a.u.)^3
     number of atoms/cell      =            1
     number of atomic types    =            1
     number of electrons       =         9.00
     number of Kohn-Sham states=            9
     kinetic-energy cutoff     =      40.0000  Ry
     charge density cutoff     =     320.0000  Ry
     convergence threshold     =      1.0E-10
     mixing beta               =       0.7000
     number of iterations used =            8  plain     mixing
     Exchange-correlation      = SLA  PW   PBE  PBE ( 1  4  3  4 0 0)

     celldm(1)=   8.000000  celldm(2)=   0.000000  celldm(3)=   0.000000
     celldm(4)=   0.000000  celldm(5)=   0.000000  celldm(6)=   0.000000

     crystal axes: (cart. coord. in units of alat)
               a(1) = (  -0.600695  -0.000000   0.600695 )  
               a(2) = (   0.000000   0.600695   0.600695 )  
               a(3) = (  -0.600695   0.600695  -0.000000 )  

     reciprocal axes: (cart. coord. in units 2 pi/alat)
               b(1) = ( -0.832369 -0.832369  0.832369 )  
               b(2) = (  0.832369  0.832369  0.832369 )  
               b(3) = ( -0.832369  0.832369 -0.832369 )  


     PseudoPot. # 1 for Na read from file:
     /home/s1333534/quantum_espresso/qe-6.1/pseudo/Na_pbe_v1.uspp.F.UPF
     MD5 check sum: 76a99c7e9422403d3e93cbc85ab7bccb
     Pseudo is Ultrasoft, Zval =  9.0
     Generated by new atomic code, or converted to UPF format
     Using radial grid of  819 points,  5 beta functions with: 
                l(1) =   0
                l(2) =   0
                l(3) =   1
                l(4) =   1
                l(5) =   2
     Q(r) pseudized with  8 coefficients,  rinner =    1.250   1.250   1.250
                                                       1.250   1.250

     atomic species   valence    mass     pseudopotential
        Na             9.00    22.99000     Na( 1.00)

     48 Sym. Ops., with inversion, found



   Cartesian axes

     site n.     atom                  positions (alat units)
         1           Na  tau(   1) = (   0.0000000   0.0000000   0.0000000  )

     number of k points=   770  Marzari-Vanderbilt smearing, width (Ry)=  0.0200

     Number of k-points >= 100: set verbosity='high' to print them.

     Dense  grid:    21595 G-vectors     FFT dimensions: (  40,  40,  40)

     Smooth grid:     7631 G-vectors     FFT dimensions: (  27,  27,  27)

     Estimated max dynamical RAM per process >      28.68MB

     Estimated total allocated dynamical RAM >     114.71MB

     Initial potential from superposition of free atoms

     starting charge    8.99371, renormalised to    9.00000
     Starting wfc are    5 randomized atomic wfcs +    4 random wfc

     Writing output data file na.fcc.save

     total cpu time spent up to now is      277.7 secs

     per-process dynamical memory:    44.9 Mb

     Self-consistent Calculation

     iteration #  1     ecut=    40.00 Ry     beta=0.70
     Davidson diagonalization with overlap
     c_bands:  1 eigenvalues not converged
     c_bands:  1 eigenvalues not converged
     c_bands:  1 eigenvalues not converged
     c_bands:  1 eigenvalues not converged
     c_bands:  1 eigenvalues not converged
     c_bands:  1 eigenvalues not converged
     c_bands:  1 eigenvalues not converged
     c_bands:  1 eigenvalues not converged
     c_bands:  1 eigenvalues not converged
     c_bands:  1 eigenvalues not converged
     ethr =  1.00E-06,  avg # of iterations = 11.1

     total cpu time spent up to now is      290.7 secs

     total energy              =     -95.10545196 Ry
     Harris-Foulkes estimate   =     -95.10572114 Ry
     estimated scf accuracy    <       0.00094522 Ry

     iteration #  2     ecut=    40.00 Ry     beta=0.70
     Davidson diagonalization with overlap
     ethr =  1.05E-05,  avg # of iterations =  2.0

     total cpu time spent up to now is      295.3 secs

     total energy              =     -95.10556643 Ry
     Harris-Foulkes estimate   =     -95.10559297 Ry
     estimated scf accuracy    <       0.00010680 Ry

     iteration #  3     ecut=    40.00 Ry     beta=0.70
     Davidson diagonalization with overlap
     ethr =  1.19E-06,  avg # of iterations =  2.0

     total cpu time spent up to now is      299.9 secs

     total energy              =     -95.10557828 Ry
     Harris-Foulkes estimate   =     -95.10557963 Ry
     estimated scf accuracy    <       0.00000659 Ry

     iteration #  4     ecut=    40.00 Ry     beta=0.70
     Davidson diagonalization with overlap
     ethr =  7.33E-08,  avg # of iterations =  1.0

     total cpu time spent up to now is      303.8 secs

     total energy              =     -95.10557888 Ry
     Harris-Foulkes estimate   =     -95.10557883 Ry
     estimated scf accuracy    <          7.8E-09 Ry

     iteration #  5     ecut=    40.00 Ry     beta=0.70
     Davidson diagonalization with overlap
     ethr =  8.62E-11,  avg # of iterations =  3.0

     total cpu time spent up to now is      309.3 secs

     total energy              =     -95.10557891 Ry
     Harris-Foulkes estimate   =     -95.10557891 Ry
     estimated scf accuracy    <          1.5E-09 Ry

     iteration #  6     ecut=    40.00 Ry     beta=0.70
     Davidson diagonalization with overlap
     ethr =  1.71E-11,  avg # of iterations =  1.6

     total cpu time spent up to now is      313.4 secs

     End of self-consistent calculation

     Number of k-points >= 100: set verbosity='high' to print the bands.

     the Fermi energy is     2.1346 ev

!    total energy              =     -95.10557891 Ry
     Harris-Foulkes estimate   =     -95.10557891 Ry
     estimated scf accuracy    <          2.0E-11 Ry

     The total energy is the sum of the following terms:

     one-electron contribution =     -85.49698042 Ry
     hartree contribution      =      43.31590931 Ry
     xc contribution           =     -14.28447705 Ry
     ewald contribution        =     -38.63998824 Ry
     smearing contrib. (-TS)   =      -0.00004251 Ry

     convergence has been achieved in   6 iterations

     Forces acting on atoms (cartesian axes, Ry/au):

     atom    1 type  1   force =     0.00000000    0.00000000    0.00000000

     Total force =     0.000000     Total SCF correction =     0.000000


     Computing stress (Cartesian axis) and pressure

          total   stress  (Ry/bohr**3)                   (kbar)     P=    8.42
   0.00005723   0.00000000   0.00000000          8.42      0.00      0.00
   0.00000000   0.00005723   0.00000000          0.00      8.42      0.00
   0.00000000  -0.00000000   0.00005723          0.00     -0.00      8.42


     Writing output data file na.fcc.save

     init_run     :      2.92s CPU      3.06s WALL (       2 calls)
     electrons    :    285.94s CPU    297.50s WALL (       8 calls)
     update_pot   :      0.73s CPU      0.74s WALL (       6 calls)
     forces       :      1.33s CPU      1.37s WALL (       8 calls)
     stress       :      7.22s CPU      7.27s WALL (       8 calls)

     Called by init_run:
     wfcinit      :      2.31s CPU      2.44s WALL (       2 calls)
     potinit      :      0.07s CPU      0.07s WALL (       2 calls)

     Called by electrons:
     c_bands      :    238.67s CPU    248.62s WALL (     103 calls)
     sum_band     :     45.52s CPU     47.09s WALL (     103 calls)
     v_of_rho     :      0.88s CPU      0.90s WALL (     110 calls)
     newd         :      0.85s CPU      0.86s WALL (     110 calls)
     mix_rho      :      0.07s CPU      0.07s WALL (     103 calls)

     Called by c_bands:
     init_us_2    :     11.75s CPU     10.88s WALL (  172480 calls)
     cegterg      :    227.11s CPU    237.25s WALL (   79310 calls)

     Called by sum_band:
     sum_band:bec :      0.19s CPU      0.23s WALL (   79310 calls)
     addusdens    :      1.04s CPU      1.05s WALL (     103 calls)

     Called by *egterg:
     h_psi        :    179.49s CPU    187.17s WALL (  241112 calls)
     s_psi        :      2.70s CPU      2.29s WALL (  241112 calls)
     g_psi        :      1.35s CPU      1.32s WALL (  160262 calls)
     cdiaghg      :     29.69s CPU     30.53s WALL (  234182 calls)

     Called by h_psi:
     h_psi:pot    :    178.87s CPU    186.21s WALL (  241112 calls)
     h_psi:calbec :      4.25s CPU      3.93s WALL (  241112 calls)
     vloc_psi     :    171.94s CPU    179.14s WALL (  241112 calls)
     add_vuspsi   :      2.30s CPU      2.56s WALL (  241112 calls)

     General routines
     calbec       :      5.49s CPU      5.49s WALL (  351222 calls)
     fft          :      0.41s CPU      0.42s WALL (    1802 calls)
     ffts         :      0.02s CPU      0.02s WALL (     213 calls)
     fftw         :    192.80s CPU    186.21s WALL ( 4244760 calls)
     interpolate  :      0.07s CPU      0.07s WALL (     213 calls)
     davcio       :      0.01s CPU      0.03s WALL (    1540 calls)

     Parallel routines
     fft_scatter  :     26.24s CPU     33.63s WALL ( 4246775 calls)

     PWSCF        :  5m 3.61s CPU     5m15.68s WALL


   This run was terminated on:  10:58:48  20Dec2017            

=------------------------------------------------------------------------------=
   JOB DONE.
=------------------------------------------------------------------------------=
