
     Program PWSCF v.6.1 (svn rev. 13369) starts on 20Dec2017 at 11:30:30 

     This program is part of the open-source Quantum ESPRESSO suite
     for quantum simulation of materials; please cite
         "P. Giannozzi et al., J. Phys.:Condens. Matter 21 395502 (2009);
          URL http://www.quantum-espresso.org", 
     in publications or presentations arising from this work. More details at
     http://www.quantum-espresso.org/quote

     Parallel version (MPI), running on     4 processors
     R & G space division:  proc/nbgrp/npool/nimage =       4
     Waiting for input...
     Reading input from standard input

     Current dimensions of program PWSCF are:
     Max number of different atomic species (ntypx) = 10
     Max number of k-points (npk) =  40000
     Max angular momentum in pseudopotentials (lmaxx) =  3

     Subspace diagonalization in iterative solution of the eigenvalue problem:
     a serial algorithm will be used


     Parallelization info
     --------------------
     sticks:   dense  smooth     PW     G-vecs:    dense   smooth      PW
     Min         175      90     30                 3084     1095     234
     Max         176      91     31                 3086     1096     238
     Sum         703     361    121                12339     4381     941



     bravais-lattice index     =            2
     lattice parameter (alat)  =       8.0000  a.u.
     unit-cell volume          =     128.0000 (a.u.)^3
     number of atoms/cell      =            1
     number of atomic types    =            1
     number of electrons       =         9.00
     number of Kohn-Sham states=            9
     kinetic-energy cutoff     =      40.0000  Ry
     charge density cutoff     =     320.0000  Ry
     convergence threshold     =      1.0E-08
     mixing beta               =       0.7000
     number of iterations used =            8  plain     mixing
     Exchange-correlation      = SLA  PW   PBE  PBE ( 1  4  3  4 0 0)
     nstep                     =           50


     celldm(1)=   8.000000  celldm(2)=   0.000000  celldm(3)=   0.000000
     celldm(4)=   0.000000  celldm(5)=   0.000000  celldm(6)=   0.000000

     crystal axes: (cart. coord. in units of alat)
               a(1) = (  -0.500000   0.000000   0.500000 )  
               a(2) = (   0.000000   0.500000   0.500000 )  
               a(3) = (  -0.500000   0.500000   0.000000 )  

     reciprocal axes: (cart. coord. in units 2 pi/alat)
               b(1) = ( -1.000000 -1.000000  1.000000 )  
               b(2) = (  1.000000  1.000000  1.000000 )  
               b(3) = ( -1.000000  1.000000 -1.000000 )  


     PseudoPot. # 1 for Na read from file:
     /home/s1333534/quantum_espresso/qe-6.1/pseudo/Na_pbe_v1.uspp.F.UPF
     MD5 check sum: 76a99c7e9422403d3e93cbc85ab7bccb
     Pseudo is Ultrasoft, Zval =  9.0
     Generated by new atomic code, or converted to UPF format
     Using radial grid of  819 points,  5 beta functions with: 
                l(1) =   0
                l(2) =   0
                l(3) =   1
                l(4) =   1
                l(5) =   2
     Q(r) pseudized with  8 coefficients,  rinner =    1.250   1.250   1.250
                                                       1.250   1.250

     atomic species   valence    mass     pseudopotential
        Na             9.00    22.99000     Na( 1.00)

     48 Sym. Ops., with inversion, found



   Cartesian axes

     site n.     atom                  positions (alat units)
         1           Na  tau(   1) = (   0.0000000   0.0000000   0.0000000  )

     number of k points=   770  Marzari-Vanderbilt smearing, width (Ry)=  0.0200

     Number of k-points >= 100: set verbosity='high' to print them.

     Dense  grid:    12339 G-vectors     FFT dimensions: (  36,  36,  36)

     Smooth grid:     4381 G-vectors     FFT dimensions: (  24,  24,  24)

     Estimated max dynamical RAM per process >      16.64MB

     Estimated total allocated dynamical RAM >      66.55MB

     Initial potential from superposition of free atoms

     starting charge    8.99371, renormalised to    9.00000
     Starting wfc are    5 randomized atomic wfcs +    4 random wfc

     total cpu time spent up to now is        1.2 secs

     per-process dynamical memory:    24.8 Mb

     Self-consistent Calculation

     iteration #  1     ecut=    40.00 Ry     beta=0.70
     Davidson diagonalization with overlap
     ethr =  1.00E-02,  avg # of iterations =  5.1

     Threshold (ethr) on eigenvalues was too large:
     Diagonalizing with lowered threshold

     Davidson diagonalization with overlap
     ethr =  2.47E-05,  avg # of iterations =  2.4

     total cpu time spent up to now is        8.3 secs

     total energy              =     -95.06263719 Ry
     Harris-Foulkes estimate   =     -95.06346383 Ry
     estimated scf accuracy    <       0.00221907 Ry

     iteration #  2     ecut=    40.00 Ry     beta=0.70
     Davidson diagonalization with overlap
     ethr =  2.47E-05,  avg # of iterations =  2.0

     total cpu time spent up to now is       10.8 secs

     total energy              =     -95.06293327 Ry
     Harris-Foulkes estimate   =     -95.06299962 Ry
     estimated scf accuracy    <       0.00025023 Ry

     iteration #  3     ecut=    40.00 Ry     beta=0.70
     Davidson diagonalization with overlap
     ethr =  2.78E-06,  avg # of iterations =  2.1

     total cpu time spent up to now is       13.4 secs

     total energy              =     -95.06296602 Ry
     Harris-Foulkes estimate   =     -95.06296754 Ry
     estimated scf accuracy    <       0.00001446 Ry

     iteration #  4     ecut=    40.00 Ry     beta=0.70
     Davidson diagonalization with overlap
     ethr =  1.61E-07,  avg # of iterations =  1.0

     total cpu time spent up to now is       15.6 secs

     total energy              =     -95.06296732 Ry
     Harris-Foulkes estimate   =     -95.06296725 Ry
     estimated scf accuracy    <       0.00000002 Ry

     iteration #  5     ecut=    40.00 Ry     beta=0.70
     Davidson diagonalization with overlap
     ethr =  2.20E-10,  avg # of iterations =  3.0

     total cpu time spent up to now is       18.8 secs

     End of self-consistent calculation

     Number of k-points >= 100: set verbosity='high' to print the bands.

     the Fermi energy is     5.7098 ev

!    total energy              =     -95.06296737 Ry
     Harris-Foulkes estimate   =     -95.06296737 Ry
     estimated scf accuracy    <          2.7E-09 Ry

     The total energy is the sum of the following terms:

     one-electron contribution =     -72.01868817 Ry
     hartree contribution      =      37.75480527 Ry
     xc contribution           =     -14.37732448 Ry
     ewald contribution        =     -46.42172850 Ry
     smearing contrib. (-TS)   =      -0.00003149 Ry

     convergence has been achieved in   5 iterations

     Forces acting on atoms (cartesian axes, Ry/au):

     atom    1 type  1   force =     0.00000000    0.00000000    0.00000000

     Total force =     0.000000     Total SCF correction =     0.000000


     Computing stress (Cartesian axis) and pressure

          total   stress  (Ry/bohr**3)                   (kbar)     P=  175.59
   0.00119366   0.00000000   0.00000000        175.59      0.00      0.00
   0.00000000   0.00119366  -0.00000000          0.00    175.59     -0.00
   0.00000000  -0.00000000   0.00119366          0.00     -0.00    175.59


     BFGS Geometry Optimization

     number of scf cycles    =   1
     number of bfgs steps    =   0

     enthalpy new            =     -94.9846559887 Ry

     new trust radius        =       0.0329147615 bohr
     new conv_thr            =       0.0000000100 Ry

     new unit-cell volume =    133.66747 a.u.^3 (    19.80747 Ang^3 )
     density =      1.92734 g/cm^3

CELL_PARAMETERS (alat=  8.00000000)
  -0.507273204  -0.000000000   0.507273204
   0.000000000   0.507273204   0.507273204
  -0.507273204   0.507273204  -0.000000000

ATOMIC_POSITIONS (crystal)
Na       0.000000000   0.000000000   0.000000000



     Writing output data file na.fcc.save
     NEW-OLD atomic charge density approx. for the potential
     extrapolated charge    9.38133, renormalised to    9.00000

     total cpu time spent up to now is       20.7 secs

     per-process dynamical memory:    31.5 Mb

     Self-consistent Calculation

     iteration #  1     ecut=    40.00 Ry     beta=0.70
     Davidson diagonalization with overlap
     ethr =  1.00E-06,  avg # of iterations =  3.7

     total cpu time spent up to now is       25.0 secs

     total energy              =     -94.96503142 Ry
     Harris-Foulkes estimate   =     -92.61260132 Ry
     estimated scf accuracy    <       0.05829287 Ry

     iteration #  2     ecut=    40.00 Ry     beta=0.70
     Davidson diagonalization with overlap
     ethr =  6.48E-04,  avg # of iterations =  2.9

     total cpu time spent up to now is       28.5 secs

     total energy              =     -95.07261960 Ry
     Harris-Foulkes estimate   =     -95.11551689 Ry
     estimated scf accuracy    <       0.09771475 Ry

     iteration #  3     ecut=    40.00 Ry     beta=0.70
     Davidson diagonalization with overlap
     ethr =  6.48E-04,  avg # of iterations =  1.2

     total cpu time spent up to now is       30.8 secs

     total energy              =     -95.07170786 Ry
     Harris-Foulkes estimate   =     -95.07852513 Ry
     estimated scf accuracy    <       0.02058823 Ry

     iteration #  4     ecut=    40.00 Ry     beta=0.70
     Davidson diagonalization with overlap
     ethr =  2.29E-04,  avg # of iterations =  1.0

     total cpu time spent up to now is       33.0 secs

     total energy              =     -95.07133668 Ry
     Harris-Foulkes estimate   =     -95.07255472 Ry
     estimated scf accuracy    <       0.00712908 Ry

     iteration #  5     ecut=    40.00 Ry     beta=0.70
     Davidson diagonalization with overlap
     ethr =  7.92E-05,  avg # of iterations =  1.0

     total cpu time spent up to now is       35.2 secs

     total energy              =     -95.07023047 Ry
     Harris-Foulkes estimate   =     -95.07142404 Ry
     estimated scf accuracy    <       0.00472221 Ry

     iteration #  6     ecut=    40.00 Ry     beta=0.70
     Davidson diagonalization with overlap
     ethr =  5.25E-05,  avg # of iterations =  1.0

     total cpu time spent up to now is       37.4 secs

     total energy              =     -95.06889852 Ry
     Harris-Foulkes estimate   =     -95.07031423 Ry
     estimated scf accuracy    <       0.00237204 Ry

     iteration #  7     ecut=    40.00 Ry     beta=0.70
     Davidson diagonalization with overlap
     ethr =  2.64E-05,  avg # of iterations =  2.0

     total cpu time spent up to now is       40.0 secs

     total energy              =     -95.06922692 Ry
     Harris-Foulkes estimate   =     -95.06925125 Ry
     estimated scf accuracy    <       0.00006901 Ry

     iteration #  8     ecut=    40.00 Ry     beta=0.70
     Davidson diagonalization with overlap
     ethr =  7.67E-07,  avg # of iterations =  1.8

     total cpu time spent up to now is       42.4 secs

     total energy              =     -95.06921225 Ry
     Harris-Foulkes estimate   =     -95.06923130 Ry
     estimated scf accuracy    <       0.00002285 Ry

     iteration #  9     ecut=    40.00 Ry     beta=0.70
     Davidson diagonalization with overlap
     ethr =  2.54E-07,  avg # of iterations =  2.0

     total cpu time spent up to now is       45.2 secs

     total energy              =     -95.06921900 Ry
     Harris-Foulkes estimate   =     -95.06922460 Ry
     estimated scf accuracy    <       0.00000801 Ry

     iteration # 10     ecut=    40.00 Ry     beta=0.70
     Davidson diagonalization with overlap
     ethr =  8.89E-08,  avg # of iterations =  2.0

     total cpu time spent up to now is       47.9 secs

     total energy              =     -95.06922119 Ry
     Harris-Foulkes estimate   =     -95.06922109 Ry
     estimated scf accuracy    <       0.00000022 Ry

     iteration # 11     ecut=    40.00 Ry     beta=0.70
     Davidson diagonalization with overlap
     ethr =  2.39E-09,  avg # of iterations =  1.0

     total cpu time spent up to now is       50.1 secs

     total energy              =     -95.06922101 Ry
     Harris-Foulkes estimate   =     -95.06922121 Ry
     estimated scf accuracy    <       0.00000049 Ry

     iteration # 12     ecut=    40.00 Ry     beta=0.70
     Davidson diagonalization with overlap
     ethr =  2.39E-09,  avg # of iterations =  2.0

     total cpu time spent up to now is       52.7 secs

     total energy              =     -95.06922103 Ry
     Harris-Foulkes estimate   =     -95.06922105 Ry
     estimated scf accuracy    <       0.00000010 Ry

     iteration # 13     ecut=    40.00 Ry     beta=0.70
     Davidson diagonalization with overlap
     ethr =  1.15E-09,  avg # of iterations =  1.0

     total cpu time spent up to now is       54.9 secs

     total energy              =     -95.06922100 Ry
     Harris-Foulkes estimate   =     -95.06922103 Ry
     estimated scf accuracy    <       0.00000007 Ry

     iteration # 14     ecut=    40.00 Ry     beta=0.70
     Davidson diagonalization with overlap
     ethr =  8.17E-10,  avg # of iterations =  2.0

     total cpu time spent up to now is       57.5 secs

     End of self-consistent calculation

     Number of k-points >= 100: set verbosity='high' to print the bands.

     the Fermi energy is     5.3430 ev

!    total energy              =     -95.06922101 Ry
     Harris-Foulkes estimate   =     -95.06922101 Ry
     estimated scf accuracy    <          3.3E-10 Ry

     The total energy is the sum of the following terms:

     one-electron contribution =     -73.16039138 Ry
     hartree contribution      =      38.21588668 Ry
     xc contribution           =     -14.36854365 Ry
     ewald contribution        =     -45.75614105 Ry
     smearing contrib. (-TS)   =      -0.00003162 Ry

     convergence has been achieved in  14 iterations

     Forces acting on atoms (cartesian axes, Ry/au):

     atom    1 type  1   force =     0.00000000    0.00000000    0.00000000

     Total force =     0.000000     Total SCF correction =     0.000000


     Computing stress (Cartesian axis) and pressure

          total   stress  (Ry/bohr**3)                   (kbar)     P=  149.44
   0.00101587  -0.00000000   0.00000000        149.44     -0.00      0.00
  -0.00000000   0.00101587  -0.00000000         -0.00    149.44     -0.00
   0.00000000  -0.00000000   0.00101587          0.00     -0.00    149.44


     number of scf cycles    =   2
     number of bfgs steps    =   1

     enthalpy old            =     -94.9846559887 Ry
     enthalpy new            =     -94.9874422310 Ry

     CASE: enthalpy_new < enthalpy_old

     new trust radius        =       0.0364686222 bohr
     new conv_thr            =            1.0E-10 Ry

     new unit-cell volume =    140.09220 a.u.^3 (    20.75952 Ang^3 )
     density =      1.83895 g/cm^3

CELL_PARAMETERS (alat=  8.00000000)
  -0.515273727  -0.000000000   0.515273727
   0.000000000   0.515273727   0.515273727
  -0.515273727   0.515273727  -0.000000000

ATOMIC_POSITIONS (crystal)
Na       0.000000000   0.000000000   0.000000000



     Writing output data file na.fcc.save
     NEW-OLD atomic charge density approx. for the potential
     extrapolated charge    9.41246, renormalised to    9.00000

     total cpu time spent up to now is       59.3 secs

     per-process dynamical memory:    31.5 Mb

     Self-consistent Calculation

     iteration #  1     ecut=    40.00 Ry     beta=0.70
     Davidson diagonalization with overlap
     ethr =  1.00E-06,  avg # of iterations =  3.7

     total cpu time spent up to now is       63.5 secs

     total energy              =     -94.95064794 Ry
     Harris-Foulkes estimate   =     -92.37114374 Ry
     estimated scf accuracy    <       0.06965027 Ry

     iteration #  2     ecut=    40.00 Ry     beta=0.70
     Davidson diagonalization with overlap
     ethr =  7.74E-04,  avg # of iterations =  2.9

     total cpu time spent up to now is       67.0 secs

     total energy              =     -95.07942155 Ry
     Harris-Foulkes estimate   =     -95.13066045 Ry
     estimated scf accuracy    <       0.11668249 Ry

     iteration #  3     ecut=    40.00 Ry     beta=0.70
     Davidson diagonalization with overlap
     ethr =  7.74E-04,  avg # of iterations =  1.2

     total cpu time spent up to now is       69.3 secs

     total energy              =     -95.07811864 Ry
     Harris-Foulkes estimate   =     -95.08641927 Ry
     estimated scf accuracy    <       0.02475561 Ry

     iteration #  4     ecut=    40.00 Ry     beta=0.70
     Davidson diagonalization with overlap
     ethr =  2.75E-04,  avg # of iterations =  1.0

     total cpu time spent up to now is       71.5 secs

     total energy              =     -95.07764138 Ry
     Harris-Foulkes estimate   =     -95.07915234 Ry
     estimated scf accuracy    <       0.00844590 Ry

     iteration #  5     ecut=    40.00 Ry     beta=0.70
     Davidson diagonalization with overlap
     ethr =  9.38E-05,  avg # of iterations =  1.0

     total cpu time spent up to now is       73.7 secs

     total energy              =     -95.07633999 Ry
     Harris-Foulkes estimate   =     -95.07775273 Ry
     estimated scf accuracy    <       0.00544748 Ry

     iteration #  6     ecut=    40.00 Ry     beta=0.70
     Davidson diagonalization with overlap
     ethr =  6.05E-05,  avg # of iterations =  1.0

     total cpu time spent up to now is       75.9 secs

     total energy              =     -95.07480587 Ry
     Harris-Foulkes estimate   =     -95.07644005 Ry
     estimated scf accuracy    <       0.00268478 Ry

     iteration #  7     ecut=    40.00 Ry     beta=0.70
     Davidson diagonalization with overlap
     ethr =  2.98E-05,  avg # of iterations =  2.0

     total cpu time spent up to now is       78.5 secs

     total energy              =     -95.07521004 Ry
     Harris-Foulkes estimate   =     -95.07522735 Ry
     estimated scf accuracy    <       0.00005939 Ry

     iteration #  8     ecut=    40.00 Ry     beta=0.70
     Davidson diagonalization with overlap
     ethr =  6.60E-07,  avg # of iterations =  1.7

     total cpu time spent up to now is       80.9 secs

     total energy              =     -95.07519134 Ry
     Harris-Foulkes estimate   =     -95.07521276 Ry
     estimated scf accuracy    <       0.00002587 Ry

     iteration #  9     ecut=    40.00 Ry     beta=0.70
     Davidson diagonalization with overlap
     ethr =  2.87E-07,  avg # of iterations =  2.0

     total cpu time spent up to now is       83.7 secs

     total energy              =     -95.07519914 Ry
     Harris-Foulkes estimate   =     -95.07520456 Ry
     estimated scf accuracy    <       0.00000773 Ry

     iteration # 10     ecut=    40.00 Ry     beta=0.70
     Davidson diagonalization with overlap
     ethr =  8.59E-08,  avg # of iterations =  2.0

     total cpu time spent up to now is       86.4 secs

     total energy              =     -95.07520127 Ry
     Harris-Foulkes estimate   =     -95.07520117 Ry
     estimated scf accuracy    <       0.00000038 Ry

     iteration # 11     ecut=    40.00 Ry     beta=0.70
     Davidson diagonalization with overlap
     ethr =  4.24E-09,  avg # of iterations =  1.0

     total cpu time spent up to now is       88.6 secs

     total energy              =     -95.07520103 Ry
     Harris-Foulkes estimate   =     -95.07520130 Ry
     estimated scf accuracy    <       0.00000062 Ry

     iteration # 12     ecut=    40.00 Ry     beta=0.70
     Davidson diagonalization with overlap
     ethr =  4.24E-09,  avg # of iterations =  2.0

     total cpu time spent up to now is       91.1 secs

     total energy              =     -95.07520106 Ry
     Harris-Foulkes estimate   =     -95.07520108 Ry
     estimated scf accuracy    <       0.00000008 Ry

     iteration # 13     ecut=    40.00 Ry     beta=0.70
     Davidson diagonalization with overlap
     ethr =  9.11E-10,  avg # of iterations =  1.0

     total cpu time spent up to now is       93.3 secs

     total energy              =     -95.07520106 Ry
     Harris-Foulkes estimate   =     -95.07520106 Ry
     estimated scf accuracy    <       0.00000002 Ry

     iteration # 14     ecut=    40.00 Ry     beta=0.70
     Davidson diagonalization with overlap
     ethr =  2.37E-10,  avg # of iterations =  1.0

     total cpu time spent up to now is       95.6 secs

     total energy              =     -95.07520106 Ry
     Harris-Foulkes estimate   =     -95.07520106 Ry
     estimated scf accuracy    <          5.2E-09 Ry

     iteration # 15     ecut=    40.00 Ry     beta=0.70
     Davidson diagonalization with overlap
     ethr =  5.77E-11,  avg # of iterations =  2.0

     total cpu time spent up to now is       98.2 secs

     End of self-consistent calculation

     Number of k-points >= 100: set verbosity='high' to print the bands.

     the Fermi energy is     4.9648 ev

!    total energy              =     -95.07520106 Ry
     Harris-Foulkes estimate   =     -95.07520106 Ry
     estimated scf accuracy    <          1.5E-11 Ry

     The total energy is the sum of the following terms:

     one-electron contribution =     -74.38137892 Ry
     hartree contribution      =      38.71128561 Ry
     xc contribution           =     -14.35937871 Ry
     ewald contribution        =     -45.04569710 Ry
     smearing contrib. (-TS)   =      -0.00003193 Ry

     convergence has been achieved in  15 iterations

     Forces acting on atoms (cartesian axes, Ry/au):

     atom    1 type  1   force =     0.00000000    0.00000000    0.00000000

     Total force =     0.000000     Total SCF correction =     0.000000


     Computing stress (Cartesian axis) and pressure

          total   stress  (Ry/bohr**3)                   (kbar)     P=  124.95
   0.00084941  -0.00000000  -0.00000000        124.95     -0.00     -0.00
  -0.00000000   0.00084941  -0.00000000         -0.00    124.95     -0.00
   0.00000000   0.00000000   0.00084941          0.00      0.00    124.95


     number of scf cycles    =   3
     number of bfgs steps    =   2

     enthalpy old            =     -94.9874422310 Ry
     enthalpy new            =     -94.9894915758 Ry

     CASE: enthalpy_new < enthalpy_old

     new trust radius        =       0.0551326229 bohr
     new conv_thr            =            1.0E-10 Ry

     new unit-cell volume =    150.11023 a.u.^3 (    22.24404 Ang^3 )
     density =      1.71623 g/cm^3

CELL_PARAMETERS (alat=  8.00000000)
  -0.527274513  -0.000000000   0.527274513
   0.000000000   0.527274513   0.527274513
  -0.527274513   0.527274513  -0.000000000

ATOMIC_POSITIONS (crystal)
Na       0.000000000   0.000000000   0.000000000



     Writing output data file na.fcc.save
     NEW-OLD atomic charge density approx. for the potential
     extrapolated charge    9.60022, renormalised to    9.00000

     total cpu time spent up to now is      100.1 secs

     per-process dynamical memory:    31.5 Mb

     Self-consistent Calculation

     iteration #  1     ecut=    40.00 Ry     beta=0.70
     Davidson diagonalization with overlap
     ethr =  1.00E-06,  avg # of iterations =  4.3

     total cpu time spent up to now is      104.6 secs

     total energy              =     -94.79137965 Ry
     Harris-Foulkes estimate   =     -91.04693501 Ry
     estimated scf accuracy    <       0.16307536 Ry

     iteration #  2     ecut=    40.00 Ry     beta=0.70
     Davidson diagonalization with overlap
     ethr =  1.81E-03,  avg # of iterations =  3.0

     total cpu time spent up to now is      108.1 secs

     total energy              =     -95.09461394 Ry
     Harris-Foulkes estimate   =     -95.21390983 Ry
     estimated scf accuracy    <       0.27094498 Ry

     iteration #  3     ecut=    40.00 Ry     beta=0.70
     Davidson diagonalization with overlap
     ethr =  1.81E-03,  avg # of iterations =  1.1

     total cpu time spent up to now is      110.3 secs

     total energy              =     -95.08916223 Ry
     Harris-Foulkes estimate   =     -95.11013303 Ry
     estimated scf accuracy    <       0.05981969 Ry

     iteration #  4     ecut=    40.00 Ry     beta=0.70
     Davidson diagonalization with overlap
     ethr =  6.65E-04,  avg # of iterations =  1.0

     total cpu time spent up to now is      112.5 secs

     total energy              =     -95.08809719 Ry
     Harris-Foulkes estimate   =     -95.09178575 Ry
     estimated scf accuracy    <       0.01942028 Ry

     iteration #  5     ecut=    40.00 Ry     beta=0.70
     Davidson diagonalization with overlap
     ethr =  2.16E-04,  avg # of iterations =  1.0

     total cpu time spent up to now is      114.7 secs

     total energy              =     -95.08488004 Ry
     Harris-Foulkes estimate   =     -95.08837976 Ry
     estimated scf accuracy    <       0.01212433 Ry

     iteration #  6     ecut=    40.00 Ry     beta=0.70
     Davidson diagonalization with overlap
     ethr =  1.35E-04,  avg # of iterations =  1.0

     total cpu time spent up to now is      116.9 secs

     total energy              =     -95.08166499 Ry
     Harris-Foulkes estimate   =     -95.08515276 Ry
     estimated scf accuracy    <       0.00542222 Ry

     iteration #  7     ecut=    40.00 Ry     beta=0.70
     Davidson diagonalization with overlap
     ethr =  6.02E-05,  avg # of iterations =  2.0

     total cpu time spent up to now is      119.6 secs

     total energy              =     -95.08267289 Ry
     Harris-Foulkes estimate   =     -95.08265364 Ry
     estimated scf accuracy    <       0.00004185 Ry

     iteration #  8     ecut=    40.00 Ry     beta=0.70
     Davidson diagonalization with overlap
     ethr =  4.65E-07,  avg # of iterations =  2.4

     total cpu time spent up to now is      122.2 secs

     total energy              =     -95.08260469 Ry
     Harris-Foulkes estimate   =     -95.08267722 Ry
     estimated scf accuracy    <       0.00009004 Ry

     iteration #  9     ecut=    40.00 Ry     beta=0.70
     Davidson diagonalization with overlap
     ethr =  4.65E-07,  avg # of iterations =  2.0

     total cpu time spent up to now is      125.0 secs

     total energy              =     -95.08264572 Ry
     Harris-Foulkes estimate   =     -95.08264610 Ry
     estimated scf accuracy    <       0.00002115 Ry

     iteration # 10     ecut=    40.00 Ry     beta=0.70
     Davidson diagonalization with overlap
     ethr =  2.35E-07,  avg # of iterations =  1.0

     total cpu time spent up to now is      127.2 secs

     total energy              =     -95.08262964 Ry
     Harris-Foulkes estimate   =     -95.08264573 Ry
     estimated scf accuracy    <       0.00002027 Ry

     iteration # 11     ecut=    40.00 Ry     beta=0.70
     Davidson diagonalization with overlap
     ethr =  2.25E-07,  avg # of iterations =  2.0

     total cpu time spent up to now is      129.9 secs

     total energy              =     -95.08263606 Ry
     Harris-Foulkes estimate   =     -95.08263774 Ry
     estimated scf accuracy    <       0.00000299 Ry

     iteration # 12     ecut=    40.00 Ry     beta=0.70
     Davidson diagonalization with overlap
     ethr =  3.32E-08,  avg # of iterations =  2.0

     total cpu time spent up to now is      132.4 secs

     total energy              =     -95.08263643 Ry
     Harris-Foulkes estimate   =     -95.08263645 Ry
     estimated scf accuracy    <       0.00000012 Ry

     iteration # 13     ecut=    40.00 Ry     beta=0.70
     Davidson diagonalization with overlap
     ethr =  1.32E-09,  avg # of iterations =  1.8

     total cpu time spent up to now is      134.8 secs

     total energy              =     -95.08263643 Ry
     Harris-Foulkes estimate   =     -95.08263644 Ry
     estimated scf accuracy    <       0.00000006 Ry

     iteration # 14     ecut=    40.00 Ry     beta=0.70
     Davidson diagonalization with overlap
     ethr =  6.85E-10,  avg # of iterations =  1.0

     total cpu time spent up to now is      137.0 secs

     total energy              =     -95.08263644 Ry
     Harris-Foulkes estimate   =     -95.08263643 Ry
     estimated scf accuracy    <       0.00000003 Ry

     iteration # 15     ecut=    40.00 Ry     beta=0.70
     Davidson diagonalization with overlap
     ethr =  3.42E-10,  avg # of iterations =  1.0

     total cpu time spent up to now is      139.2 secs

     total energy              =     -95.08263641 Ry
     Harris-Foulkes estimate   =     -95.08263644 Ry
     estimated scf accuracy    <       0.00000006 Ry

     iteration # 16     ecut=    40.00 Ry     beta=0.70
     Davidson diagonalization with overlap
     ethr =  3.42E-10,  avg # of iterations =  2.0

     total cpu time spent up to now is      141.9 secs

     total energy              =     -95.08263642 Ry
     Harris-Foulkes estimate   =     -95.08263642 Ry
     estimated scf accuracy    <          2.0E-09 Ry

     iteration # 17     ecut=    40.00 Ry     beta=0.70
     Davidson diagonalization with overlap
     ethr =  2.18E-11,  avg # of iterations =  1.0

     total cpu time spent up to now is      144.1 secs

     total energy              =     -95.08263642 Ry
     Harris-Foulkes estimate   =     -95.08263642 Ry
     estimated scf accuracy    <          4.7E-09 Ry

     iteration # 18     ecut=    40.00 Ry     beta=0.70
     Davidson diagonalization with overlap
     ethr =  2.18E-11,  avg # of iterations =  2.0

     total cpu time spent up to now is      146.8 secs

     total energy              =     -95.08263642 Ry
     Harris-Foulkes estimate   =     -95.08263642 Ry
     estimated scf accuracy    <          2.3E-10 Ry

     iteration # 19     ecut=    40.00 Ry     beta=0.70
     Davidson diagonalization with overlap
     ethr =  2.58E-12,  avg # of iterations =  2.0

     total cpu time spent up to now is      149.5 secs

     End of self-consistent calculation

     Number of k-points >= 100: set verbosity='high' to print the bands.

     the Fermi energy is     4.4429 ev

!    total energy              =     -95.08263642 Ry
     Harris-Foulkes estimate   =     -95.08263642 Ry
     estimated scf accuracy    <          1.7E-11 Ry

     The total energy is the sum of the following terms:

     one-electron contribution =     -76.14760267 Ry
     hartree contribution      =      39.43197194 Ry
     xc contribution           =     -14.34651749 Ry
     ewald contribution        =     -44.02045551 Ry
     smearing contrib. (-TS)   =      -0.00003269 Ry

     convergence has been achieved in  19 iterations

     Forces acting on atoms (cartesian axes, Ry/au):

     atom    1 type  1   force =     0.00000000    0.00000000    0.00000000

     Total force =     0.000000     Total SCF correction =     0.000000


     Computing stress (Cartesian axis) and pressure

          total   stress  (Ry/bohr**3)                   (kbar)     P=   94.83
   0.00064464   0.00000000  -0.00000000         94.83      0.00     -0.00
  -0.00000000   0.00064464   0.00000000         -0.00     94.83      0.00
  -0.00000000   0.00000000   0.00064464         -0.00      0.00     94.83


     number of scf cycles    =   4
     number of bfgs steps    =   3

     enthalpy old            =     -94.9894915758 Ry
     enthalpy new            =     -94.9907978272 Ry

     CASE: enthalpy_new < enthalpy_old

     new trust radius        =       0.0094336653 bohr
     new conv_thr            =            1.0E-10 Ry

     new unit-cell volume =    151.85063 a.u.^3 (    22.50194 Ang^3 )
     density =      1.69656 g/cm^3

CELL_PARAMETERS (alat=  8.00000000)
  -0.529304448  -0.000000000   0.529304448
   0.000000000   0.529304448   0.529304448
  -0.529304448   0.529304448  -0.000000000

ATOMIC_POSITIONS (crystal)
Na       0.000000000   0.000000000   0.000000000



     Writing output data file na.fcc.save
     NEW-OLD atomic charge density approx. for the potential
     extrapolated charge    9.10308, renormalised to    9.00000

     total cpu time spent up to now is      151.4 secs

     per-process dynamical memory:    31.5 Mb

     Self-consistent Calculation

     iteration #  1     ecut=    40.00 Ry     beta=0.70
     Davidson diagonalization with overlap
     ethr =  1.00E-06,  avg # of iterations =  3.0

     total cpu time spent up to now is      155.1 secs

     total energy              =     -95.07680027 Ry
     Harris-Foulkes estimate   =     -94.39022471 Ry
     estimated scf accuracy    <       0.00388346 Ry

     iteration #  2     ecut=    40.00 Ry     beta=0.70
     Davidson diagonalization with overlap
     ethr =  4.31E-05,  avg # of iterations =  2.9

     total cpu time spent up to now is      158.6 secs

     total energy              =     -95.08388826 Ry
     Harris-Foulkes estimate   =     -95.08675309 Ry
     estimated scf accuracy    <       0.00653212 Ry

     iteration #  3     ecut=    40.00 Ry     beta=0.70
     Davidson diagonalization with overlap
     ethr =  4.31E-05,  avg # of iterations =  1.4

     total cpu time spent up to now is      160.9 secs

     total energy              =     -95.08390772 Ry
     Harris-Foulkes estimate   =     -95.08430982 Ry
     estimated scf accuracy    <       0.00129325 Ry

     iteration #  4     ecut=    40.00 Ry     beta=0.70
     Davidson diagonalization with overlap
     ethr =  1.44E-05,  avg # of iterations =  1.0

     total cpu time spent up to now is      163.1 secs

     total energy              =     -95.08384341 Ry
     Harris-Foulkes estimate   =     -95.08395609 Ry
     estimated scf accuracy    <       0.00048247 Ry

     iteration #  5     ecut=    40.00 Ry     beta=0.70
     Davidson diagonalization with overlap
     ethr =  5.36E-06,  avg # of iterations =  1.0

     total cpu time spent up to now is      165.3 secs

     total energy              =     -95.08378355 Ry
     Harris-Foulkes estimate   =     -95.08385237 Ry
     estimated scf accuracy    <       0.00025543 Ry

     iteration #  6     ecut=    40.00 Ry     beta=0.70
     Davidson diagonalization with overlap
     ethr =  2.84E-06,  avg # of iterations =  1.0

     total cpu time spent up to now is      167.5 secs

     total energy              =     -95.08371542 Ry
     Harris-Foulkes estimate   =     -95.08378853 Ry
     estimated scf accuracy    <       0.00012116 Ry

     iteration #  7     ecut=    40.00 Ry     beta=0.70
     Davidson diagonalization with overlap
     ethr =  1.35E-06,  avg # of iterations =  2.0

     total cpu time spent up to now is      170.1 secs

     total energy              =     -95.08373330 Ry
     Harris-Foulkes estimate   =     -95.08373412 Ry
     estimated scf accuracy    <       0.00000275 Ry

     iteration #  8     ecut=    40.00 Ry     beta=0.70
     Davidson diagonalization with overlap
     ethr =  3.06E-08,  avg # of iterations =  1.2

     total cpu time spent up to now is      172.4 secs

     total energy              =     -95.08373279 Ry
     Harris-Foulkes estimate   =     -95.08373341 Ry
     estimated scf accuracy    <       0.00000116 Ry

     iteration #  9     ecut=    40.00 Ry     beta=0.70
     Davidson diagonalization with overlap
     ethr =  1.29E-08,  avg # of iterations =  1.7

     total cpu time spent up to now is      174.8 secs

     total energy              =     -95.08373292 Ry
     Harris-Foulkes estimate   =     -95.08373293 Ry
     estimated scf accuracy    <       0.00000009 Ry

     iteration # 10     ecut=    40.00 Ry     beta=0.70
     Davidson diagonalization with overlap
     ethr =  9.46E-10,  avg # of iterations =  1.0

     total cpu time spent up to now is      177.0 secs

     total energy              =     -95.08373288 Ry
     Harris-Foulkes estimate   =     -95.08373292 Ry
     estimated scf accuracy    <       0.00000007 Ry

     iteration # 11     ecut=    40.00 Ry     beta=0.70
     Davidson diagonalization with overlap
     ethr =  8.17E-10,  avg # of iterations =  2.0

     total cpu time spent up to now is      179.6 secs

     total energy              =     -95.08373289 Ry
     Harris-Foulkes estimate   =     -95.08373289 Ry
     estimated scf accuracy    <          2.0E-09 Ry

     iteration # 12     ecut=    40.00 Ry     beta=0.70
     Davidson diagonalization with overlap
     ethr =  2.23E-11,  avg # of iterations =  1.0

     total cpu time spent up to now is      181.8 secs

     total energy              =     -95.08373289 Ry
     Harris-Foulkes estimate   =     -95.08373289 Ry
     estimated scf accuracy    <          1.5E-09 Ry

     iteration # 13     ecut=    40.00 Ry     beta=0.70
     Davidson diagonalization with overlap
     ethr =  1.71E-11,  avg # of iterations =  2.0

     total cpu time spent up to now is      184.5 secs

     End of self-consistent calculation

     Number of k-points >= 100: set verbosity='high' to print the bands.

     the Fermi energy is     4.3596 ev

!    total energy              =     -95.08373289 Ry
     Harris-Foulkes estimate   =     -95.08373289 Ry
     estimated scf accuracy    <          3.4E-11 Ry

     The total energy is the sum of the following terms:

     one-electron contribution =     -76.43894802 Ry
     hartree contribution      =      39.55132776 Ry
     xc contribution           =     -14.34444707 Ry
     ewald contribution        =     -43.85163271 Ry
     smearing contrib. (-TS)   =      -0.00003285 Ry

     convergence has been achieved in  13 iterations

     Forces acting on atoms (cartesian axes, Ry/au):

     atom    1 type  1   force =     0.00000000    0.00000000    0.00000000

     Total force =     0.000000     Total SCF correction =     0.000000


     Computing stress (Cartesian axis) and pressure

          total   stress  (Ry/bohr**3)                   (kbar)     P=   90.49
   0.00061514   0.00000000   0.00000000         90.49      0.00      0.00
   0.00000000   0.00061514  -0.00000000          0.00     90.49     -0.00
   0.00000000  -0.00000000   0.00061514          0.00     -0.00     90.49


     bfgs converged in   5 scf cycles and   4 bfgs steps
     (criteria: energy <  1.0E-04 Ry, force <  1.0E-03Ry/Bohr, cell <  5.0E-01kbar)

     End of BFGS Geometry Optimization

     Final enthalpy =     -94.9908295111 Ry
Begin final coordinates
     new unit-cell volume =    151.85063 a.u.^3 (    22.50194 Ang^3 )
     density =      1.69656 g/cm^3

CELL_PARAMETERS (alat=  8.00000000)
  -0.529304448  -0.000000000   0.529304448
   0.000000000   0.529304448   0.529304448
  -0.529304448   0.529304448  -0.000000000

ATOMIC_POSITIONS (crystal)
Na       0.000000000   0.000000000   0.000000000
End final coordinates



     A final scf calculation at the relaxed structure.
     The G-vectors are recalculated for the final unit cell
     Results may differ from those at the preceding step.

     Parallelization info
     --------------------
     sticks:   dense  smooth     PW     G-vecs:    dense   smooth      PW
     Min         198      95     34                 3661     1266     266
     Max         199      98     35                 3663     1267     267
     Sum         793     385    139                14649     5065    1067



     bravais-lattice index     =            2
     lattice parameter (alat)  =       8.0000  a.u.
     unit-cell volume          =     151.8506 (a.u.)^3
     number of atoms/cell      =            1
     number of atomic types    =            1
     number of electrons       =         9.00
     number of Kohn-Sham states=            9
     kinetic-energy cutoff     =      40.0000  Ry
     charge density cutoff     =     320.0000  Ry
     convergence threshold     =      1.0E-10
     mixing beta               =       0.7000
     number of iterations used =            8  plain     mixing
     Exchange-correlation      = SLA  PW   PBE  PBE ( 1  4  3  4 0 0)

     celldm(1)=   8.000000  celldm(2)=   0.000000  celldm(3)=   0.000000
     celldm(4)=   0.000000  celldm(5)=   0.000000  celldm(6)=   0.000000

     crystal axes: (cart. coord. in units of alat)
               a(1) = (  -0.529304  -0.000000   0.529304 )  
               a(2) = (   0.000000   0.529304   0.529304 )  
               a(3) = (  -0.529304   0.529304  -0.000000 )  

     reciprocal axes: (cart. coord. in units 2 pi/alat)
               b(1) = ( -0.944636 -0.944636  0.944636 )  
               b(2) = (  0.944636  0.944636  0.944636 )  
               b(3) = ( -0.944636  0.944636 -0.944636 )  


     PseudoPot. # 1 for Na read from file:
     /home/s1333534/quantum_espresso/qe-6.1/pseudo/Na_pbe_v1.uspp.F.UPF
     MD5 check sum: 76a99c7e9422403d3e93cbc85ab7bccb
     Pseudo is Ultrasoft, Zval =  9.0
     Generated by new atomic code, or converted to UPF format
     Using radial grid of  819 points,  5 beta functions with: 
                l(1) =   0
                l(2) =   0
                l(3) =   1
                l(4) =   1
                l(5) =   2
     Q(r) pseudized with  8 coefficients,  rinner =    1.250   1.250   1.250
                                                       1.250   1.250

     atomic species   valence    mass     pseudopotential
        Na             9.00    22.99000     Na( 1.00)

     48 Sym. Ops., with inversion, found



   Cartesian axes

     site n.     atom                  positions (alat units)
         1           Na  tau(   1) = (   0.0000000   0.0000000   0.0000000  )

     number of k points=   770  Marzari-Vanderbilt smearing, width (Ry)=  0.0200

     Number of k-points >= 100: set verbosity='high' to print them.

     Dense  grid:    14649 G-vectors     FFT dimensions: (  36,  36,  36)

     Smooth grid:     5065 G-vectors     FFT dimensions: (  25,  25,  25)

     Estimated max dynamical RAM per process >      19.65MB

     Estimated total allocated dynamical RAM >      78.61MB

     Initial potential from superposition of free atoms

     starting charge    8.99371, renormalised to    9.00000
     Starting wfc are    5 randomized atomic wfcs +    4 random wfc

     Writing output data file na.fcc.save

     total cpu time spent up to now is      187.4 secs

     per-process dynamical memory:    34.5 Mb

     Self-consistent Calculation

     iteration #  1     ecut=    40.00 Ry     beta=0.70
     Davidson diagonalization with overlap
     ethr =  1.00E-06,  avg # of iterations = 10.3

     total cpu time spent up to now is      195.5 secs

     total energy              =     -95.08453578 Ry
     Harris-Foulkes estimate   =     -95.08512128 Ry
     estimated scf accuracy    <       0.00160807 Ry

     iteration #  2     ecut=    40.00 Ry     beta=0.70
     Davidson diagonalization with overlap
     ethr =  1.79E-05,  avg # of iterations =  2.0

     total cpu time spent up to now is      198.3 secs

     total energy              =     -95.08475359 Ry
     Harris-Foulkes estimate   =     -95.08480324 Ry
     estimated scf accuracy    <       0.00018574 Ry

     iteration #  3     ecut=    40.00 Ry     beta=0.70
     Davidson diagonalization with overlap
     ethr =  2.06E-06,  avg # of iterations =  2.0

     total cpu time spent up to now is      201.1 secs

     total energy              =     -95.08477690 Ry
     Harris-Foulkes estimate   =     -95.08477825 Ry
     estimated scf accuracy    <       0.00001081 Ry

     iteration #  4     ecut=    40.00 Ry     beta=0.70
     Davidson diagonalization with overlap
     ethr =  1.20E-07,  avg # of iterations =  1.0

     total cpu time spent up to now is      203.4 secs

     total energy              =     -95.08477785 Ry
     Harris-Foulkes estimate   =     -95.08477778 Ry
     estimated scf accuracy    <       0.00000001 Ry

     iteration #  5     ecut=    40.00 Ry     beta=0.70
     Davidson diagonalization with overlap
     ethr =  1.53E-10,  avg # of iterations =  3.0

     total cpu time spent up to now is      206.8 secs

     total energy              =     -95.08477789 Ry
     Harris-Foulkes estimate   =     -95.08477788 Ry
     estimated scf accuracy    <          1.8E-09 Ry

     iteration #  6     ecut=    40.00 Ry     beta=0.70
     Davidson diagonalization with overlap
     ethr =  1.96E-11,  avg # of iterations =  1.6

     total cpu time spent up to now is      209.3 secs

     End of self-consistent calculation

     Number of k-points >= 100: set verbosity='high' to print the bands.

     the Fermi energy is     4.3603 ev

!    total energy              =     -95.08477789 Ry
     Harris-Foulkes estimate   =     -95.08477789 Ry
     estimated scf accuracy    <          6.1E-11 Ry

     The total energy is the sum of the following terms:

     one-electron contribution =     -76.43983307 Ry
     hartree contribution      =      39.55122319 Ry
     xc contribution           =     -14.34450244 Ry
     ewald contribution        =     -43.85163271 Ry
     smearing contrib. (-TS)   =      -0.00003286 Ry

     convergence has been achieved in   6 iterations

     Forces acting on atoms (cartesian axes, Ry/au):

     atom    1 type  1   force =     0.00000000    0.00000000    0.00000000

     Total force =     0.000000     Total SCF correction =     0.000000


     Computing stress (Cartesian axis) and pressure

          total   stress  (Ry/bohr**3)                   (kbar)     P=   93.18
   0.00063341   0.00000000  -0.00000000         93.18      0.00     -0.00
  -0.00000000   0.00063341   0.00000000         -0.00     93.18      0.00
   0.00000000   0.00000000   0.00063341          0.00      0.00     93.18


     Writing output data file na.fcc.save

     init_run     :      2.35s CPU      2.42s WALL (       2 calls)
     electrons    :    190.32s CPU    197.74s WALL (       6 calls)
     update_pot   :      0.48s CPU      0.48s WALL (       4 calls)
     forces       :      0.97s CPU      0.99s WALL (       6 calls)
     stress       :      5.10s CPU      5.13s WALL (       6 calls)

     Called by init_run:
     wfcinit      :      1.76s CPU      1.81s WALL (       2 calls)
     potinit      :      0.06s CPU      0.06s WALL (       2 calls)

     Called by electrons:
     c_bands      :    158.05s CPU    164.45s WALL (      73 calls)
     sum_band     :     31.02s CPU     32.01s WALL (      73 calls)
     v_of_rho     :      0.61s CPU      0.62s WALL (      78 calls)
     newd         :      0.63s CPU      0.64s WALL (      78 calls)
     mix_rho      :      0.05s CPU      0.05s WALL (      73 calls)

     Called by c_bands:
     init_us_2    :      8.09s CPU      7.50s WALL (  123200 calls)
     cegterg      :    150.10s CPU    156.63s WALL (   56210 calls)

     Called by sum_band:
     sum_band:bec :      0.14s CPU      0.18s WALL (   56210 calls)
     addusdens    :      0.70s CPU      0.71s WALL (      73 calls)

     Called by *egterg:
     h_psi        :    117.76s CPU    122.68s WALL (  165817 calls)
     s_psi        :      1.89s CPU      1.54s WALL (  165817 calls)
     g_psi        :      0.92s CPU      0.87s WALL (  108067 calls)
     cdiaghg      :     20.55s CPU     21.11s WALL (  160427 calls)

     Called by h_psi:
     h_psi:pot    :    117.36s CPU    122.03s WALL (  165817 calls)
     h_psi:calbec :      2.96s CPU      2.65s WALL (  165817 calls)
     vloc_psi     :    112.68s CPU    117.27s WALL (  165817 calls)
     add_vuspsi   :      1.46s CPU      1.71s WALL (  165817 calls)

     General routines
     calbec       :      3.84s CPU      3.77s WALL (  245127 calls)
     fft          :      0.28s CPU      0.28s WALL (    1280 calls)
     ffts         :      0.01s CPU      0.01s WALL (     151 calls)
     fftw         :    126.59s CPU    122.00s WALL ( 2958924 calls)
     interpolate  :      0.05s CPU      0.05s WALL (     151 calls)
     davcio       :      0.01s CPU      0.02s WALL (    1540 calls)

     Parallel routines
     fft_scatter  :     18.50s CPU     22.84s WALL ( 2960355 calls)

     PWSCF        :  3m23.36s CPU     3m31.12s WALL


   This run was terminated on:  11:34: 1  20Dec2017            

=------------------------------------------------------------------------------=
   JOB DONE.
=------------------------------------------------------------------------------=
