
     Program PHONON v.6.1 (svn rev. 13369) starts on 21Dec2017 at 12:16:56 

     This program is part of the open-source Quantum ESPRESSO suite
     for quantum simulation of materials; please cite
         "P. Giannozzi et al., J. Phys.:Condens. Matter 21 395502 (2009);
          URL http://www.quantum-espresso.org", 
     in publications or presentations arising from this work. More details at
     http://www.quantum-espresso.org/quote

     Parallel version (MPI), running on     4 processors
     R & G space division:  proc/nbgrp/npool/nimage =       4

     Reading data from directory:
     ./na.fcc.save

   Info: using nr1, nr2, nr3 values from input

   Info: using nr1, nr2, nr3 values from input

     IMPORTANT: XC functional enforced from input :
     Exchange-correlation      = SLA  PW   PBE  PBE ( 1  4  3  4 0 0)
     Any further DFT definition will be discarded
     Please, verify this is what you really want


     Parallelization info
     --------------------
     sticks:   dense  smooth     PW     G-vecs:    dense   smooth      PW
     Min         204     102     34                 3796     1332     266
     Max         205     103     35                 3797     1333     267
     Sum         817     409    139                15185     5329    1067



     Dynamical matrices for ( 8, 8, 8)  uniform grid of q-points
     (  29q-points):
       N         xq(1)         xq(2)         xq(3) 
       1   0.000000000   0.000000000   0.000000000
       2  -0.125000000   0.125000000  -0.125000000
       3  -0.250000000   0.250000000  -0.250000000
       4  -0.375000000   0.375000000  -0.375000000
       5   0.500000000  -0.500000000   0.500000000
       6   0.000000000   0.250000000   0.000000000
       7  -0.125000000   0.375000000  -0.125000000
       8  -0.250000000   0.500000000  -0.250000000
       9   0.625000000  -0.375000000   0.625000000
      10   0.500000000  -0.250000000   0.500000000
      11   0.375000000  -0.125000000   0.375000000
      12   0.250000000   0.000000000   0.250000000
      13   0.000000000   0.500000000   0.000000000
      14  -0.125000000   0.625000000  -0.125000000
      15   0.750000000  -0.250000000   0.750000000
      16   0.625000000  -0.125000000   0.625000000
      17   0.500000000   0.000000000   0.500000000
      18   0.000000000   0.750000000   0.000000000
      19   0.875000000  -0.125000000   0.875000000
      20   0.750000000   0.000000000   0.750000000
      21   0.000000000  -1.000000000   0.000000000
      22  -0.250000000   0.500000000   0.000000000
      23   0.625000000  -0.375000000   0.875000000
      24   0.500000000  -0.250000000   0.750000000
      25   0.750000000  -0.250000000   1.000000000
      26   0.625000000  -0.125000000   0.875000000
      27   0.500000000   0.000000000   0.750000000
      28  -0.250000000  -1.000000000   0.000000000
      29  -0.500000000  -1.000000000   0.000000000

     Calculation of q =    0.0000000   0.0000000   0.0000000

                                                                                

     bravais-lattice index     =            2
     lattice parameter (alat)  =       8.5720  a.u.
     unit-cell volume          =     157.4681 (a.u.)^3
     number of atoms/cell      =            1
     number of atomic types    =            1
     kinetic-energy cut-off    =      40.0000  Ry
     charge density cut-off    =     320.0000  Ry
     convergence threshold     =      1.0E-12
     beta                      =       0.7000
     number of iterations used =            4
     Exchange-correlation      = SLA  PW   PBE  PBE ( 1  4  3  4 0 0)


     celldm(1)=    8.57204  celldm(2)=    0.00000  celldm(3)=    0.00000
     celldm(4)=    0.00000  celldm(5)=    0.00000  celldm(6)=    0.00000

     crystal axes: (cart. coord. in units of alat)
               a(1) = ( -0.5000  0.0000  0.5000 )  
               a(2) = (  0.0000  0.5000  0.5000 )  
               a(3) = ( -0.5000  0.5000  0.0000 )  

     reciprocal axes: (cart. coord. in units 2 pi/alat)
               b(1) = ( -1.0000 -1.0000  1.0000 )  
               b(2) = (  1.0000  1.0000  1.0000 )  
               b(3) = ( -1.0000  1.0000 -1.0000 )  


     Atoms inside the unit cell: 

     Cartesian axes

     site n.  atom      mass           positions (alat units)
        1     Na  22.9900   tau(    1) = (    0.00000    0.00000    0.00000  )

     Computing dynamical matrix for 
                    q = (   0.0000000   0.0000000   0.0000000 )

     49 Sym.Ops. (with q -> -q+G )


     G cutoff =  595.6055  (   3796 G-vectors)     FFT grid: ( 36, 36, 36)
     G cutoff =  297.8027  (   1333 G-vectors)  smooth grid: ( 25, 25, 25)

     number of k points=   280  Marzari-Vanderbilt smearing, width (Ry)=  0.0200

     PseudoPot. # 1 for Na read from file:
     /home/s1333534/quantum_espresso/qe-6.1/pseudo/Na_pbe_v1.uspp.F.UPF
     MD5 check sum: 76a99c7e9422403d3e93cbc85ab7bccb
     Pseudo is Ultrasoft, Zval =  9.0
     Generated by new atomic code, or converted to UPF format
     Using radial grid of  819 points,  5 beta functions with: 
                l(1) =   0
                l(2) =   0
                l(3) =   1
                l(4) =   1
                l(5) =   2
     Q(r) pseudized with  8 coefficients,  rinner =    1.250   1.250   1.250
                                                       1.250   1.250

     Mode symmetry, O_h (m-3m)  point group:


     Atomic displacements:
     There are   1 irreducible representations

     Representation     1      3 modes -T_1u G_15  G_4-  To be done



     Alpha used in Ewald sum =   2.8000
     PHONON       :     1.76s CPU         1.83s WALL



     Representation #  1 modes #   1  2  3

     Self-consistent Calculation

     Pert. #  1: Fermi energy shift (Ry) =    -1.5165E-24    -1.5673E-37
     Pert. #  2: Fermi energy shift (Ry) =    -8.0995E-25    -4.7020E-38
     Pert. #  3: Fermi energy shift (Ry) =    -7.7548E-25     6.2693E-38

      iter #   1 total cpu time :     6.6 secs   av.it.:   5.4
      thresh= 1.000E-02 alpha_mix =  0.700 |ddv_scf|^2 =  2.678E-06

     Pert. #  1: Fermi energy shift (Ry) =     2.0680E-25     7.3468E-40
     Pert. #  2: Fermi energy shift (Ry) =     6.2039E-25    -8.5713E-40
     Pert. #  3: Fermi energy shift (Ry) =    -1.7405E-24     2.4489E-40

      iter #   2 total cpu time :    12.1 secs   av.it.:   8.4
      thresh= 1.636E-04 alpha_mix =  0.700 |ddv_scf|^2 =  5.315E-08

     Pert. #  1: Fermi energy shift (Ry) =     1.7879E-25    -2.1428E-40
     Pert. #  2: Fermi energy shift (Ry) =     3.2312E-26     1.6837E-40
     Pert. #  3: Fermi energy shift (Ry) =    -9.5320E-26    -6.1224E-41

      iter #   3 total cpu time :    17.7 secs   av.it.:   8.5
      thresh= 2.305E-05 alpha_mix =  0.700 |ddv_scf|^2 =  5.190E-10

     Pert. #  1: Fermi energy shift (Ry) =    -1.2925E-25    -4.4005E-41
     Pert. #  2: Fermi energy shift (Ry) =    -6.2469E-26    -3.1568E-41
     Pert. #  3: Fermi energy shift (Ry) =     5.3853E-26    -1.4828E-41

      iter #   4 total cpu time :    23.1 secs   av.it.:   7.9
      thresh= 2.278E-06 alpha_mix =  0.700 |ddv_scf|^2 =  1.602E-12

     Pert. #  1: Fermi energy shift (Ry) =     5.1699E-25    -3.5395E-41
     Pert. #  2: Fermi energy shift (Ry) =     1.8095E-25     4.9744E-41
     Pert. #  3: Fermi energy shift (Ry) =    -8.4011E-26    -4.4005E-41

      iter #   5 total cpu time :    28.5 secs   av.it.:   8.2
      thresh= 1.266E-07 alpha_mix =  0.700 |ddv_scf|^2 =  8.681E-15

     End of self-consistent calculation

     Convergence has been achieved 

     Number of q in the star =    1
     List of q in the star:
          1   0.000000000   0.000000000   0.000000000

     Diagonalizing the dynamical matrix

     q = (    0.000000000   0.000000000   0.000000000 ) 

 **************************************************************************
     freq (    1) =       0.475793 [THz] =      15.870744 [cm-1]
     freq (    2) =       0.475793 [THz] =      15.870744 [cm-1]
     freq (    3) =       0.475793 [THz] =      15.870744 [cm-1]
 **************************************************************************

     Mode symmetry, O_h (m-3m)  point group:

     freq (  1 -  3) =         15.9  [cm-1]   --> T_1u G_15  G_4- I  

     Calculation of q =   -0.1250000   0.1250000  -0.1250000

   Info: using nr1, nr2, nr3 values from input

   Info: using nr1, nr2, nr3 values from input

     Parallelization info
     --------------------
     sticks:   dense  smooth     PW     G-vecs:    dense   smooth      PW
     Min         204     102     37                 3796     1332     301
     Max         205     103     38                 3797     1333     304
     Sum         817     409    151                15185     5329    1211



     bravais-lattice index     =            2
     lattice parameter (alat)  =       8.5720  a.u.
     unit-cell volume          =     157.4681 (a.u.)^3
     number of atoms/cell      =            1
     number of atomic types    =            1
     number of electrons       =         9.00
     number of Kohn-Sham states=            9
     kinetic-energy cutoff     =      40.0000  Ry
     charge density cutoff     =     320.0000  Ry
     Exchange-correlation      = SLA  PW   PBE  PBE ( 1  4  3  4 0 0)

     celldm(1)=   8.572041  celldm(2)=   0.000000  celldm(3)=   0.000000
     celldm(4)=   0.000000  celldm(5)=   0.000000  celldm(6)=   0.000000

     crystal axes: (cart. coord. in units of alat)
               a(1) = (  -0.500000   0.000000   0.500000 )  
               a(2) = (   0.000000   0.500000   0.500000 )  
               a(3) = (  -0.500000   0.500000   0.000000 )  

     reciprocal axes: (cart. coord. in units 2 pi/alat)
               b(1) = ( -1.000000 -1.000000  1.000000 )  
               b(2) = (  1.000000  1.000000  1.000000 )  
               b(3) = ( -1.000000  1.000000 -1.000000 )  


     PseudoPot. # 1 for Na read from file:
     /home/s1333534/quantum_espresso/qe-6.1/pseudo/Na_pbe_v1.uspp.F.UPF
     MD5 check sum: 76a99c7e9422403d3e93cbc85ab7bccb
     Pseudo is Ultrasoft, Zval =  9.0
     Generated by new atomic code, or converted to UPF format
     Using radial grid of  819 points,  5 beta functions with: 
                l(1) =   0
                l(2) =   0
                l(3) =   1
                l(4) =   1
                l(5) =   2
     Q(r) pseudized with  8 coefficients,  rinner =    1.250   1.250   1.250
                                                       1.250   1.250

     atomic species   valence    mass     pseudopotential
        Na             9.00    22.99000     Na( 1.00)

     48 Sym. Ops., with inversion, found



   Cartesian axes

     site n.     atom                  positions (alat units)
         1           Na  tau(   1) = (   0.0000000   0.0000000   0.0000000  )

     number of k points=  4060  Marzari-Vanderbilt smearing, width (Ry)=  0.0200

     Number of k-points >= 100: set verbosity='high' to print them.

     Dense  grid:    15185 G-vectors     FFT dimensions: (  36,  36,  36)

     Smooth grid:     5329 G-vectors     FFT dimensions: (  25,  25,  25)

     Estimated max dynamical RAM per process >       1.51MB

     Estimated total allocated dynamical RAM >       6.04MB

     The potential is recalculated from file :
     ./_ph0/na.fcc.save/charge-density.dat

     Starting wfc are    5 atomic +    4 random wfc

     Band Structure Calculation
     Davidson diagonalization with overlap

     ethr =  1.11E-10,  avg # of iterations = 16.8

     total cpu time spent up to now is       70.3 secs

     End of band structure calculation

     Number of k-points >= 100: set verbosity='high' to print the bands.

     the Fermi energy is     4.1006 ev

     Writing output data file na.fcc.save

                                                                                

     bravais-lattice index     =            2
     lattice parameter (alat)  =       8.5720  a.u.
     unit-cell volume          =     157.4681 (a.u.)^3
     number of atoms/cell      =            1
     number of atomic types    =            1
     kinetic-energy cut-off    =      40.0000  Ry
     charge density cut-off    =     320.0000  Ry
     convergence threshold     =      1.0E-12
     beta                      =       0.7000
     number of iterations used =            4
     Exchange-correlation      = SLA  PW   PBE  PBE ( 1  4  3  4 0 0)


     celldm(1)=    8.57204  celldm(2)=    0.00000  celldm(3)=    0.00000
     celldm(4)=    0.00000  celldm(5)=    0.00000  celldm(6)=    0.00000

     crystal axes: (cart. coord. in units of alat)
               a(1) = ( -0.5000  0.0000  0.5000 )  
               a(2) = (  0.0000  0.5000  0.5000 )  
               a(3) = ( -0.5000  0.5000  0.0000 )  

     reciprocal axes: (cart. coord. in units 2 pi/alat)
               b(1) = ( -1.0000 -1.0000  1.0000 )  
               b(2) = (  1.0000  1.0000  1.0000 )  
               b(3) = ( -1.0000  1.0000 -1.0000 )  


     Atoms inside the unit cell: 

     Cartesian axes

     site n.  atom      mass           positions (alat units)
        1     Na  22.9900   tau(    1) = (    0.00000    0.00000    0.00000  )

     Computing dynamical matrix for 
                    q = (  -0.1250000   0.1250000  -0.1250000 )

      6 Sym.Ops. (no q -> -q+G )


     G cutoff =  595.6055  (   3796 G-vectors)     FFT grid: ( 36, 36, 36)
     G cutoff =  297.8027  (   1333 G-vectors)  smooth grid: ( 25, 25, 25)

     number of k points=  4060  Marzari-Vanderbilt smearing, width (Ry)=  0.0200

     PseudoPot. # 1 for Na read from file:
     /home/s1333534/quantum_espresso/qe-6.1/pseudo/Na_pbe_v1.uspp.F.UPF
     MD5 check sum: 76a99c7e9422403d3e93cbc85ab7bccb
     Pseudo is Ultrasoft, Zval =  9.0
     Generated by new atomic code, or converted to UPF format
     Using radial grid of  819 points,  5 beta functions with: 
                l(1) =   0
                l(2) =   0
                l(3) =   1
                l(4) =   1
                l(5) =   2
     Q(r) pseudized with  8 coefficients,  rinner =    1.250   1.250   1.250
                                                       1.250   1.250

     Mode symmetry, C_3v (3m)   point group:


     Atomic displacements:
     There are   2 irreducible representations

     Representation     1      1 modes -A_1  L_1  To be done

     Representation     2      2 modes -E    L_3  To be done



     Alpha used in Ewald sum =   2.8000
     PHONON       :  1m41.39s CPU     1m47.65s WALL



     Representation #  1 mode #   1

     Self-consistent Calculation

      iter #   1 total cpu time :   119.6 secs   av.it.:   5.7
      thresh= 1.000E-02 alpha_mix =  0.700 |ddv_scf|^2 =  4.554E-01

      iter #   2 total cpu time :   132.0 secs   av.it.:   7.2
      thresh= 1.000E-02 alpha_mix =  0.700 |ddv_scf|^2 =  2.118E+02

      iter #   3 total cpu time :   144.4 secs   av.it.:   7.2
      thresh= 1.000E-02 alpha_mix =  0.700 |ddv_scf|^2 =  5.874E-04

      iter #   4 total cpu time :   154.4 secs   av.it.:   5.0
      thresh= 2.424E-03 alpha_mix =  0.700 |ddv_scf|^2 =  6.238E-07

      iter #   5 total cpu time :   166.3 secs   av.it.:   7.0
      thresh= 7.898E-05 alpha_mix =  0.700 |ddv_scf|^2 =  1.022E-08

      iter #   6 total cpu time :   178.7 secs   av.it.:   7.1
      thresh= 1.011E-05 alpha_mix =  0.700 |ddv_scf|^2 =  4.424E-07

      iter #   7 total cpu time :   186.7 secs   av.it.:   3.8
      thresh= 6.652E-05 alpha_mix =  0.700 |ddv_scf|^2 =  4.143E-10

      iter #   8 total cpu time :   198.8 secs   av.it.:   7.1
      thresh= 2.036E-06 alpha_mix =  0.700 |ddv_scf|^2 =  3.975E-11

      iter #   9 total cpu time :   210.8 secs   av.it.:   6.9
      thresh= 6.304E-07 alpha_mix =  0.700 |ddv_scf|^2 =  5.202E-13

     End of self-consistent calculation

     Convergence has been achieved 


     Representation #  2 modes #   2  3

     Self-consistent Calculation

      iter #   1 total cpu time :   234.5 secs   av.it.:   5.6
      thresh= 1.000E-02 alpha_mix =  0.700 |ddv_scf|^2 =  6.092E-06

      iter #   2 total cpu time :   261.9 secs   av.it.:   8.3
      thresh= 2.468E-04 alpha_mix =  0.700 |ddv_scf|^2 =  1.189E-07

      iter #   3 total cpu time :   290.0 secs   av.it.:   8.4
      thresh= 3.448E-05 alpha_mix =  0.700 |ddv_scf|^2 =  1.285E-09

      iter #   4 total cpu time :   316.6 secs   av.it.:   8.0
      thresh= 3.585E-06 alpha_mix =  0.700 |ddv_scf|^2 =  4.008E-12

      iter #   5 total cpu time :   343.6 secs   av.it.:   8.2
      thresh= 2.002E-07 alpha_mix =  0.700 |ddv_scf|^2 =  1.914E-14

     End of self-consistent calculation

     Convergence has been achieved 

     Number of q in the star =    8
     List of q in the star:
          1  -0.125000000   0.125000000  -0.125000000
          2   0.125000000  -0.125000000  -0.125000000
          3   0.125000000  -0.125000000   0.125000000
          4  -0.125000000   0.125000000   0.125000000
          5   0.125000000   0.125000000  -0.125000000
          6  -0.125000000  -0.125000000  -0.125000000
          7  -0.125000000  -0.125000000   0.125000000
          8   0.125000000   0.125000000   0.125000000

     Diagonalizing the dynamical matrix

     q = (   -0.125000000   0.125000000  -0.125000000 ) 

 **************************************************************************
     freq (    1) =       0.871546 [THz] =      29.071656 [cm-1]
     freq (    2) =       0.871546 [THz] =      29.071656 [cm-1]
     freq (    3) =       2.856043 [THz] =      95.267330 [cm-1]
 **************************************************************************

     Mode symmetry, C_3v (3m)   point group:

     freq (  1 -  2) =         29.1  [cm-1]   --> E    L_3           
     freq (  3 -  3) =         95.3  [cm-1]   --> A_1  L_1           

     Calculation of q =   -0.2500000   0.2500000  -0.2500000

   Info: using nr1, nr2, nr3 values from input

   Info: using nr1, nr2, nr3 values from input

     Parallelization info
     --------------------
     sticks:   dense  smooth     PW     G-vecs:    dense   smooth      PW
     Min         204     102     37                 3796     1332     309
     Max         205     103     38                 3797     1333     312
     Sum         817     409    151                15185     5329    1243



     bravais-lattice index     =            2
     lattice parameter (alat)  =       8.5720  a.u.
     unit-cell volume          =     157.4681 (a.u.)^3
     number of atoms/cell      =            1
     number of atomic types    =            1
     number of electrons       =         9.00
     number of Kohn-Sham states=            9
     kinetic-energy cutoff     =      40.0000  Ry
     charge density cutoff     =     320.0000  Ry
     Exchange-correlation      = SLA  PW   PBE  PBE ( 1  4  3  4 0 0)

     celldm(1)=   8.572041  celldm(2)=   0.000000  celldm(3)=   0.000000
     celldm(4)=   0.000000  celldm(5)=   0.000000  celldm(6)=   0.000000

     crystal axes: (cart. coord. in units of alat)
               a(1) = (  -0.500000   0.000000   0.500000 )  
               a(2) = (   0.000000   0.500000   0.500000 )  
               a(3) = (  -0.500000   0.500000   0.000000 )  

     reciprocal axes: (cart. coord. in units 2 pi/alat)
               b(1) = ( -1.000000 -1.000000  1.000000 )  
               b(2) = (  1.000000  1.000000  1.000000 )  
               b(3) = ( -1.000000  1.000000 -1.000000 )  


     PseudoPot. # 1 for Na read from file:
     /home/s1333534/quantum_espresso/qe-6.1/pseudo/Na_pbe_v1.uspp.F.UPF
     MD5 check sum: 76a99c7e9422403d3e93cbc85ab7bccb
     Pseudo is Ultrasoft, Zval =  9.0
     Generated by new atomic code, or converted to UPF format
     Using radial grid of  819 points,  5 beta functions with: 
                l(1) =   0
                l(2) =   0
                l(3) =   1
                l(4) =   1
                l(5) =   2
     Q(r) pseudized with  8 coefficients,  rinner =    1.250   1.250   1.250
                                                       1.250   1.250

     atomic species   valence    mass     pseudopotential
        Na             9.00    22.99000     Na( 1.00)

     48 Sym. Ops., with inversion, found



   Cartesian axes

     site n.     atom                  positions (alat units)
         1           Na  tau(   1) = (   0.0000000   0.0000000   0.0000000  )

     number of k points=  4060  Marzari-Vanderbilt smearing, width (Ry)=  0.0200

     Number of k-points >= 100: set verbosity='high' to print them.

     Dense  grid:    15185 G-vectors     FFT dimensions: (  36,  36,  36)

     Smooth grid:     5329 G-vectors     FFT dimensions: (  25,  25,  25)

     Estimated max dynamical RAM per process >       1.51MB

     Estimated total allocated dynamical RAM >       6.05MB

     The potential is recalculated from file :
     ./_ph0/na.fcc.save/charge-density.dat

     Starting wfc are    5 atomic +    4 random wfc

     Band Structure Calculation
     Davidson diagonalization with overlap

     ethr =  1.11E-10,  avg # of iterations = 16.8

     total cpu time spent up to now is      144.0 secs

     End of band structure calculation

     Number of k-points >= 100: set verbosity='high' to print the bands.

     the Fermi energy is     4.1006 ev

     Writing output data file na.fcc.save

                                                                                

     bravais-lattice index     =            2
     lattice parameter (alat)  =       8.5720  a.u.
     unit-cell volume          =     157.4681 (a.u.)^3
     number of atoms/cell      =            1
     number of atomic types    =            1
     kinetic-energy cut-off    =      40.0000  Ry
     charge density cut-off    =     320.0000  Ry
     convergence threshold     =      1.0E-12
     beta                      =       0.7000
     number of iterations used =            4
     Exchange-correlation      = SLA  PW   PBE  PBE ( 1  4  3  4 0 0)


     celldm(1)=    8.57204  celldm(2)=    0.00000  celldm(3)=    0.00000
     celldm(4)=    0.00000  celldm(5)=    0.00000  celldm(6)=    0.00000

     crystal axes: (cart. coord. in units of alat)
               a(1) = ( -0.5000  0.0000  0.5000 )  
               a(2) = (  0.0000  0.5000  0.5000 )  
               a(3) = ( -0.5000  0.5000  0.0000 )  

     reciprocal axes: (cart. coord. in units 2 pi/alat)
               b(1) = ( -1.0000 -1.0000  1.0000 )  
               b(2) = (  1.0000  1.0000  1.0000 )  
               b(3) = ( -1.0000  1.0000 -1.0000 )  


     Atoms inside the unit cell: 

     Cartesian axes

     site n.  atom      mass           positions (alat units)
        1     Na  22.9900   tau(    1) = (    0.00000    0.00000    0.00000  )

     Computing dynamical matrix for 
                    q = (  -0.2500000   0.2500000  -0.2500000 )

      6 Sym.Ops. (no q -> -q+G )


     G cutoff =  595.6055  (   3797 G-vectors)     FFT grid: ( 36, 36, 36)
     G cutoff =  297.8027  (   1333 G-vectors)  smooth grid: ( 25, 25, 25)

     number of k points=  4060  Marzari-Vanderbilt smearing, width (Ry)=  0.0200

     PseudoPot. # 1 for Na read from file:
     /home/s1333534/quantum_espresso/qe-6.1/pseudo/Na_pbe_v1.uspp.F.UPF
     MD5 check sum: 76a99c7e9422403d3e93cbc85ab7bccb
     Pseudo is Ultrasoft, Zval =  9.0
     Generated by new atomic code, or converted to UPF format
     Using radial grid of  819 points,  5 beta functions with: 
                l(1) =   0
                l(2) =   0
                l(3) =   1
                l(4) =   1
                l(5) =   2
     Q(r) pseudized with  8 coefficients,  rinner =    1.250   1.250   1.250
                                                       1.250   1.250

     Mode symmetry, C_3v (3m)   point group:


     Atomic displacements:
     There are   2 irreducible representations

     Representation     1      1 modes -A_1  L_1  To be done

     Representation     2      2 modes -E    L_3  To be done



     Alpha used in Ewald sum =   2.8000
     PHONON       :  6m28.04s CPU     7m 3.67s WALL



     Representation #  1 mode #   1

     Self-consistent Calculation

      iter #   1 total cpu time :   435.7 secs   av.it.:   5.7
      thresh= 1.000E-02 alpha_mix =  0.700 |ddv_scf|^2 =  7.208E-03

      iter #   2 total cpu time :   446.9 secs   av.it.:   6.3
      thresh= 8.490E-03 alpha_mix =  0.700 |ddv_scf|^2 =  1.610E-01

      iter #   3 total cpu time :   457.9 secs   av.it.:   6.1
      thresh= 1.000E-02 alpha_mix =  0.700 |ddv_scf|^2 =  5.679E-06

      iter #   4 total cpu time :   470.4 secs   av.it.:   7.2
      thresh= 2.383E-04 alpha_mix =  0.700 |ddv_scf|^2 =  2.030E-08

      iter #   5 total cpu time :   483.7 secs   av.it.:   8.0
      thresh= 1.425E-05 alpha_mix =  0.700 |ddv_scf|^2 =  4.150E-09

      iter #   6 total cpu time :   496.6 secs   av.it.:   7.5
      thresh= 6.442E-06 alpha_mix =  0.700 |ddv_scf|^2 =  4.547E-11

      iter #   7 total cpu time :   509.5 secs   av.it.:   7.6
      thresh= 6.743E-07 alpha_mix =  0.700 |ddv_scf|^2 =  5.745E-12

      iter #   8 total cpu time :   521.8 secs   av.it.:   7.2
      thresh= 2.397E-07 alpha_mix =  0.700 |ddv_scf|^2 =  1.029E-11

      iter #   9 total cpu time :   533.4 secs   av.it.:   6.5
      thresh= 3.208E-07 alpha_mix =  0.700 |ddv_scf|^2 =  4.178E-12

      iter #  10 total cpu time :   545.1 secs   av.it.:   6.7
      thresh= 2.044E-07 alpha_mix =  0.700 |ddv_scf|^2 =  2.641E-14

     End of self-consistent calculation

     Convergence has been achieved 


     Representation #  2 modes #   2  3

     Self-consistent Calculation

      iter #   1 total cpu time :   569.0 secs   av.it.:   5.6
      thresh= 1.000E-02 alpha_mix =  0.700 |ddv_scf|^2 =  6.247E-06

      iter #   2 total cpu time :   596.7 secs   av.it.:   8.3
      thresh= 2.499E-04 alpha_mix =  0.700 |ddv_scf|^2 =  1.177E-07

      iter #   3 total cpu time :   624.7 secs   av.it.:   8.4
      thresh= 3.430E-05 alpha_mix =  0.700 |ddv_scf|^2 =  1.553E-09

      iter #   4 total cpu time :   651.2 secs   av.it.:   8.0
      thresh= 3.940E-06 alpha_mix =  0.700 |ddv_scf|^2 =  4.977E-12

      iter #   5 total cpu time :   678.8 secs   av.it.:   8.2
      thresh= 2.231E-07 alpha_mix =  0.700 |ddv_scf|^2 =  1.829E-14

     End of self-consistent calculation

     Convergence has been achieved 

     Number of q in the star =    8
     List of q in the star:
          1  -0.250000000   0.250000000  -0.250000000
          2   0.250000000  -0.250000000  -0.250000000
          3   0.250000000  -0.250000000   0.250000000
          4  -0.250000000   0.250000000   0.250000000
          5   0.250000000   0.250000000  -0.250000000
          6  -0.250000000  -0.250000000  -0.250000000
          7  -0.250000000  -0.250000000   0.250000000
          8   0.250000000   0.250000000   0.250000000

     Diagonalizing the dynamical matrix

     q = (   -0.250000000   0.250000000  -0.250000000 ) 

 **************************************************************************
     freq (    1) =       1.523081 [THz] =      50.804516 [cm-1]
     freq (    2) =       1.523081 [THz] =      50.804516 [cm-1]
     freq (    3) =       4.965441 [THz] =     165.629291 [cm-1]
 **************************************************************************

     Mode symmetry, C_3v (3m)   point group:

     freq (  1 -  2) =         50.8  [cm-1]   --> E    L_3           
     freq (  3 -  3) =        165.6  [cm-1]   --> A_1  L_1           

     Calculation of q =   -0.3750000   0.3750000  -0.3750000

   Info: using nr1, nr2, nr3 values from input

   Info: using nr1, nr2, nr3 values from input

     Parallelization info
     --------------------
     sticks:   dense  smooth     PW     G-vecs:    dense   smooth      PW
     Min         204     102     40                 3796     1332     322
     Max         205     103     42                 3797     1333     323
     Sum         817     409    163                15185     5329    1291



     bravais-lattice index     =            2
     lattice parameter (alat)  =       8.5720  a.u.
     unit-cell volume          =     157.4681 (a.u.)^3
     number of atoms/cell      =            1
     number of atomic types    =            1
     number of electrons       =         9.00
     number of Kohn-Sham states=            9
     kinetic-energy cutoff     =      40.0000  Ry
     charge density cutoff     =     320.0000  Ry
     Exchange-correlation      = SLA  PW   PBE  PBE ( 1  4  3  4 0 0)

     celldm(1)=   8.572041  celldm(2)=   0.000000  celldm(3)=   0.000000
     celldm(4)=   0.000000  celldm(5)=   0.000000  celldm(6)=   0.000000

     crystal axes: (cart. coord. in units of alat)
               a(1) = (  -0.500000   0.000000   0.500000 )  
               a(2) = (   0.000000   0.500000   0.500000 )  
               a(3) = (  -0.500000   0.500000   0.000000 )  

     reciprocal axes: (cart. coord. in units 2 pi/alat)
               b(1) = ( -1.000000 -1.000000  1.000000 )  
               b(2) = (  1.000000  1.000000  1.000000 )  
               b(3) = ( -1.000000  1.000000 -1.000000 )  


     PseudoPot. # 1 for Na read from file:
     /home/s1333534/quantum_espresso/qe-6.1/pseudo/Na_pbe_v1.uspp.F.UPF
     MD5 check sum: 76a99c7e9422403d3e93cbc85ab7bccb
     Pseudo is Ultrasoft, Zval =  9.0
     Generated by new atomic code, or converted to UPF format
     Using radial grid of  819 points,  5 beta functions with: 
                l(1) =   0
                l(2) =   0
                l(3) =   1
                l(4) =   1
                l(5) =   2
     Q(r) pseudized with  8 coefficients,  rinner =    1.250   1.250   1.250
                                                       1.250   1.250

     atomic species   valence    mass     pseudopotential
        Na             9.00    22.99000     Na( 1.00)

     48 Sym. Ops., with inversion, found



   Cartesian axes

     site n.     atom                  positions (alat units)
         1           Na  tau(   1) = (   0.0000000   0.0000000   0.0000000  )

     number of k points=  4060  Marzari-Vanderbilt smearing, width (Ry)=  0.0200

     Number of k-points >= 100: set verbosity='high' to print them.

     Dense  grid:    15185 G-vectors     FFT dimensions: (  36,  36,  36)

     Smooth grid:     5329 G-vectors     FFT dimensions: (  25,  25,  25)

     Estimated max dynamical RAM per process >       1.51MB

     Estimated total allocated dynamical RAM >       6.04MB

     The potential is recalculated from file :
     ./_ph0/na.fcc.save/charge-density.dat

     Starting wfc are    5 atomic +    4 random wfc

     Band Structure Calculation
     Davidson diagonalization with overlap

     ethr =  1.11E-10,  avg # of iterations = 16.8

     total cpu time spent up to now is      217.9 secs

     End of band structure calculation

     Number of k-points >= 100: set verbosity='high' to print the bands.

     the Fermi energy is     4.1006 ev

     Writing output data file na.fcc.save

                                                                                

     bravais-lattice index     =            2
     lattice parameter (alat)  =       8.5720  a.u.
     unit-cell volume          =     157.4681 (a.u.)^3
     number of atoms/cell      =            1
     number of atomic types    =            1
     kinetic-energy cut-off    =      40.0000  Ry
     charge density cut-off    =     320.0000  Ry
     convergence threshold     =      1.0E-12
     beta                      =       0.7000
     number of iterations used =            4
     Exchange-correlation      = SLA  PW   PBE  PBE ( 1  4  3  4 0 0)


     celldm(1)=    8.57204  celldm(2)=    0.00000  celldm(3)=    0.00000
     celldm(4)=    0.00000  celldm(5)=    0.00000  celldm(6)=    0.00000

     crystal axes: (cart. coord. in units of alat)
               a(1) = ( -0.5000  0.0000  0.5000 )  
               a(2) = (  0.0000  0.5000  0.5000 )  
               a(3) = ( -0.5000  0.5000  0.0000 )  

     reciprocal axes: (cart. coord. in units 2 pi/alat)
               b(1) = ( -1.0000 -1.0000  1.0000 )  
               b(2) = (  1.0000  1.0000  1.0000 )  
               b(3) = ( -1.0000  1.0000 -1.0000 )  


     Atoms inside the unit cell: 

     Cartesian axes

     site n.  atom      mass           positions (alat units)
        1     Na  22.9900   tau(    1) = (    0.00000    0.00000    0.00000  )

     Computing dynamical matrix for 
                    q = (  -0.3750000   0.3750000  -0.3750000 )

      6 Sym.Ops. (no q -> -q+G )


     G cutoff =  595.6055  (   3796 G-vectors)     FFT grid: ( 36, 36, 36)
     G cutoff =  297.8027  (   1333 G-vectors)  smooth grid: ( 25, 25, 25)

     number of k points=  4060  Marzari-Vanderbilt smearing, width (Ry)=  0.0200

     PseudoPot. # 1 for Na read from file:
     /home/s1333534/quantum_espresso/qe-6.1/pseudo/Na_pbe_v1.uspp.F.UPF
     MD5 check sum: 76a99c7e9422403d3e93cbc85ab7bccb
     Pseudo is Ultrasoft, Zval =  9.0
     Generated by new atomic code, or converted to UPF format
     Using radial grid of  819 points,  5 beta functions with: 
                l(1) =   0
                l(2) =   0
                l(3) =   1
                l(4) =   1
                l(5) =   2
     Q(r) pseudized with  8 coefficients,  rinner =    1.250   1.250   1.250
                                                       1.250   1.250

     Mode symmetry, C_3v (3m)   point group:


     Atomic displacements:
     There are   2 irreducible representations

     Representation     1      1 modes -A_1  L_1  To be done

     Representation     2      2 modes -E    L_3  To be done



     Alpha used in Ewald sum =   2.8000
     PHONON       : 11m32.78s CPU    12m39.22s WALL



     Representation #  1 mode #   1

     Self-consistent Calculation

      iter #   1 total cpu time :   771.5 secs   av.it.:   5.8
      thresh= 1.000E-02 alpha_mix =  0.700 |ddv_scf|^2 =  7.415E-04

      iter #   2 total cpu time :   783.3 secs   av.it.:   6.6
      thresh= 2.723E-03 alpha_mix =  0.700 |ddv_scf|^2 =  2.145E-03

      iter #   3 total cpu time :   794.7 secs   av.it.:   6.1
      thresh= 4.632E-03 alpha_mix =  0.700 |ddv_scf|^2 =  8.858E-07

      iter #   4 total cpu time :   807.8 secs   av.it.:   7.7
      thresh= 9.412E-05 alpha_mix =  0.700 |ddv_scf|^2 =  2.205E-08

      iter #   5 total cpu time :   821.4 secs   av.it.:   8.1
      thresh= 1.485E-05 alpha_mix =  0.700 |ddv_scf|^2 =  1.073E-09

      iter #   6 total cpu time :   834.7 secs   av.it.:   7.8
      thresh= 3.276E-06 alpha_mix =  0.700 |ddv_scf|^2 =  3.419E-11

      iter #   7 total cpu time :   847.5 secs   av.it.:   7.5
      thresh= 5.847E-07 alpha_mix =  0.700 |ddv_scf|^2 =  1.957E-12

      iter #   8 total cpu time :   860.9 secs   av.it.:   7.7
      thresh= 1.399E-07 alpha_mix =  0.700 |ddv_scf|^2 =  5.262E-15

     End of self-consistent calculation

     Convergence has been achieved 


     Representation #  2 modes #   2  3

     Self-consistent Calculation

      iter #   1 total cpu time :   885.0 secs   av.it.:   5.6
      thresh= 1.000E-02 alpha_mix =  0.700 |ddv_scf|^2 =  6.396E-06

      iter #   2 total cpu time :   913.5 secs   av.it.:   8.3
      thresh= 2.529E-04 alpha_mix =  0.700 |ddv_scf|^2 =  1.167E-07

      iter #   3 total cpu time :   941.8 secs   av.it.:   8.3
      thresh= 3.416E-05 alpha_mix =  0.700 |ddv_scf|^2 =  1.785E-09

      iter #   4 total cpu time :   969.1 secs   av.it.:   8.0
      thresh= 4.225E-06 alpha_mix =  0.700 |ddv_scf|^2 =  5.828E-12

      iter #   5 total cpu time :   996.9 secs   av.it.:   8.3
      thresh= 2.414E-07 alpha_mix =  0.700 |ddv_scf|^2 =  1.792E-14

     End of self-consistent calculation

     Convergence has been achieved 

     Number of q in the star =    8
     List of q in the star:
          1  -0.375000000   0.375000000  -0.375000000
          2   0.375000000  -0.375000000  -0.375000000
          3   0.375000000  -0.375000000   0.375000000
          4  -0.375000000   0.375000000   0.375000000
          5   0.375000000   0.375000000  -0.375000000
          6  -0.375000000  -0.375000000  -0.375000000
          7  -0.375000000  -0.375000000   0.375000000
          8   0.375000000   0.375000000   0.375000000

     Diagonalizing the dynamical matrix

     q = (   -0.375000000   0.375000000  -0.375000000 ) 

 **************************************************************************
     freq (    1) =       2.011110 [THz] =      67.083418 [cm-1]
     freq (    2) =       2.011110 [THz] =      67.083418 [cm-1]
     freq (    3) =       6.527506 [THz] =     217.734177 [cm-1]
 **************************************************************************

     Mode symmetry, C_3v (3m)   point group:

     freq (  1 -  2) =         67.1  [cm-1]   --> E    L_3           
     freq (  3 -  3) =        217.7  [cm-1]   --> A_1  L_1           

     Calculation of q =    0.5000000  -0.5000000   0.5000000

   Info: using nr1, nr2, nr3 values from input

   Info: using nr1, nr2, nr3 values from input

     Parallelization info
     --------------------
     sticks:   dense  smooth     PW     G-vecs:    dense   smooth      PW
     Min         204     102     40                 3796     1332     351
     Max         205     103     41                 3797     1333     354
     Sum         817     409    163                15185     5329    1411



     bravais-lattice index     =            2
     lattice parameter (alat)  =       8.5720  a.u.
     unit-cell volume          =     157.4681 (a.u.)^3
     number of atoms/cell      =            1
     number of atomic types    =            1
     number of electrons       =         9.00
     number of Kohn-Sham states=            9
     kinetic-energy cutoff     =      40.0000  Ry
     charge density cutoff     =     320.0000  Ry
     Exchange-correlation      = SLA  PW   PBE  PBE ( 1  4  3  4 0 0)

     celldm(1)=   8.572041  celldm(2)=   0.000000  celldm(3)=   0.000000
     celldm(4)=   0.000000  celldm(5)=   0.000000  celldm(6)=   0.000000

     crystal axes: (cart. coord. in units of alat)
               a(1) = (  -0.500000   0.000000   0.500000 )  
               a(2) = (   0.000000   0.500000   0.500000 )  
               a(3) = (  -0.500000   0.500000   0.000000 )  

     reciprocal axes: (cart. coord. in units 2 pi/alat)
               b(1) = ( -1.000000 -1.000000  1.000000 )  
               b(2) = (  1.000000  1.000000  1.000000 )  
               b(3) = ( -1.000000  1.000000 -1.000000 )  


     PseudoPot. # 1 for Na read from file:
     /home/s1333534/quantum_espresso/qe-6.1/pseudo/Na_pbe_v1.uspp.F.UPF
     MD5 check sum: 76a99c7e9422403d3e93cbc85ab7bccb
     Pseudo is Ultrasoft, Zval =  9.0
     Generated by new atomic code, or converted to UPF format
     Using radial grid of  819 points,  5 beta functions with: 
                l(1) =   0
                l(2) =   0
                l(3) =   1
                l(4) =   1
                l(5) =   2
     Q(r) pseudized with  8 coefficients,  rinner =    1.250   1.250   1.250
                                                       1.250   1.250

     atomic species   valence    mass     pseudopotential
        Na             9.00    22.99000     Na( 1.00)

     48 Sym. Ops., with inversion, found



   Cartesian axes

     site n.     atom                  positions (alat units)
         1           Na  tau(   1) = (   0.0000000   0.0000000   0.0000000  )

     number of k points=  2030  Marzari-Vanderbilt smearing, width (Ry)=  0.0200

     Number of k-points >= 100: set verbosity='high' to print them.

     Dense  grid:    15185 G-vectors     FFT dimensions: (  36,  36,  36)

     Smooth grid:     5329 G-vectors     FFT dimensions: (  25,  25,  25)

     Estimated max dynamical RAM per process >       1.51MB

     Estimated total allocated dynamical RAM >       6.05MB

     The potential is recalculated from file :
     ./_ph0/na.fcc.save/charge-density.dat

     Starting wfc are    5 atomic +    4 random wfc

     Band Structure Calculation
     Davidson diagonalization with overlap

     ethr =  1.11E-10,  avg # of iterations = 16.8

     total cpu time spent up to now is      256.3 secs

     End of band structure calculation

     Number of k-points >= 100: set verbosity='high' to print the bands.

     the Fermi energy is     4.1006 ev

     Writing output data file na.fcc.save

                                                                                

     bravais-lattice index     =            2
     lattice parameter (alat)  =       8.5720  a.u.
     unit-cell volume          =     157.4681 (a.u.)^3
     number of atoms/cell      =            1
     number of atomic types    =            1
     kinetic-energy cut-off    =      40.0000  Ry
     charge density cut-off    =     320.0000  Ry
     convergence threshold     =      1.0E-12
     beta                      =       0.7000
     number of iterations used =            4
     Exchange-correlation      = SLA  PW   PBE  PBE ( 1  4  3  4 0 0)


     celldm(1)=    8.57204  celldm(2)=    0.00000  celldm(3)=    0.00000
     celldm(4)=    0.00000  celldm(5)=    0.00000  celldm(6)=    0.00000

     crystal axes: (cart. coord. in units of alat)
               a(1) = ( -0.5000  0.0000  0.5000 )  
               a(2) = (  0.0000  0.5000  0.5000 )  
               a(3) = ( -0.5000  0.5000  0.0000 )  

     reciprocal axes: (cart. coord. in units 2 pi/alat)
               b(1) = ( -1.0000 -1.0000  1.0000 )  
               b(2) = (  1.0000  1.0000  1.0000 )  
               b(3) = ( -1.0000  1.0000 -1.0000 )  


     Atoms inside the unit cell: 

     Cartesian axes

     site n.  atom      mass           positions (alat units)
        1     Na  22.9900   tau(    1) = (    0.00000    0.00000    0.00000  )

     Computing dynamical matrix for 
                    q = (   0.5000000  -0.5000000   0.5000000 )

     13 Sym.Ops. (with q -> -q+G )


     G cutoff =  595.6055  (   3797 G-vectors)     FFT grid: ( 36, 36, 36)
     G cutoff =  297.8027  (   1333 G-vectors)  smooth grid: ( 25, 25, 25)

     number of k points=  2030  Marzari-Vanderbilt smearing, width (Ry)=  0.0200

     PseudoPot. # 1 for Na read from file:
     /home/s1333534/quantum_espresso/qe-6.1/pseudo/Na_pbe_v1.uspp.F.UPF
     MD5 check sum: 76a99c7e9422403d3e93cbc85ab7bccb
     Pseudo is Ultrasoft, Zval =  9.0
     Generated by new atomic code, or converted to UPF format
     Using radial grid of  819 points,  5 beta functions with: 
                l(1) =   0
                l(2) =   0
                l(3) =   1
                l(4) =   1
                l(5) =   2
     Q(r) pseudized with  8 coefficients,  rinner =    1.250   1.250   1.250
                                                       1.250   1.250

     Mode symmetry, D_3d (-3m)  point group:


     Atomic displacements:
     There are   2 irreducible representations

     Representation     1      1 modes -A_2u L_2'  To be done

     Representation     2      2 modes -E_u  L_3'  To be done



     Alpha used in Ewald sum =   2.8000
     PHONON       : 15m44.06s CPU    17m17.46s WALL



     Representation #  1 mode #   1

     Self-consistent Calculation

      iter #   1 total cpu time :  1043.6 secs   av.it.:   5.8
      thresh= 1.000E-02 alpha_mix =  0.700 |ddv_scf|^2 =  2.828E-04

      iter #   2 total cpu time :  1049.6 secs   av.it.:   6.7
      thresh= 1.682E-03 alpha_mix =  0.700 |ddv_scf|^2 =  1.589E-04

      iter #   3 total cpu time :  1055.5 secs   av.it.:   6.6
      thresh= 1.261E-03 alpha_mix =  0.700 |ddv_scf|^2 =  1.566E-07

      iter #   4 total cpu time :  1062.2 secs   av.it.:   7.7
      thresh= 3.957E-05 alpha_mix =  0.700 |ddv_scf|^2 =  5.799E-10

      iter #   5 total cpu time :  1068.1 secs   av.it.:   6.7
      thresh= 2.408E-06 alpha_mix =  0.700 |ddv_scf|^2 =  1.476E-11

      iter #   6 total cpu time :  1074.0 secs   av.it.:   6.3
      thresh= 3.842E-07 alpha_mix =  0.700 |ddv_scf|^2 =  2.247E-14

     End of self-consistent calculation

     Convergence has been achieved 


     Representation #  2 modes #   2  3

     Self-consistent Calculation

      iter #   1 total cpu time :  1086.0 secs   av.it.:   5.5
      thresh= 1.000E-02 alpha_mix =  0.700 |ddv_scf|^2 =  6.454E-06

      iter #   2 total cpu time :  1099.6 secs   av.it.:   8.2
      thresh= 2.540E-04 alpha_mix =  0.700 |ddv_scf|^2 =  1.166E-07

      iter #   3 total cpu time :  1114.0 secs   av.it.:   8.3
      thresh= 3.414E-05 alpha_mix =  0.700 |ddv_scf|^2 =  1.875E-09

      iter #   4 total cpu time :  1127.1 secs   av.it.:   7.7
      thresh= 4.330E-06 alpha_mix =  0.700 |ddv_scf|^2 =  6.069E-12

      iter #   5 total cpu time :  1140.6 secs   av.it.:   8.0
      thresh= 2.464E-07 alpha_mix =  0.700 |ddv_scf|^2 =  1.785E-14

     End of self-consistent calculation

     Convergence has been achieved 

     Number of q in the star =    4
     List of q in the star:
          1   0.500000000  -0.500000000   0.500000000
          2   0.500000000   0.500000000   0.500000000
          3  -0.500000000   0.500000000   0.500000000
          4   0.500000000   0.500000000  -0.500000000

     Diagonalizing the dynamical matrix

     q = (    0.500000000  -0.500000000   0.500000000 ) 

 **************************************************************************
     freq (    1) =       2.249062 [THz] =      75.020617 [cm-1]
     freq (    2) =       2.249062 [THz] =      75.020617 [cm-1]
     freq (    3) =       7.108812 [THz] =     237.124430 [cm-1]
 **************************************************************************

     Mode symmetry, D_3d (-3m)  point group:

     freq (  1 -  2) =         75.0  [cm-1]   --> E_u  L_3'          
     freq (  3 -  3) =        237.1  [cm-1]   --> A_2u L_2'          

     Calculation of q =    0.0000000   0.2500000   0.0000000

   Info: using nr1, nr2, nr3 values from input

   Info: using nr1, nr2, nr3 values from input

     Parallelization info
     --------------------
     sticks:   dense  smooth     PW     G-vecs:    dense   smooth      PW
     Min         204     102     37                 3796     1332     309
     Max         205     103     38                 3797     1333     312
     Sum         817     409    151                15185     5329    1243



     bravais-lattice index     =            2
     lattice parameter (alat)  =       8.5720  a.u.
     unit-cell volume          =     157.4681 (a.u.)^3
     number of atoms/cell      =            1
     number of atomic types    =            1
     number of electrons       =         9.00
     number of Kohn-Sham states=            9
     kinetic-energy cutoff     =      40.0000  Ry
     charge density cutoff     =     320.0000  Ry
     Exchange-correlation      = SLA  PW   PBE  PBE ( 1  4  3  4 0 0)

     celldm(1)=   8.572041  celldm(2)=   0.000000  celldm(3)=   0.000000
     celldm(4)=   0.000000  celldm(5)=   0.000000  celldm(6)=   0.000000

     crystal axes: (cart. coord. in units of alat)
               a(1) = (  -0.500000   0.000000   0.500000 )  
               a(2) = (   0.000000   0.500000   0.500000 )  
               a(3) = (  -0.500000   0.500000   0.000000 )  

     reciprocal axes: (cart. coord. in units 2 pi/alat)
               b(1) = ( -1.000000 -1.000000  1.000000 )  
               b(2) = (  1.000000  1.000000  1.000000 )  
               b(3) = ( -1.000000  1.000000 -1.000000 )  


     PseudoPot. # 1 for Na read from file:
     /home/s1333534/quantum_espresso/qe-6.1/pseudo/Na_pbe_v1.uspp.F.UPF
     MD5 check sum: 76a99c7e9422403d3e93cbc85ab7bccb
     Pseudo is Ultrasoft, Zval =  9.0
     Generated by new atomic code, or converted to UPF format
     Using radial grid of  819 points,  5 beta functions with: 
                l(1) =   0
                l(2) =   0
                l(3) =   1
                l(4) =   1
                l(5) =   2
     Q(r) pseudized with  8 coefficients,  rinner =    1.250   1.250   1.250
                                                       1.250   1.250

     atomic species   valence    mass     pseudopotential
        Na             9.00    22.99000     Na( 1.00)

     48 Sym. Ops., with inversion, found



   Cartesian axes

     site n.     atom                  positions (alat units)
         1           Na  tau(   1) = (   0.0000000   0.0000000   0.0000000  )

     number of k points=  2940  Marzari-Vanderbilt smearing, width (Ry)=  0.0200

     Number of k-points >= 100: set verbosity='high' to print them.

     Dense  grid:    15185 G-vectors     FFT dimensions: (  36,  36,  36)

     Smooth grid:     5329 G-vectors     FFT dimensions: (  25,  25,  25)

     Estimated max dynamical RAM per process >       1.51MB

     Estimated total allocated dynamical RAM >       6.05MB

     The potential is recalculated from file :
     ./_ph0/na.fcc.save/charge-density.dat

     Starting wfc are    5 atomic +    4 random wfc

     Band Structure Calculation
     Davidson diagonalization with overlap

     ethr =  1.11E-10,  avg # of iterations = 16.8

     total cpu time spent up to now is      308.7 secs

     End of band structure calculation

     Number of k-points >= 100: set verbosity='high' to print the bands.

     the Fermi energy is     4.1006 ev

     Writing output data file na.fcc.save

                                                                                

     bravais-lattice index     =            2
     lattice parameter (alat)  =       8.5720  a.u.
     unit-cell volume          =     157.4681 (a.u.)^3
     number of atoms/cell      =            1
     number of atomic types    =            1
     kinetic-energy cut-off    =      40.0000  Ry
     charge density cut-off    =     320.0000  Ry
     convergence threshold     =      1.0E-12
     beta                      =       0.7000
     number of iterations used =            4
     Exchange-correlation      = SLA  PW   PBE  PBE ( 1  4  3  4 0 0)


     celldm(1)=    8.57204  celldm(2)=    0.00000  celldm(3)=    0.00000
     celldm(4)=    0.00000  celldm(5)=    0.00000  celldm(6)=    0.00000

     crystal axes: (cart. coord. in units of alat)
               a(1) = ( -0.5000  0.0000  0.5000 )  
               a(2) = (  0.0000  0.5000  0.5000 )  
               a(3) = ( -0.5000  0.5000  0.0000 )  

     reciprocal axes: (cart. coord. in units 2 pi/alat)
               b(1) = ( -1.0000 -1.0000  1.0000 )  
               b(2) = (  1.0000  1.0000  1.0000 )  
               b(3) = ( -1.0000  1.0000 -1.0000 )  


     Atoms inside the unit cell: 

     Cartesian axes

     site n.  atom      mass           positions (alat units)
        1     Na  22.9900   tau(    1) = (    0.00000    0.00000    0.00000  )

     Computing dynamical matrix for 
                    q = (   0.0000000   0.2500000   0.0000000 )

      8 Sym.Ops. (no q -> -q+G )


     G cutoff =  595.6055  (   3797 G-vectors)     FFT grid: ( 36, 36, 36)
     G cutoff =  297.8027  (   1333 G-vectors)  smooth grid: ( 25, 25, 25)

     number of k points=  2940  Marzari-Vanderbilt smearing, width (Ry)=  0.0200

     PseudoPot. # 1 for Na read from file:
     /home/s1333534/quantum_espresso/qe-6.1/pseudo/Na_pbe_v1.uspp.F.UPF
     MD5 check sum: 76a99c7e9422403d3e93cbc85ab7bccb
     Pseudo is Ultrasoft, Zval =  9.0
     Generated by new atomic code, or converted to UPF format
     Using radial grid of  819 points,  5 beta functions with: 
                l(1) =   0
                l(2) =   0
                l(3) =   1
                l(4) =   1
                l(5) =   2
     Q(r) pseudized with  8 coefficients,  rinner =    1.250   1.250   1.250
                                                       1.250   1.250

     Mode symmetry, C_4v (4mm)  point group:


     Atomic displacements:
     There are   2 irreducible representations

     Representation     1      1 modes -A_1  G_1 D_1  To be done

     Representation     2      2 modes -E    G_5 D_5  To be done



     Alpha used in Ewald sum =   2.8000
     PHONON       : 18m10.87s CPU    19m58.30s WALL



     Representation #  1 mode #   1

     Self-consistent Calculation

      iter #   1 total cpu time :  1206.9 secs   av.it.:   5.6
      thresh= 1.000E-02 alpha_mix =  0.700 |ddv_scf|^2 =  2.043E-01

      iter #   2 total cpu time :  1215.8 secs   av.it.:   7.1
      thresh= 1.000E-02 alpha_mix =  0.700 |ddv_scf|^2 =  5.554E+01

      iter #   3 total cpu time :  1224.6 secs   av.it.:   7.0
      thresh= 1.000E-02 alpha_mix =  0.700 |ddv_scf|^2 =  4.636E-05

      iter #   4 total cpu time :  1233.3 secs   av.it.:   6.3
      thresh= 6.809E-04 alpha_mix =  0.700 |ddv_scf|^2 =  4.811E-07

      iter #   5 total cpu time :  1242.1 secs   av.it.:   7.1
      thresh= 6.936E-05 alpha_mix =  0.700 |ddv_scf|^2 =  9.017E-09

      iter #   6 total cpu time :  1250.8 secs   av.it.:   7.0
      thresh= 9.496E-06 alpha_mix =  0.700 |ddv_scf|^2 =  2.271E-07

      iter #   7 total cpu time :  1257.0 secs   av.it.:   4.3
      thresh= 4.765E-05 alpha_mix =  0.700 |ddv_scf|^2 =  2.721E-10

      iter #   8 total cpu time :  1266.2 secs   av.it.:   7.5
      thresh= 1.650E-06 alpha_mix =  0.700 |ddv_scf|^2 =  2.030E-11

      iter #   9 total cpu time :  1275.1 secs   av.it.:   7.1
      thresh= 4.505E-07 alpha_mix =  0.700 |ddv_scf|^2 =  1.505E-13

     End of self-consistent calculation

     Convergence has been achieved 


     Representation #  2 modes #   2  3

     Self-consistent Calculation

      iter #   1 total cpu time :  1292.2 secs   av.it.:   5.5
      thresh= 1.000E-02 alpha_mix =  0.700 |ddv_scf|^2 =  6.299E-06

      iter #   2 total cpu time :  1312.5 secs   av.it.:   8.2
      thresh= 2.510E-04 alpha_mix =  0.700 |ddv_scf|^2 =  1.155E-07

      iter #   3 total cpu time :  1332.4 secs   av.it.:   8.4
      thresh= 3.399E-05 alpha_mix =  0.700 |ddv_scf|^2 =  1.743E-09

      iter #   4 total cpu time :  1351.6 secs   av.it.:   7.9
      thresh= 4.175E-06 alpha_mix =  0.700 |ddv_scf|^2 =  5.395E-12

      iter #   5 total cpu time :  1371.9 secs   av.it.:   8.2
      thresh= 2.323E-07 alpha_mix =  0.700 |ddv_scf|^2 =  1.635E-14

     End of self-consistent calculation

     Convergence has been achieved 

     Number of q in the star =    6
     List of q in the star:
          1   0.000000000   0.250000000   0.000000000
          2   0.000000000  -0.250000000   0.000000000
          3   0.250000000   0.000000000   0.000000000
          4   0.000000000   0.000000000   0.250000000
          5   0.000000000   0.000000000  -0.250000000
          6  -0.250000000   0.000000000   0.000000000

     Diagonalizing the dynamical matrix

     q = (    0.000000000   0.250000000   0.000000000 ) 

 **************************************************************************
     freq (    1) =       1.541056 [THz] =      51.404107 [cm-1]
     freq (    2) =       1.541056 [THz] =      51.404107 [cm-1]
     freq (    3) =       2.730735 [THz] =      91.087511 [cm-1]
 **************************************************************************

     Mode symmetry, C_4v (4mm)  point group:

     freq (  1 -  2) =         51.4  [cm-1]   --> E    G_5 D_5       
     freq (  3 -  3) =         91.1  [cm-1]   --> A_1  G_1 D_1       

     Calculation of q =   -0.1250000   0.3750000  -0.1250000

   Info: using nr1, nr2, nr3 values from input

   Info: using nr1, nr2, nr3 values from input

     Parallelization info
     --------------------
     sticks:   dense  smooth     PW     G-vecs:    dense   smooth      PW
     Min         204     102     37                 3796     1332     309
     Max         205     103     38                 3797     1333     312
     Sum         817     409    151                15185     5329    1243



     bravais-lattice index     =            2
     lattice parameter (alat)  =       8.5720  a.u.
     unit-cell volume          =     157.4681 (a.u.)^3
     number of atoms/cell      =            1
     number of atomic types    =            1
     number of electrons       =         9.00
     number of Kohn-Sham states=            9
     kinetic-energy cutoff     =      40.0000  Ry
     charge density cutoff     =     320.0000  Ry
     Exchange-correlation      = SLA  PW   PBE  PBE ( 1  4  3  4 0 0)

     celldm(1)=   8.572041  celldm(2)=   0.000000  celldm(3)=   0.000000
     celldm(4)=   0.000000  celldm(5)=   0.000000  celldm(6)=   0.000000

     crystal axes: (cart. coord. in units of alat)
               a(1) = (  -0.500000   0.000000   0.500000 )  
               a(2) = (   0.000000   0.500000   0.500000 )  
               a(3) = (  -0.500000   0.500000   0.000000 )  

     reciprocal axes: (cart. coord. in units 2 pi/alat)
               b(1) = ( -1.000000 -1.000000  1.000000 )  
               b(2) = (  1.000000  1.000000  1.000000 )  
               b(3) = ( -1.000000  1.000000 -1.000000 )  


     PseudoPot. # 1 for Na read from file:
     /home/s1333534/quantum_espresso/qe-6.1/pseudo/Na_pbe_v1.uspp.F.UPF
     MD5 check sum: 76a99c7e9422403d3e93cbc85ab7bccb
     Pseudo is Ultrasoft, Zval =  9.0
     Generated by new atomic code, or converted to UPF format
     Using radial grid of  819 points,  5 beta functions with: 
                l(1) =   0
                l(2) =   0
                l(3) =   1
                l(4) =   1
                l(5) =   2
     Q(r) pseudized with  8 coefficients,  rinner =    1.250   1.250   1.250
                                                       1.250   1.250

     atomic species   valence    mass     pseudopotential
        Na             9.00    22.99000     Na( 1.00)

     48 Sym. Ops., with inversion, found



   Cartesian axes

     site n.     atom                  positions (alat units)
         1           Na  tau(   1) = (   0.0000000   0.0000000   0.0000000  )

     number of k points= 11368  Marzari-Vanderbilt smearing, width (Ry)=  0.0200

     Number of k-points >= 100: set verbosity='high' to print them.

     Dense  grid:    15185 G-vectors     FFT dimensions: (  36,  36,  36)

     Smooth grid:     5329 G-vectors     FFT dimensions: (  25,  25,  25)

     Estimated max dynamical RAM per process >       1.51MB

     Estimated total allocated dynamical RAM >       6.05MB

     The potential is recalculated from file :
     ./_ph0/na.fcc.save/charge-density.dat

     Starting wfc are    5 atomic +    4 random wfc

     Band Structure Calculation
     Davidson diagonalization with overlap

     ethr =  1.11E-10,  avg # of iterations = 16.8

     total cpu time spent up to now is      508.8 secs

     End of band structure calculation

     Number of k-points >= 100: set verbosity='high' to print the bands.

     the Fermi energy is     4.1006 ev

     Writing output data file na.fcc.save

                                                                                

     bravais-lattice index     =            2
     lattice parameter (alat)  =       8.5720  a.u.
     unit-cell volume          =     157.4681 (a.u.)^3
     number of atoms/cell      =            1
     number of atomic types    =            1
     kinetic-energy cut-off    =      40.0000  Ry
     charge density cut-off    =     320.0000  Ry
     convergence threshold     =      1.0E-12
     beta                      =       0.7000
     number of iterations used =            4
     Exchange-correlation      = SLA  PW   PBE  PBE ( 1  4  3  4 0 0)


     celldm(1)=    8.57204  celldm(2)=    0.00000  celldm(3)=    0.00000
     celldm(4)=    0.00000  celldm(5)=    0.00000  celldm(6)=    0.00000

     crystal axes: (cart. coord. in units of alat)
               a(1) = ( -0.5000  0.0000  0.5000 )  
               a(2) = (  0.0000  0.5000  0.5000 )  
               a(3) = ( -0.5000  0.5000  0.0000 )  

     reciprocal axes: (cart. coord. in units 2 pi/alat)
               b(1) = ( -1.0000 -1.0000  1.0000 )  
               b(2) = (  1.0000  1.0000  1.0000 )  
               b(3) = ( -1.0000  1.0000 -1.0000 )  


     Atoms inside the unit cell: 

     Cartesian axes

     site n.  atom      mass           positions (alat units)
        1     Na  22.9900   tau(    1) = (    0.00000    0.00000    0.00000  )

     Computing dynamical matrix for 
                    q = (  -0.1250000   0.3750000  -0.1250000 )

      2 Sym.Ops. (no q -> -q+G )


     G cutoff =  595.6055  (   3797 G-vectors)     FFT grid: ( 36, 36, 36)
     G cutoff =  297.8027  (   1333 G-vectors)  smooth grid: ( 25, 25, 25)

     number of k points= 11368  Marzari-Vanderbilt smearing, width (Ry)=  0.0200

     PseudoPot. # 1 for Na read from file:
     /home/s1333534/quantum_espresso/qe-6.1/pseudo/Na_pbe_v1.uspp.F.UPF
     MD5 check sum: 76a99c7e9422403d3e93cbc85ab7bccb
     Pseudo is Ultrasoft, Zval =  9.0
     Generated by new atomic code, or converted to UPF format
     Using radial grid of  819 points,  5 beta functions with: 
                l(1) =   0
                l(2) =   0
                l(3) =   1
                l(4) =   1
                l(5) =   2
     Q(r) pseudized with  8 coefficients,  rinner =    1.250   1.250   1.250
                                                       1.250   1.250

     Mode symmetry, C_s (m)     point group:


     Atomic displacements:
     There are   3 irreducible representations

     Representation     1      1 modes -A'  To be done

     Representation     2      1 modes -A'  To be done

     Representation     3      1 modes -A''  To be done



     Alpha used in Ewald sum =   2.8000
     PHONON       : 24m13.36s CPU    26m34.34s WALL



     Representation #  1 mode #   1

     Self-consistent Calculation

      iter #   1 total cpu time :  1629.0 secs   av.it.:   5.8
      thresh= 1.000E-02 alpha_mix =  0.700 |ddv_scf|^2 =  8.218E-03

      iter #   2 total cpu time :  1660.3 secs   av.it.:   6.3
      thresh= 9.065E-03 alpha_mix =  0.700 |ddv_scf|^2 =  2.290E-01

      iter #   3 total cpu time :  1691.9 secs   av.it.:   6.1
      thresh= 1.000E-02 alpha_mix =  0.700 |ddv_scf|^2 =  5.098E-06

      iter #   4 total cpu time :  1727.3 secs   av.it.:   7.4
      thresh= 2.258E-04 alpha_mix =  0.700 |ddv_scf|^2 =  4.637E-08

      iter #   5 total cpu time :  1764.3 secs   av.it.:   7.7
      thresh= 2.153E-05 alpha_mix =  0.700 |ddv_scf|^2 =  3.114E-09

      iter #   6 total cpu time :  1800.9 secs   av.it.:   7.6
      thresh= 5.580E-06 alpha_mix =  0.700 |ddv_scf|^2 =  2.337E-10

      iter #   7 total cpu time :  1836.7 secs   av.it.:   7.4
      thresh= 1.529E-06 alpha_mix =  0.700 |ddv_scf|^2 =  3.100E-09

      iter #   8 total cpu time :  1865.3 secs   av.it.:   5.4
      thresh= 5.567E-06 alpha_mix =  0.700 |ddv_scf|^2 =  1.108E-12

      iter #   9 total cpu time :  1901.3 secs   av.it.:   7.5
      thresh= 1.053E-07 alpha_mix =  0.700 |ddv_scf|^2 =  5.525E-14

     End of self-consistent calculation

     Convergence has been achieved 


     Representation #  2 mode #   2

     Self-consistent Calculation

      iter #   1 total cpu time :  1936.5 secs   av.it.:   5.7
      thresh= 1.000E-02 alpha_mix =  0.700 |ddv_scf|^2 =  1.268E-03

      iter #   2 total cpu time :  1969.8 secs   av.it.:   6.8
      thresh= 3.561E-03 alpha_mix =  0.700 |ddv_scf|^2 =  3.472E-02

      iter #   3 total cpu time :  1997.6 secs   av.it.:   5.2
      thresh= 1.000E-02 alpha_mix =  0.700 |ddv_scf|^2 =  5.873E-07

      iter #   4 total cpu time :  2035.1 secs   av.it.:   7.8
      thresh= 7.664E-05 alpha_mix =  0.700 |ddv_scf|^2 =  1.113E-08

      iter #   5 total cpu time :  2071.9 secs   av.it.:   7.8
      thresh= 1.055E-05 alpha_mix =  0.700 |ddv_scf|^2 =  8.640E-10

      iter #   6 total cpu time :  2108.6 secs   av.it.:   7.7
      thresh= 2.939E-06 alpha_mix =  0.700 |ddv_scf|^2 =  2.714E-10

      iter #   7 total cpu time :  2142.4 secs   av.it.:   7.0
      thresh= 1.647E-06 alpha_mix =  0.700 |ddv_scf|^2 =  1.187E-09

      iter #   8 total cpu time :  2173.7 secs   av.it.:   6.0
      thresh= 3.445E-06 alpha_mix =  0.700 |ddv_scf|^2 =  3.490E-11

      iter #   9 total cpu time :  2206.8 secs   av.it.:   6.7
      thresh= 5.908E-07 alpha_mix =  0.700 |ddv_scf|^2 =  1.209E-11

      iter #  10 total cpu time :  2240.8 secs   av.it.:   7.0
      thresh= 3.477E-07 alpha_mix =  0.700 |ddv_scf|^2 =  5.922E-14

     End of self-consistent calculation

     Convergence has been achieved 


     Representation #  3 mode #   3

     Self-consistent Calculation

      iter #   1 total cpu time :  2275.2 secs   av.it.:   5.5
      thresh= 1.000E-02 alpha_mix =  0.700 |ddv_scf|^2 =  2.635E-05

      iter #   2 total cpu time :  2311.0 secs   av.it.:   7.5
      thresh= 5.133E-04 alpha_mix =  0.700 |ddv_scf|^2 =  4.460E-07

      iter #   3 total cpu time :  2347.9 secs   av.it.:   7.7
      thresh= 6.678E-05 alpha_mix =  0.700 |ddv_scf|^2 =  9.750E-09

      iter #   4 total cpu time :  2383.4 secs   av.it.:   7.4
      thresh= 9.874E-06 alpha_mix =  0.700 |ddv_scf|^2 =  3.076E-11

      iter #   5 total cpu time :  2419.7 secs   av.it.:   7.6
      thresh= 5.546E-07 alpha_mix =  0.700 |ddv_scf|^2 =  5.880E-14

     End of self-consistent calculation

     Convergence has been achieved 

     Number of q in the star =   24
     List of q in the star:
          1  -0.125000000   0.375000000  -0.125000000
          2  -0.125000000   0.375000000   0.125000000
          3   0.125000000   0.375000000  -0.125000000
          4   0.125000000   0.375000000   0.125000000
          5   0.125000000  -0.375000000   0.125000000
          6   0.375000000  -0.125000000   0.125000000
          7   0.125000000  -0.125000000   0.375000000
          8  -0.125000000  -0.375000000  -0.125000000
          9   0.125000000  -0.375000000  -0.125000000
         10  -0.125000000  -0.375000000   0.125000000
         11   0.125000000  -0.125000000  -0.375000000
         12   0.375000000  -0.125000000  -0.125000000
         13  -0.375000000  -0.125000000   0.125000000
         14   0.375000000   0.125000000   0.125000000
         15  -0.125000000  -0.125000000   0.375000000
         16   0.125000000   0.125000000   0.375000000
         17  -0.375000000   0.125000000  -0.125000000
         18  -0.125000000   0.125000000  -0.375000000
         19  -0.375000000  -0.125000000  -0.125000000
         20   0.125000000   0.125000000  -0.375000000
         21   0.375000000   0.125000000  -0.125000000
         22  -0.125000000  -0.125000000  -0.375000000
         23  -0.375000000   0.125000000   0.125000000
         24  -0.125000000   0.125000000   0.375000000

     Diagonalizing the dynamical matrix

     q = (   -0.125000000   0.375000000  -0.125000000 ) 

 **************************************************************************
     freq (    1) =       2.151600 [THz] =      71.769646 [cm-1]
     freq (    2) =       2.155139 [THz] =      71.887684 [cm-1]
     freq (    3) =       4.470998 [THz] =     149.136425 [cm-1]
 **************************************************************************

     Mode symmetry, C_s (m)     point group:

     freq (  1 -  1) =         71.8  [cm-1]   --> A'                 
     freq (  2 -  2) =         71.9  [cm-1]   --> A''                
     freq (  3 -  3) =        149.1  [cm-1]   --> A'                 

     Calculation of q =   -0.2500000   0.5000000  -0.2500000

   Info: using nr1, nr2, nr3 values from input

   Info: using nr1, nr2, nr3 values from input

     Parallelization info
     --------------------
     sticks:   dense  smooth     PW     G-vecs:    dense   smooth      PW
     Min         204     102     40                 3796     1332     340
     Max         205     103     41                 3797     1333     342
     Sum         817     409    163                15185     5329    1363



     bravais-lattice index     =            2
     lattice parameter (alat)  =       8.5720  a.u.
     unit-cell volume          =     157.4681 (a.u.)^3
     number of atoms/cell      =            1
     number of atomic types    =            1
     number of electrons       =         9.00
     number of Kohn-Sham states=            9
     kinetic-energy cutoff     =      40.0000  Ry
     charge density cutoff     =     320.0000  Ry
     Exchange-correlation      = SLA  PW   PBE  PBE ( 1  4  3  4 0 0)

     celldm(1)=   8.572041  celldm(2)=   0.000000  celldm(3)=   0.000000
     celldm(4)=   0.000000  celldm(5)=   0.000000  celldm(6)=   0.000000

     crystal axes: (cart. coord. in units of alat)
               a(1) = (  -0.500000   0.000000   0.500000 )  
               a(2) = (   0.000000   0.500000   0.500000 )  
               a(3) = (  -0.500000   0.500000   0.000000 )  

     reciprocal axes: (cart. coord. in units 2 pi/alat)
               b(1) = ( -1.000000 -1.000000  1.000000 )  
               b(2) = (  1.000000  1.000000  1.000000 )  
               b(3) = ( -1.000000  1.000000 -1.000000 )  


     PseudoPot. # 1 for Na read from file:
     /home/s1333534/quantum_espresso/qe-6.1/pseudo/Na_pbe_v1.uspp.F.UPF
     MD5 check sum: 76a99c7e9422403d3e93cbc85ab7bccb
     Pseudo is Ultrasoft, Zval =  9.0
     Generated by new atomic code, or converted to UPF format
     Using radial grid of  819 points,  5 beta functions with: 
                l(1) =   0
                l(2) =   0
                l(3) =   1
                l(4) =   1
                l(5) =   2
     Q(r) pseudized with  8 coefficients,  rinner =    1.250   1.250   1.250
                                                       1.250   1.250

     atomic species   valence    mass     pseudopotential
        Na             9.00    22.99000     Na( 1.00)

     48 Sym. Ops., with inversion, found



   Cartesian axes

     site n.     atom                  positions (alat units)
         1           Na  tau(   1) = (   0.0000000   0.0000000   0.0000000  )

     number of k points= 11368  Marzari-Vanderbilt smearing, width (Ry)=  0.0200

     Number of k-points >= 100: set verbosity='high' to print them.

     Dense  grid:    15185 G-vectors     FFT dimensions: (  36,  36,  36)

     Smooth grid:     5329 G-vectors     FFT dimensions: (  25,  25,  25)

     Estimated max dynamical RAM per process >       1.51MB

     Estimated total allocated dynamical RAM >       6.05MB

     The potential is recalculated from file :
     ./_ph0/na.fcc.save/charge-density.dat

     Starting wfc are    5 atomic +    4 random wfc

     Band Structure Calculation
     Davidson diagonalization with overlap

     ethr =  1.11E-10,  avg # of iterations = 16.8

     total cpu time spent up to now is      715.3 secs

     End of band structure calculation

     Number of k-points >= 100: set verbosity='high' to print the bands.

     the Fermi energy is     4.1006 ev

     Writing output data file na.fcc.save

                                                                                

     bravais-lattice index     =            2
     lattice parameter (alat)  =       8.5720  a.u.
     unit-cell volume          =     157.4681 (a.u.)^3
     number of atoms/cell      =            1
     number of atomic types    =            1
     kinetic-energy cut-off    =      40.0000  Ry
     charge density cut-off    =     320.0000  Ry
     convergence threshold     =      1.0E-12
     beta                      =       0.7000
     number of iterations used =            4
     Exchange-correlation      = SLA  PW   PBE  PBE ( 1  4  3  4 0 0)


     celldm(1)=    8.57204  celldm(2)=    0.00000  celldm(3)=    0.00000
     celldm(4)=    0.00000  celldm(5)=    0.00000  celldm(6)=    0.00000

     crystal axes: (cart. coord. in units of alat)
               a(1) = ( -0.5000  0.0000  0.5000 )  
               a(2) = (  0.0000  0.5000  0.5000 )  
               a(3) = ( -0.5000  0.5000  0.0000 )  

     reciprocal axes: (cart. coord. in units 2 pi/alat)
               b(1) = ( -1.0000 -1.0000  1.0000 )  
               b(2) = (  1.0000  1.0000  1.0000 )  
               b(3) = ( -1.0000  1.0000 -1.0000 )  


     Atoms inside the unit cell: 

     Cartesian axes

     site n.  atom      mass           positions (alat units)
        1     Na  22.9900   tau(    1) = (    0.00000    0.00000    0.00000  )

     Computing dynamical matrix for 
                    q = (  -0.2500000   0.5000000  -0.2500000 )

      2 Sym.Ops. (no q -> -q+G )


     G cutoff =  595.6055  (   3797 G-vectors)     FFT grid: ( 36, 36, 36)
     G cutoff =  297.8027  (   1333 G-vectors)  smooth grid: ( 25, 25, 25)

     number of k points= 11368  Marzari-Vanderbilt smearing, width (Ry)=  0.0200

     PseudoPot. # 1 for Na read from file:
     /home/s1333534/quantum_espresso/qe-6.1/pseudo/Na_pbe_v1.uspp.F.UPF
     MD5 check sum: 76a99c7e9422403d3e93cbc85ab7bccb
     Pseudo is Ultrasoft, Zval =  9.0
     Generated by new atomic code, or converted to UPF format
     Using radial grid of  819 points,  5 beta functions with: 
                l(1) =   0
                l(2) =   0
                l(3) =   1
                l(4) =   1
                l(5) =   2
     Q(r) pseudized with  8 coefficients,  rinner =    1.250   1.250   1.250
                                                       1.250   1.250

     Mode symmetry, C_s (m)     point group:


     Atomic displacements:
     There are   3 irreducible representations

     Representation     1      1 modes -A'  To be done

     Representation     2      1 modes -A'  To be done

     Representation     3      1 modes -A''  To be done



     Alpha used in Ewald sum =   2.8000
     PHONON       : 39m57.86s CPU    44m 3.54s WALL



     Representation #  1 mode #   1

     Self-consistent Calculation

      iter #   1 total cpu time :  2678.7 secs   av.it.:   5.8
      thresh= 1.000E-02 alpha_mix =  0.700 |ddv_scf|^2 =  8.012E-04

      iter #   2 total cpu time :  2712.3 secs   av.it.:   6.8
      thresh= 2.830E-03 alpha_mix =  0.700 |ddv_scf|^2 =  3.274E-03

      iter #   3 total cpu time :  2743.1 secs   av.it.:   5.9
      thresh= 5.722E-03 alpha_mix =  0.700 |ddv_scf|^2 =  7.632E-07

      iter #   4 total cpu time :  2780.6 secs   av.it.:   7.8
      thresh= 8.736E-05 alpha_mix =  0.700 |ddv_scf|^2 =  9.675E-09

      iter #   5 total cpu time :  2819.9 secs   av.it.:   8.2
      thresh= 9.836E-06 alpha_mix =  0.700 |ddv_scf|^2 =  1.332E-09

      iter #   6 total cpu time :  2857.5 secs   av.it.:   7.8
      thresh= 3.649E-06 alpha_mix =  0.700 |ddv_scf|^2 =  4.975E-11

      iter #   7 total cpu time :  2894.9 secs   av.it.:   7.8
      thresh= 7.053E-07 alpha_mix =  0.700 |ddv_scf|^2 =  1.225E-11

      iter #   8 total cpu time :  2929.0 secs   av.it.:   7.0
      thresh= 3.500E-07 alpha_mix =  0.700 |ddv_scf|^2 =  1.484E-11

      iter #   9 total cpu time :  2961.7 secs   av.it.:   6.4
      thresh= 3.852E-07 alpha_mix =  0.700 |ddv_scf|^2 =  4.794E-13

     End of self-consistent calculation

     Convergence has been achieved 


     Representation #  2 mode #   2

     Self-consistent Calculation

      iter #   1 total cpu time :  2997.8 secs   av.it.:   5.8
      thresh= 1.000E-02 alpha_mix =  0.700 |ddv_scf|^2 =  2.320E-04

      iter #   2 total cpu time :  3033.6 secs   av.it.:   7.3
      thresh= 1.523E-03 alpha_mix =  0.700 |ddv_scf|^2 =  8.434E-04

      iter #   3 total cpu time :  3064.5 secs   av.it.:   5.9
      thresh= 2.904E-03 alpha_mix =  0.700 |ddv_scf|^2 =  5.354E-07

      iter #   4 total cpu time :  3102.3 secs   av.it.:   7.8
      thresh= 7.317E-05 alpha_mix =  0.700 |ddv_scf|^2 =  1.392E-08

      iter #   5 total cpu time :  3141.6 secs   av.it.:   8.1
      thresh= 1.180E-05 alpha_mix =  0.700 |ddv_scf|^2 =  7.073E-10

      iter #   6 total cpu time :  3179.5 secs   av.it.:   8.0
      thresh= 2.660E-06 alpha_mix =  0.700 |ddv_scf|^2 =  6.225E-11

      iter #   7 total cpu time :  3217.1 secs   av.it.:   7.7
      thresh= 7.890E-07 alpha_mix =  0.700 |ddv_scf|^2 =  4.317E-13

     End of self-consistent calculation

     Convergence has been achieved 


     Representation #  3 mode #   3

     Self-consistent Calculation

      iter #   1 total cpu time :  3252.0 secs   av.it.:   5.5
      thresh= 1.000E-02 alpha_mix =  0.700 |ddv_scf|^2 =  2.707E-05

      iter #   2 total cpu time :  3288.6 secs   av.it.:   7.5
      thresh= 5.203E-04 alpha_mix =  0.700 |ddv_scf|^2 =  4.394E-07

      iter #   3 total cpu time :  3326.0 secs   av.it.:   7.7
      thresh= 6.629E-05 alpha_mix =  0.700 |ddv_scf|^2 =  1.130E-08

      iter #   4 total cpu time :  3361.6 secs   av.it.:   7.4
      thresh= 1.063E-05 alpha_mix =  0.700 |ddv_scf|^2 =  3.715E-11

      iter #   5 total cpu time :  3398.2 secs   av.it.:   7.6
      thresh= 6.095E-07 alpha_mix =  0.700 |ddv_scf|^2 =  5.805E-14

     End of self-consistent calculation

     Convergence has been achieved 

     Number of q in the star =   24
     List of q in the star:
          1  -0.250000000   0.500000000  -0.250000000
          2  -0.250000000   0.500000000   0.250000000
          3   0.250000000   0.500000000  -0.250000000
          4   0.250000000   0.500000000   0.250000000
          5   0.250000000  -0.500000000   0.250000000
          6   0.500000000  -0.250000000   0.250000000
          7   0.250000000  -0.250000000   0.500000000
          8  -0.250000000  -0.500000000  -0.250000000
          9   0.250000000  -0.500000000  -0.250000000
         10  -0.250000000  -0.500000000   0.250000000
         11   0.250000000  -0.250000000  -0.500000000
         12   0.500000000  -0.250000000  -0.250000000
         13  -0.500000000  -0.250000000   0.250000000
         14   0.500000000   0.250000000   0.250000000
         15  -0.250000000  -0.250000000   0.500000000
         16   0.250000000   0.250000000   0.500000000
         17  -0.500000000   0.250000000  -0.250000000
         18  -0.250000000   0.250000000  -0.500000000
         19  -0.500000000  -0.250000000  -0.250000000
         20   0.250000000   0.250000000  -0.500000000
         21   0.500000000   0.250000000  -0.250000000
         22  -0.250000000  -0.250000000  -0.500000000
         23  -0.500000000   0.250000000   0.250000000
         24  -0.250000000   0.250000000   0.500000000

     Diagonalizing the dynamical matrix

     q = (   -0.250000000   0.500000000  -0.250000000 ) 

 **************************************************************************
     freq (    1) =       2.510323 [THz] =      83.735372 [cm-1]
     freq (    2) =       2.731544 [THz] =      91.114485 [cm-1]
     freq (    3) =       6.216402 [THz] =     207.356867 [cm-1]
 **************************************************************************

     Mode symmetry, C_s (m)     point group:

     freq (  1 -  1) =         83.7  [cm-1]   --> A''                
     freq (  2 -  2) =         91.1  [cm-1]   --> A'                 
     freq (  3 -  3) =        207.4  [cm-1]   --> A'                 

     Calculation of q =    0.6250000  -0.3750000   0.6250000

   Info: using nr1, nr2, nr3 values from input

   Info: using nr1, nr2, nr3 values from input

     Parallelization info
     --------------------
     sticks:   dense  smooth     PW     G-vecs:    dense   smooth      PW
     Min         204     102     40                 3796     1332     351
     Max         205     103     41                 3797     1333     354
     Sum         817     409    163                15185     5329    1411



     bravais-lattice index     =            2
     lattice parameter (alat)  =       8.5720  a.u.
     unit-cell volume          =     157.4681 (a.u.)^3
     number of atoms/cell      =            1
     number of atomic types    =            1
     number of electrons       =         9.00
     number of Kohn-Sham states=            9
     kinetic-energy cutoff     =      40.0000  Ry
     charge density cutoff     =     320.0000  Ry
     Exchange-correlation      = SLA  PW   PBE  PBE ( 1  4  3  4 0 0)

     celldm(1)=   8.572041  celldm(2)=   0.000000  celldm(3)=   0.000000
     celldm(4)=   0.000000  celldm(5)=   0.000000  celldm(6)=   0.000000

     crystal axes: (cart. coord. in units of alat)
               a(1) = (  -0.500000   0.000000   0.500000 )  
[...]

     PseudoPot. # 1 for Na read from file:
     /home/s1333534/quantum_espresso/qe-6.1/pseudo/Na_pbe_v1.uspp.F.UPF
     MD5 check sum: 76a99c7e9422403d3e93cbc85ab7bccb
     Pseudo is Ultrasoft, Zval =  9.0
     Generated by new atomic code, or converted to UPF format
     Using radial grid of  819 points,  5 beta functions with: 
                l(1) =   0
                l(2) =   0
                l(3) =   1
                l(4) =   1
                l(5) =   2
     Q(r) pseudized with  8 coefficients,  rinner =    1.250   1.250   1.250
                                                       1.250   1.250

     Mode symmetry, C_2v (mm2)  point group:


     Atomic displacements:
     There are   3 irreducible representations

     Representation     1      1 modes -A_1  D_1  S_1  To be done

     Representation     2      1 modes -B_1  D_3  S_3  To be done

     Representation     3      1 modes -B_2  D_4  S_4  To be done



     Alpha used in Ewald sum =   2.8000
     PHONON       :     4h57m CPU        5h29m WALL



     Representation #  1 mode #   1

     Self-consistent Calculation

      iter #   1 total cpu time : 19804.7 secs   av.it.:   5.6
      thresh= 1.000E-02 alpha_mix =  0.700 |ddv_scf|^2 =  3.990E-05

      iter #   2 total cpu time : 19822.2 secs   av.it.:   7.6
      thresh= 6.317E-04 alpha_mix =  0.700 |ddv_scf|^2 =  1.137E-06

      iter #   3 total cpu time : 19841.0 secs   av.it.:   7.6
      thresh= 1.066E-04 alpha_mix =  0.700 |ddv_scf|^2 =  4.620E-08

      iter #   4 total cpu time : 19858.8 secs   av.it.:   7.8
      thresh= 2.149E-05 alpha_mix =  0.700 |ddv_scf|^2 =  2.407E-09

      iter #   5 total cpu time : 19876.8 secs   av.it.:   7.8
      thresh= 4.907E-06 alpha_mix =  0.700 |ddv_scf|^2 =  1.234E-10

      iter #   6 total cpu time : 19895.3 secs   av.it.:   7.9
      thresh= 1.111E-06 alpha_mix =  0.700 |ddv_scf|^2 =  8.113E-12

      iter #   7 total cpu time : 19913.1 secs   av.it.:   7.7
      thresh= 2.848E-07 alpha_mix =  0.700 |ddv_scf|^2 =  2.772E-13

     End of self-consistent calculation

     Convergence has been achieved 


     Representation #  2 mode #   2

     Self-consistent Calculation

      iter #   1 total cpu time : 19929.7 secs   av.it.:   5.6
      thresh= 1.000E-02 alpha_mix =  0.700 |ddv_scf|^2 =  4.105E-05

      iter #   2 total cpu time : 19947.2 secs   av.it.:   7.5
      thresh= 6.407E-04 alpha_mix =  0.700 |ddv_scf|^2 =  4.811E-07

      iter #   3 total cpu time : 19965.2 secs   av.it.:   7.7
      thresh= 6.936E-05 alpha_mix =  0.700 |ddv_scf|^2 =  3.142E-08

      iter #   4 total cpu time : 19983.1 secs   av.it.:   7.7
      thresh= 1.773E-05 alpha_mix =  0.700 |ddv_scf|^2 =  3.531E-10

      iter #   5 total cpu time : 20000.5 secs   av.it.:   7.2
      thresh= 1.879E-06 alpha_mix =  0.700 |ddv_scf|^2 =  3.430E-13

     End of self-consistent calculation

     Convergence has been achieved 


     Representation #  3 mode #   3

     Self-consistent Calculation

      iter #   1 total cpu time : 20017.2 secs   av.it.:   5.7
      thresh= 1.000E-02 alpha_mix =  0.700 |ddv_scf|^2 =  1.080E-04

      iter #   2 total cpu time : 20034.2 secs   av.it.:   7.2
      thresh= 1.039E-03 alpha_mix =  0.700 |ddv_scf|^2 =  1.187E-05

      iter #   3 total cpu time : 20051.3 secs   av.it.:   7.2
      thresh= 3.445E-04 alpha_mix =  0.700 |ddv_scf|^2 =  8.762E-08

      iter #   4 total cpu time : 20069.9 secs   av.it.:   7.8
      thresh= 2.960E-05 alpha_mix =  0.700 |ddv_scf|^2 =  3.134E-10

      iter #   5 total cpu time : 20086.3 secs   av.it.:   6.9
      thresh= 1.770E-06 alpha_mix =  0.700 |ddv_scf|^2 =  5.642E-13

     End of self-consistent calculation

     Convergence has been achieved 

     Number of q in the star =   12
     List of q in the star:
          1  -0.250000000  -1.000000000   0.000000000
          2   0.000000000  -1.000000000   0.250000000
          3   0.000000000  -1.000000000  -0.250000000
          4   0.250000000  -1.000000000   0.000000000
          5  -1.000000000   0.000000000  -0.250000000
          6   1.000000000   0.000000000   0.250000000
          7  -1.000000000  -0.250000000   0.000000000
          8   0.000000000  -0.250000000  -1.000000000
          9   0.000000000   0.250000000  -1.000000000
         10   1.000000000   0.250000000   0.000000000
         11  -0.250000000   0.000000000   1.000000000
         12   0.250000000   0.000000000   1.000000000

     Diagonalizing the dynamical matrix

     q = (   -0.250000000  -1.000000000   0.000000000 ) 

 **************************************************************************
     freq (    1) =       4.286426 [THz] =     142.979766 [cm-1]
     freq (    2) =       4.900108 [THz] =     163.449994 [cm-1]
     freq (    3) =       6.953060 [THz] =     231.929133 [cm-1]
 **************************************************************************

     Mode symmetry, C_2v (mm2)  point group:

     freq (  1 -  1) =        143.0  [cm-1]   --> A_1  D_1  S_1      
     freq (  2 -  2) =        163.4  [cm-1]   --> B_1  D_3  S_3      
     freq (  3 -  3) =        231.9  [cm-1]   --> B_2  D_4  S_4      

     Calculation of q =   -0.5000000  -1.0000000   0.0000000

   Info: using nr1, nr2, nr3 values from input

   Info: using nr1, nr2, nr3 values from input

     Parallelization info
     --------------------
     sticks:   dense  smooth     PW     G-vecs:    dense   smooth      PW
     Min         203     102     40                 3796     1332     362
     Max         205     103     41                 3797     1333     366
     Sum         817     409    163                15185     5329    1459



     bravais-lattice index     =            2
     lattice parameter (alat)  =       8.5720  a.u.
     unit-cell volume          =     157.4681 (a.u.)^3
     number of atoms/cell      =            1
     number of atomic types    =            1
     number of electrons       =         9.00
     number of Kohn-Sham states=            9
     kinetic-energy cutoff     =      40.0000  Ry
     charge density cutoff     =     320.0000  Ry
     Exchange-correlation      = SLA  PW   PBE  PBE ( 1  4  3  4 0 0)

     celldm(1)=   8.572041  celldm(2)=   0.000000  celldm(3)=   0.000000
     celldm(4)=   0.000000  celldm(5)=   0.000000  celldm(6)=   0.000000

     crystal axes: (cart. coord. in units of alat)
               a(1) = (  -0.500000   0.000000   0.500000 )  
               a(2) = (   0.000000   0.500000   0.500000 )  
               a(3) = (  -0.500000   0.500000   0.000000 )  

     reciprocal axes: (cart. coord. in units 2 pi/alat)
               b(1) = ( -1.000000 -1.000000  1.000000 )  
               b(2) = (  1.000000  1.000000  1.000000 )  
               b(3) = ( -1.000000  1.000000 -1.000000 )  


     PseudoPot. # 1 for Na read from file:
     /home/s1333534/quantum_espresso/qe-6.1/pseudo/Na_pbe_v1.uspp.F.UPF
     MD5 check sum: 76a99c7e9422403d3e93cbc85ab7bccb
     Pseudo is Ultrasoft, Zval =  9.0
     Generated by new atomic code, or converted to UPF format
     Using radial grid of  819 points,  5 beta functions with: 
                l(1) =   0
                l(2) =   0
                l(3) =   1
                l(4) =   1
                l(5) =   2
     Q(r) pseudized with  8 coefficients,  rinner =    1.250   1.250   1.250
                                                       1.250   1.250

     atomic species   valence    mass     pseudopotential
        Na             9.00    22.99000     Na( 1.00)

     48 Sym. Ops., with inversion, found



   Cartesian axes

     site n.     atom                  positions (alat units)
         1           Na  tau(   1) = (   0.0000000   0.0000000   0.0000000  )

     number of k points=  2744  Marzari-Vanderbilt smearing, width (Ry)=  0.0200

     Number of k-points >= 100: set verbosity='high' to print them.

     Dense  grid:    15185 G-vectors     FFT dimensions: (  36,  36,  36)

     Smooth grid:     5329 G-vectors     FFT dimensions: (  25,  25,  25)

     Estimated max dynamical RAM per process >       1.51MB

     Estimated total allocated dynamical RAM >       6.04MB

     The potential is recalculated from file :
     ./_ph0/na.fcc.save/charge-density.dat

     Starting wfc are    5 atomic +    4 random wfc

     Band Structure Calculation
     Davidson diagonalization with overlap

     ethr =  1.11E-10,  avg # of iterations = 16.7

     total cpu time spent up to now is     4352.9 secs

     End of band structure calculation

     Number of k-points >= 100: set verbosity='high' to print the bands.

     the Fermi energy is     4.1006 ev

     Writing output data file na.fcc.save

                                                                                

     bravais-lattice index     =            2
     lattice parameter (alat)  =       8.5720  a.u.
     unit-cell volume          =     157.4681 (a.u.)^3
     number of atoms/cell      =            1
     number of atomic types    =            1
     kinetic-energy cut-off    =      40.0000  Ry
     charge density cut-off    =     320.0000  Ry
     convergence threshold     =      1.0E-12
     beta                      =       0.7000
     number of iterations used =            4
     Exchange-correlation      = SLA  PW   PBE  PBE ( 1  4  3  4 0 0)


     celldm(1)=    8.57204  celldm(2)=    0.00000  celldm(3)=    0.00000
     celldm(4)=    0.00000  celldm(5)=    0.00000  celldm(6)=    0.00000

     crystal axes: (cart. coord. in units of alat)
               a(1) = ( -0.5000  0.0000  0.5000 )  
               a(2) = (  0.0000  0.5000  0.5000 )  
               a(3) = ( -0.5000  0.5000  0.0000 )  

     reciprocal axes: (cart. coord. in units 2 pi/alat)
               b(1) = ( -1.0000 -1.0000  1.0000 )  
               b(2) = (  1.0000  1.0000  1.0000 )  
               b(3) = ( -1.0000  1.0000 -1.0000 )  


     Atoms inside the unit cell: 

     Cartesian axes

     site n.  atom      mass           positions (alat units)
        1     Na  22.9900   tau(    1) = (    0.00000    0.00000    0.00000  )

     Computing dynamical matrix for 
                    q = (  -0.5000000  -1.0000000   0.0000000 )

      8 Sym.Ops. (no q -> -q+G )


     G cutoff =  595.6055  (   3796 G-vectors)     FFT grid: ( 36, 36, 36)
     G cutoff =  297.8027  (   1333 G-vectors)  smooth grid: ( 25, 25, 25)

     number of k points=  2744  Marzari-Vanderbilt smearing, width (Ry)=  0.0200

     PseudoPot. # 1 for Na read from file:
     /home/s1333534/quantum_espresso/qe-6.1/pseudo/Na_pbe_v1.uspp.F.UPF
     MD5 check sum: 76a99c7e9422403d3e93cbc85ab7bccb
     Pseudo is Ultrasoft, Zval =  9.0
     Generated by new atomic code, or converted to UPF format
     Using radial grid of  819 points,  5 beta functions with: 
                l(1) =   0
                l(2) =   0
                l(3) =   1
                l(4) =   1
                l(5) =   2
     Q(r) pseudized with  8 coefficients,  rinner =    1.250   1.250   1.250
                                                       1.250   1.250

     Mode symmetry, D_2d (-42m) point group:


     Atomic displacements:
     There are   2 irreducible representations

     Representation     1      1 modes -B_2  X_3  W_2  To be done

     Representation     2      2 modes -E    X_5  W_3  To be done



     Alpha used in Ewald sum =   2.8000
     PHONON       :     5h 3m CPU        5h35m WALL



     Representation #  1 mode #   1

     Self-consistent Calculation

      iter #   1 total cpu time : 20148.8 secs   av.it.:   5.6
      thresh= 1.000E-02 alpha_mix =  0.700 |ddv_scf|^2 =  4.601E-05

      iter #   2 total cpu time : 20157.6 secs   av.it.:   7.5
      thresh= 6.783E-04 alpha_mix =  0.700 |ddv_scf|^2 =  1.512E-06

      iter #   3 total cpu time : 20166.4 secs   av.it.:   7.6
      thresh= 1.230E-04 alpha_mix =  0.700 |ddv_scf|^2 =  3.418E-08

      iter #   4 total cpu time : 20175.8 secs   av.it.:   7.9
      thresh= 1.849E-05 alpha_mix =  0.700 |ddv_scf|^2 =  5.870E-10

      iter #   5 total cpu time : 20184.4 secs   av.it.:   7.3
      thresh= 2.423E-06 alpha_mix =  0.700 |ddv_scf|^2 =  7.617E-13

     End of self-consistent calculation

     Convergence has been achieved 


     Representation #  2 modes #   2  3

     Self-consistent Calculation

      iter #   1 total cpu time : 20200.9 secs   av.it.:   5.7
      thresh= 1.000E-02 alpha_mix =  0.700 |ddv_scf|^2 =  1.671E-05

      iter #   2 total cpu time : 20219.6 secs   av.it.:   8.1
      thresh= 4.088E-04 alpha_mix =  0.700 |ddv_scf|^2 =  6.660E-07

      iter #   3 total cpu time : 20237.5 secs   av.it.:   7.8
      thresh= 8.161E-05 alpha_mix =  0.700 |ddv_scf|^2 =  1.433E-08

      iter #   4 total cpu time : 20256.8 secs   av.it.:   8.4
      thresh= 1.197E-05 alpha_mix =  0.700 |ddv_scf|^2 =  8.186E-11

      iter #   5 total cpu time : 20274.2 secs   av.it.:   7.6
      thresh= 9.048E-07 alpha_mix =  0.700 |ddv_scf|^2 =  4.988E-14

     End of self-consistent calculation

     Convergence has been achieved 

     Number of q in the star =    6
     List of q in the star:
          1  -0.500000000  -1.000000000   0.000000000
          2   0.000000000   1.000000000   0.500000000
          3   0.500000000  -1.000000000   0.000000000
          4   0.000000000   1.000000000  -0.500000000
          5  -1.000000000  -0.500000000   0.000000000
          6   0.000000000  -0.500000000  -1.000000000

     Diagonalizing the dynamical matrix

     q = (   -0.500000000  -1.000000000   0.000000000 ) 

 **************************************************************************
     freq (    1) =       4.599615 [THz] =     153.426653 [cm-1]
     freq (    2) =       5.931430 [THz] =     197.851215 [cm-1]
     freq (    3) =       5.931430 [THz] =     197.851215 [cm-1]
 **************************************************************************

     Mode symmetry, D_2d (-42m) point group:

     freq (  1 -  1) =        153.4  [cm-1]   --> B_2  X_3  W_2      
     freq (  2 -  3) =        197.9  [cm-1]   --> E    X_5  W_3      

     init_run     :      7.13s CPU      7.21s WALL (      28 calls)
     electrons    :   3876.19s CPU   4179.55s WALL (      28 calls)

     Called by init_run:
     wfcinit      :      0.00s CPU      0.00s WALL (      28 calls)
     potinit      :      0.29s CPU      0.30s WALL (      28 calls)

     Called by electrons:
     c_bands      :   3875.08s CPU   4178.44s WALL (      28 calls)
     v_of_rho     :      0.23s CPU      0.23s WALL (      29 calls)
     newd         :      0.27s CPU      0.27s WALL (      29 calls)

     Called by c_bands:
     init_us_2    :    263.55s CPU    246.99s WALL ( 3435194 calls)
     cegterg      :   3549.97s CPU   3814.53s WALL (  263601 calls)

     Called by sum_band:

     Called by *egterg:
     h_psi        :  11977.88s CPU  13188.26s WALL (28168279 calls)
     s_psi        :    392.78s CPU    422.64s WALL (54257761 calls)
     g_psi        :     16.09s CPU     29.14s WALL ( 4014050 calls)
     cdiaghg      :    905.25s CPU    860.96s WALL ( 4253954 calls)

     Called by h_psi:
     h_psi:pot    :  11905.40s CPU  13099.41s WALL (28168279 calls)
     h_psi:calbec :    282.52s CPU    355.49s WALL (28168279 calls)
     vloc_psi     :  11343.54s CPU  12404.21s WALL (28168279 calls)
     add_vuspsi   :    220.26s CPU    257.36s WALL (28168279 calls)

     General routines
     calbec       :    611.45s CPU    685.87s WALL (60182407 calls)
     fft          :      2.12s CPU      2.26s WALL (    9082 calls)
     ffts         :     21.37s CPU     23.23s WALL (  363584 calls)
     fftw         :  12326.53s CPU  13293.34s WALL (******** calls)
     interpolate  :      0.36s CPU      0.43s WALL (    1259 calls)
     davcio       :     96.07s CPU    332.09s WALL (13017578 calls)

     Parallel routines
     fft_scatter  :   3138.02s CPU   3660.85s WALL (******** calls)

     PHONON       :     5h 5m CPU        5h37m WALL

     INITIALIZATION: 
     phq_setup    :      0.81s CPU      0.81s WALL (      29 calls)
     phq_init     :    321.51s CPU    341.56s WALL (      29 calls)

     phq_init     :    321.51s CPU    341.56s WALL (      29 calls)
     init_vloc    :      0.08s CPU      0.08s WALL (      29 calls)
     init_us_1    :      3.06s CPU      3.09s WALL (      29 calls)
     newd         :      0.27s CPU      0.27s WALL (      29 calls)
     dvanqq       :      1.05s CPU      1.07s WALL (      29 calls)
     drho         :    261.28s CPU    278.18s WALL (      29 calls)

     DYNAMICAL MATRIX:
     dynmat0      :     39.32s CPU     40.71s WALL (      29 calls)
     phqscf       :  13925.54s CPU  15570.93s WALL (      29 calls)
     dynmatrix    :      0.03s CPU      0.04s WALL (      29 calls)

     phqscf       :  13925.54s CPU  15570.93s WALL (      29 calls)
     solve_linter :  13861.18s CPU  15502.79s WALL (      76 calls)
     drhodv       :     64.27s CPU     67.47s WALL (      76 calls)

     dynmat0      :     39.32s CPU     40.71s WALL (      29 calls)
     dynmat_us    :     39.28s CPU     40.67s WALL (      29 calls)
     d2ionq       :      0.02s CPU      0.02s WALL (      29 calls)

     dynmat_us    :     39.28s CPU     40.67s WALL (      29 calls)
     addusdynmat  :      0.00s CPU      0.00s WALL (      29 calls)

     phqscf       :  13925.54s CPU  15570.93s WALL (      29 calls)
     solve_linter :  13861.18s CPU  15502.79s WALL (      76 calls)

     solve_linter :  13861.18s CPU  15502.79s WALL (      76 calls)
     dvqpsi_us    :    420.81s CPU    455.69s WALL (  360696 calls)
     ortho        :    126.27s CPU    147.50s WALL ( 2438758 calls)
     cgsolve      :  10737.25s CPU  11829.15s WALL ( 2438758 calls)
     incdrhoscf   :   1237.16s CPU   1378.17s WALL ( 2438758 calls)
     addusddens   :      8.35s CPU      8.44s WALL (     578 calls)
     vpsifft      :    947.29s CPU   1066.91s WALL ( 2078062 calls)
     dv_of_drho   :      2.41s CPU      2.49s WALL (     557 calls)
     mix_pot      :      0.36s CPU      0.90s WALL (     502 calls)
     ef_shift     :      0.01s CPU      0.02s WALL (       6 calls)
     localdos     :      0.13s CPU      0.14s WALL (       1 calls)
     psymdvscf    :      5.11s CPU      5.18s WALL (     459 calls)
     newdq        :      7.53s CPU      7.58s WALL (     502 calls)
     adddvscf     :     47.39s CPU     52.59s WALL ( 2078062 calls)
     drhodvus     :      0.02s CPU      0.02s WALL (      76 calls)

     dvqpsi_us    :    420.81s CPU    455.69s WALL (  360696 calls)
     dvqpsi_us_on :     81.49s CPU     77.36s WALL (  360696 calls)

     cgsolve      :  10737.25s CPU  11829.15s WALL ( 2438758 calls)
     ch_psi       :  10488.45s CPU  11574.05s WALL (23650724 calls)

     ch_psi       :  10488.45s CPU  11574.05s WALL (23650724 calls)
     h_psi        :  11977.88s CPU  13188.26s WALL (28168279 calls)
     last         :    712.46s CPU    803.12s WALL (23650724 calls)

     h_psi        :  11977.88s CPU  13188.26s WALL (28168279 calls)
     add_vuspsi   :    220.26s CPU    257.36s WALL (28168279 calls)

     incdrhoscf   :   1237.16s CPU   1378.17s WALL ( 2438758 calls)
     addusdbec    :     58.31s CPU     61.83s WALL ( 2799454 calls)

     drhodvus     :      0.02s CPU      0.02s WALL (      76 calls)

      General routines
     calbec       :    611.45s CPU    685.87s WALL (60182407 calls)
     fft          :      2.12s CPU      2.26s WALL (    9082 calls)
     ffts         :     21.37s CPU     23.23s WALL (  363584 calls)
     fftw         :  12326.53s CPU  13293.34s WALL (******** calls)
     davcio       :     96.07s CPU    332.09s WALL (13017578 calls)
     write_rec    :      0.44s CPU      2.12s WALL (     578 calls)


     PHONON       :     5h 5m CPU        5h37m WALL


   This run was terminated on:  17:54:51  21Dec2017            

=------------------------------------------------------------------------------=
   JOB DONE.
=------------------------------------------------------------------------------=
