
     Program PWSCF v.6.1 (svn rev. 13369) starts on 20Dec2017 at 14:45:26 

     This program is part of the open-source Quantum ESPRESSO suite
     for quantum simulation of materials; please cite
         "P. Giannozzi et al., J. Phys.:Condens. Matter 21 395502 (2009);
          URL http://www.quantum-espresso.org", 
     in publications or presentations arising from this work. More details at
     http://www.quantum-espresso.org/quote

     Parallel version (MPI), running on     4 processors
     R & G space division:  proc/nbgrp/npool/nimage =       4
     Waiting for input...
     Reading input from standard input

     Current dimensions of program PWSCF are:
     Max number of different atomic species (ntypx) = 10
     Max number of k-points (npk) =  40000
     Max angular momentum in pseudopotentials (lmaxx) =  3

     Subspace diagonalization in iterative solution of the eigenvalue problem:
     a serial algorithm will be used


     Parallelization info
     --------------------
     sticks:   dense  smooth     PW     G-vecs:    dense   smooth      PW
     Min         267     133     46                 5791     2024     409
     Max         268     134     47                 5793     2025     411
     Sum        1069     535    187                23169     8099    1639



     bravais-lattice index     =            2
     lattice parameter (alat)  =       9.8594  a.u.
     unit-cell volume          =     239.5993 (a.u.)^3
     number of atoms/cell      =            1
     number of atomic types    =            1
     number of electrons       =         9.00
     number of Kohn-Sham states=            9
     kinetic-energy cutoff     =      40.0000  Ry
     charge density cutoff     =     320.0000  Ry
     convergence threshold     =      1.0E-08
     mixing beta               =       0.7000
     number of iterations used =            8  plain     mixing
     Exchange-correlation      = SLA  PW   PBE  PBE ( 1  4  3  4 0 0)
     nstep                     =           50


     celldm(1)=   9.859355  celldm(2)=   0.000000  celldm(3)=   0.000000
     celldm(4)=   0.000000  celldm(5)=   0.000000  celldm(6)=   0.000000

     crystal axes: (cart. coord. in units of alat)
               a(1) = (  -0.500000   0.000000   0.500000 )  
               a(2) = (   0.000000   0.500000   0.500000 )  
               a(3) = (  -0.500000   0.500000   0.000000 )  

     reciprocal axes: (cart. coord. in units 2 pi/alat)
               b(1) = ( -1.000000 -1.000000  1.000000 )  
               b(2) = (  1.000000  1.000000  1.000000 )  
               b(3) = ( -1.000000  1.000000 -1.000000 )  


     PseudoPot. # 1 for Na read from file:
     /home/s1333534/quantum_espresso/qe-6.1/pseudo/Na_pbe_v1.uspp.F.UPF
     MD5 check sum: 76a99c7e9422403d3e93cbc85ab7bccb
     Pseudo is Ultrasoft, Zval =  9.0
     Generated by new atomic code, or converted to UPF format
     Using radial grid of  819 points,  5 beta functions with: 
                l(1) =   0
                l(2) =   0
                l(3) =   1
                l(4) =   1
                l(5) =   2
     Q(r) pseudized with  8 coefficients,  rinner =    1.250   1.250   1.250
                                                       1.250   1.250

     atomic species   valence    mass     pseudopotential
        Na             9.00    22.99000     Na( 1.00)

     48 Sym. Ops., with inversion, found



   Cartesian axes

     site n.     atom                  positions (alat units)
         1           Na  tau(   1) = (   0.0000000   0.0000000   0.0000000  )

     number of k points=   770  Marzari-Vanderbilt smearing, width (Ry)=  0.0200

     Number of k-points >= 100: set verbosity='high' to print them.

     Dense  grid:    23169 G-vectors     FFT dimensions: (  40,  40,  40)

     Smooth grid:     8099 G-vectors     FFT dimensions: (  30,  30,  30)

     Estimated max dynamical RAM per process >      30.87MB

     Estimated total allocated dynamical RAM >     123.47MB

     Initial potential from superposition of free atoms

     starting charge    8.99371, renormalised to    9.00000
     Starting wfc are    5 randomized atomic wfcs +    4 random wfc

     total cpu time spent up to now is        2.4 secs

     per-process dynamical memory:    39.7 Mb

     Self-consistent Calculation

     iteration #  1     ecut=    40.00 Ry     beta=0.70
     Davidson diagonalization with overlap
     ethr =  1.00E-02,  avg # of iterations =  5.5

     Threshold (ethr) on eigenvalues was too large:
     Diagonalizing with lowered threshold

     Davidson diagonalization with overlap
     ethr =  9.98E-06,  avg # of iterations =  4.0

     total cpu time spent up to now is       18.2 secs

     total energy              =     -95.10634480 Ry
     Harris-Foulkes estimate   =     -95.10657275 Ry
     estimated scf accuracy    <       0.00089582 Ry

     iteration #  2     ecut=    40.00 Ry     beta=0.70
     Davidson diagonalization with overlap
     ethr =  9.95E-06,  avg # of iterations =  2.0

     total cpu time spent up to now is       23.6 secs

     total energy              =     -95.10644503 Ry
     Harris-Foulkes estimate   =     -95.10646749 Ry
     estimated scf accuracy    <       0.00009791 Ry

     iteration #  3     ecut=    40.00 Ry     beta=0.70
     Davidson diagonalization with overlap
     ethr =  1.09E-06,  avg # of iterations =  2.1

     total cpu time spent up to now is       29.2 secs

     total energy              =     -95.10645681 Ry
     Harris-Foulkes estimate   =     -95.10645789 Ry
     estimated scf accuracy    <       0.00000588 Ry

     iteration #  4     ecut=    40.00 Ry     beta=0.70
     Davidson diagonalization with overlap
     ethr =  6.53E-08,  avg # of iterations =  1.0

     total cpu time spent up to now is       34.0 secs

     total energy              =     -95.10645736 Ry
     Harris-Foulkes estimate   =     -95.10645732 Ry
     estimated scf accuracy    <       0.00000001 Ry

     iteration #  5     ecut=    40.00 Ry     beta=0.70
     Davidson diagonalization with overlap
     ethr =  1.19E-10,  avg # of iterations =  3.0

     total cpu time spent up to now is       40.7 secs

     End of self-consistent calculation

     Number of k-points >= 100: set verbosity='high' to print the bands.

     the Fermi energy is     1.7874 ev

!    total energy              =     -95.10645739 Ry
     Harris-Foulkes estimate   =     -95.10645739 Ry
     estimated scf accuracy    <          1.6E-09 Ry

     The total energy is the sum of the following terms:

     one-electron contribution =     -87.20123608 Ry
     hartree contribution      =      44.03611674 Ry
     xc contribution           =     -14.27413940 Ry
     ewald contribution        =     -37.66715330 Ry
     smearing contrib. (-TS)   =      -0.00004535 Ry

     convergence has been achieved in   5 iterations

     Forces acting on atoms (cartesian axes, Ry/au):

     atom    1 type  1   force =     0.00000000    0.00000000    0.00000000

     Total force =     0.000000     Total SCF correction =     0.000000


     Computing stress (Cartesian axis) and pressure

          total   stress  (Ry/bohr**3)                   (kbar)     P=    0.86
   0.00000587  -0.00000000  -0.00000000          0.86     -0.00     -0.00
  -0.00000000   0.00000587   0.00000000         -0.00      0.86      0.00
  -0.00000000   0.00000000   0.00000587         -0.00      0.00      0.86


     BFGS Geometry Optimization

     number of scf cycles    =   1
     number of bfgs steps    =   0

     enthalpy new            =     -95.1064573935 Ry

     new trust radius        =       0.0004546065 bohr
     new conv_thr            =       0.0000000100 Ry

     new unit-cell volume =    239.70484 a.u.^3 (    35.52059 Ang^3 )
     density =      1.07475 g/cm^3

CELL_PARAMETERS (alat=  9.85935478)
  -0.500073423   0.000000000   0.500073423
  -0.000000000   0.500073423   0.500073423
  -0.500073423   0.500073423   0.000000000

ATOMIC_POSITIONS (crystal)
Na       0.000000000   0.000000000   0.000000000



     Writing output data file na.fcc.save
     NEW-OLD atomic charge density approx. for the potential
     extrapolated charge    9.00396, renormalised to    9.00000

     total cpu time spent up to now is       43.5 secs

     per-process dynamical memory:    50.5 Mb

     Self-consistent Calculation

     iteration #  1     ecut=    40.00 Ry     beta=0.70
     Davidson diagonalization with overlap
     ethr =  1.00E-06,  avg # of iterations =  2.0

     Threshold (ethr) on eigenvalues was too large:
     Diagonalizing with lowered threshold

     Davidson diagonalization with overlap
     ethr =  6.48E-08,  avg # of iterations =  1.0

     total cpu time spent up to now is       54.1 secs

     total energy              =     -95.10644748 Ry
     Harris-Foulkes estimate   =     -95.07585265 Ry
     estimated scf accuracy    <       0.00000583 Ry

     iteration #  2     ecut=    40.00 Ry     beta=0.70
     Davidson diagonalization with overlap
     ethr =  6.48E-08,  avg # of iterations =  2.9

     total cpu time spent up to now is       60.5 secs

     total energy              =     -95.10645806 Ry
     Harris-Foulkes estimate   =     -95.10646233 Ry
     estimated scf accuracy    <       0.00000971 Ry

     iteration #  3     ecut=    40.00 Ry     beta=0.70
     Davidson diagonalization with overlap
     ethr =  6.48E-08,  avg # of iterations =  1.6

     total cpu time spent up to now is       65.5 secs

     total energy              =     -95.10645814 Ry
     Harris-Foulkes estimate   =     -95.10645870 Ry
     estimated scf accuracy    <       0.00000190 Ry

     iteration #  4     ecut=    40.00 Ry     beta=0.70
     Davidson diagonalization with overlap
     ethr =  2.11E-08,  avg # of iterations =  1.0

     total cpu time spent up to now is       70.3 secs

     total energy              =     -95.10645797 Ry
     Harris-Foulkes estimate   =     -95.10645821 Ry
     estimated scf accuracy    <       0.00000073 Ry

     iteration #  5     ecut=    40.00 Ry     beta=0.70
     Davidson diagonalization with overlap
     ethr =  8.11E-09,  avg # of iterations =  1.0

     total cpu time spent up to now is       75.1 secs

     total energy              =     -95.10645792 Ry
     Harris-Foulkes estimate   =     -95.10645800 Ry
     estimated scf accuracy    <       0.00000027 Ry

     iteration #  6     ecut=    40.00 Ry     beta=0.70
     Davidson diagonalization with overlap
     ethr =  2.96E-09,  avg # of iterations =  1.0

     total cpu time spent up to now is       79.9 secs

     total energy              =     -95.10645785 Ry
     Harris-Foulkes estimate   =     -95.10645792 Ry
     estimated scf accuracy    <       0.00000011 Ry

     iteration #  7     ecut=    40.00 Ry     beta=0.70
     Davidson diagonalization with overlap
     ethr =  1.18E-09,  avg # of iterations =  2.0

     total cpu time spent up to now is       85.7 secs

     End of self-consistent calculation

     Number of k-points >= 100: set verbosity='high' to print the bands.

     the Fermi energy is     1.7854 ev

!    total energy              =     -95.10645787 Ry
     Harris-Foulkes estimate   =     -95.10645787 Ry
     estimated scf accuracy    <          4.0E-10 Ry

     The total energy is the sum of the following terms:

     one-electron contribution =     -87.21078938 Ry
     hartree contribution      =      44.04004872 Ry
     xc contribution           =     -14.27404902 Ry
     ewald contribution        =     -37.66162283 Ry
     smearing contrib. (-TS)   =      -0.00004537 Ry

     convergence has been achieved in   7 iterations

     Forces acting on atoms (cartesian axes, Ry/au):

     atom    1 type  1   force =     0.00000000    0.00000000    0.00000000

     Total force =     0.000000     Total SCF correction =     0.000000


     Computing stress (Cartesian axis) and pressure

          total   stress  (Ry/bohr**3)                   (kbar)     P=    0.49
   0.00000331   0.00000000   0.00000000          0.49      0.00      0.00
  -0.00000000   0.00000331  -0.00000000         -0.00      0.49     -0.00
   0.00000000  -0.00000000   0.00000331          0.00     -0.00      0.49


     bfgs converged in   2 scf cycles and   1 bfgs steps
     (criteria: energy <  1.0E-04 Ry, force <  1.0E-03Ry/Bohr, cell <  5.0E-01kbar)

     End of BFGS Geometry Optimization

     Final enthalpy =     -95.1064578740 Ry
Begin final coordinates
     new unit-cell volume =    239.70484 a.u.^3 (    35.52059 Ang^3 )
     density =      1.07475 g/cm^3

CELL_PARAMETERS (alat=  9.85935478)
  -0.500073423   0.000000000   0.500073423
  -0.000000000   0.500073423   0.500073423
  -0.500073423   0.500073423   0.000000000

ATOMIC_POSITIONS (crystal)
Na       0.000000000   0.000000000   0.000000000
End final coordinates



     A final scf calculation at the relaxed structure.
     The G-vectors are recalculated for the final unit cell
     Results may differ from those at the preceding step.

     Parallelization info
     --------------------
     sticks:   dense  smooth     PW     G-vecs:    dense   smooth      PW
     Min         267     133     46                 5821     2024     409
     Max         268     134     47                 5825     2025     411
     Sum        1069     535    187                23289     8099    1639



     bravais-lattice index     =            2
     lattice parameter (alat)  =       9.8594  a.u.
     unit-cell volume          =     239.7048 (a.u.)^3
     number of atoms/cell      =            1
     number of atomic types    =            1
     number of electrons       =         9.00
     number of Kohn-Sham states=            9
     kinetic-energy cutoff     =      40.0000  Ry
     charge density cutoff     =     320.0000  Ry
     convergence threshold     =      1.0E-08
     mixing beta               =       0.7000
     number of iterations used =            8  plain     mixing
     Exchange-correlation      = SLA  PW   PBE  PBE ( 1  4  3  4 0 0)

     celldm(1)=   9.859355  celldm(2)=   0.000000  celldm(3)=   0.000000
     celldm(4)=   0.000000  celldm(5)=   0.000000  celldm(6)=   0.000000

     crystal axes: (cart. coord. in units of alat)
               a(1) = (  -0.500073   0.000000   0.500073 )  
               a(2) = (  -0.000000   0.500073   0.500073 )  
               a(3) = (  -0.500073   0.500073   0.000000 )  

     reciprocal axes: (cart. coord. in units 2 pi/alat)
               b(1) = ( -0.999853 -0.999853  0.999853 )  
               b(2) = (  0.999853  0.999853  0.999853 )  
               b(3) = ( -0.999853  0.999853 -0.999853 )  


     PseudoPot. # 1 for Na read from file:
     /home/s1333534/quantum_espresso/qe-6.1/pseudo/Na_pbe_v1.uspp.F.UPF
     MD5 check sum: 76a99c7e9422403d3e93cbc85ab7bccb
     Pseudo is Ultrasoft, Zval =  9.0
     Generated by new atomic code, or converted to UPF format
     Using radial grid of  819 points,  5 beta functions with: 
                l(1) =   0
                l(2) =   0
                l(3) =   1
                l(4) =   1
                l(5) =   2
     Q(r) pseudized with  8 coefficients,  rinner =    1.250   1.250   1.250
                                                       1.250   1.250

     atomic species   valence    mass     pseudopotential
        Na             9.00    22.99000     Na( 1.00)

     48 Sym. Ops., with inversion, found



   Cartesian axes

     site n.     atom                  positions (alat units)
         1           Na  tau(   1) = (  -0.0000000   0.0000000   0.0000000  )

     number of k points=   770  Marzari-Vanderbilt smearing, width (Ry)=  0.0200

     Number of k-points >= 100: set verbosity='high' to print them.

     Dense  grid:    23289 G-vectors     FFT dimensions: (  40,  40,  40)

     Smooth grid:     8099 G-vectors     FFT dimensions: (  30,  30,  30)

     Estimated max dynamical RAM per process >      30.88MB

     Estimated total allocated dynamical RAM >     123.52MB

     Initial potential from superposition of free atoms

     starting charge    8.99371, renormalised to    9.00000
     Starting wfc are    5 randomized atomic wfcs +    4 random wfc

     Writing output data file na.fcc.save

     total cpu time spent up to now is       90.5 secs

     per-process dynamical memory:    47.9 Mb

     Self-consistent Calculation

     iteration #  1     ecut=    40.00 Ry     beta=0.70
     Davidson diagonalization with overlap
     c_bands:  1 eigenvalues not converged
     c_bands:  1 eigenvalues not converged
     c_bands:  1 eigenvalues not converged
     c_bands:  1 eigenvalues not converged
     c_bands:  1 eigenvalues not converged
     c_bands:  1 eigenvalues not converged
     c_bands:  1 eigenvalues not converged
     c_bands:  1 eigenvalues not converged
     c_bands:  1 eigenvalues not converged
     c_bands:  1 eigenvalues not converged
     c_bands:  1 eigenvalues not converged
     c_bands:  1 eigenvalues not converged
     c_bands:  1 eigenvalues not converged
     ethr =  1.00E-06,  avg # of iterations = 11.4

     total cpu time spent up to now is      106.3 secs

     total energy              =     -95.10634339 Ry
     Harris-Foulkes estimate   =     -95.10656507 Ry
     estimated scf accuracy    <       0.00089932 Ry

     iteration #  2     ecut=    40.00 Ry     beta=0.70
     Davidson diagonalization with overlap
     ethr =  9.99E-06,  avg # of iterations =  2.0

     total cpu time spent up to now is      111.7 secs

     total energy              =     -95.10644866 Ry
     Harris-Foulkes estimate   =     -95.10647197 Ry
     estimated scf accuracy    <       0.00010088 Ry

     iteration #  3     ecut=    40.00 Ry     beta=0.70
     Davidson diagonalization with overlap
     ethr =  1.12E-06,  avg # of iterations =  2.0

     total cpu time spent up to now is      117.3 secs

     total energy              =     -95.10645997 Ry
     Harris-Foulkes estimate   =     -95.10646118 Ry
     estimated scf accuracy    <       0.00000627 Ry

     iteration #  4     ecut=    40.00 Ry     beta=0.70
     Davidson diagonalization with overlap
     ethr =  6.97E-08,  avg # of iterations =  1.0

     total cpu time spent up to now is      122.2 secs

     End of self-consistent calculation

     Number of k-points >= 100: set verbosity='high' to print the bands.

     the Fermi energy is     1.7856 ev

!    total energy              =     -95.10646055 Ry
     Harris-Foulkes estimate   =     -95.10646050 Ry
     estimated scf accuracy    <          8.5E-09 Ry

     The total energy is the sum of the following terms:

     one-electron contribution =     -87.21060357 Ry
     hartree contribution      =      44.03982160 Ry
     xc contribution           =     -14.27401038 Ry
     ewald contribution        =     -37.66162283 Ry
     smearing contrib. (-TS)   =      -0.00004536 Ry

     convergence has been achieved in   4 iterations

     Forces acting on atoms (cartesian axes, Ry/au):

     atom    1 type  1   force =     0.00000000    0.00000000    0.00000000

     Total force =     0.000000     Total SCF correction =     0.000000


     Computing stress (Cartesian axis) and pressure

          total   stress  (Ry/bohr**3)                   (kbar)     P=    0.47
   0.00000319   0.00000000   0.00000000          0.47      0.00      0.00
   0.00000000   0.00000319  -0.00000000          0.00      0.47     -0.00
   0.00000000  -0.00000000   0.00000319          0.00     -0.00      0.47


     Writing output data file na.fcc.save

     init_run     :      4.42s CPU      4.62s WALL (       2 calls)
     electrons    :    107.02s CPU    112.16s WALL (       3 calls)
     update_pot   :      0.21s CPU      0.21s WALL (       1 calls)
     forces       :      0.76s CPU      0.77s WALL (       3 calls)
     stress       :      4.66s CPU      4.67s WALL (       3 calls)

     Called by init_run:
     wfcinit      :      3.63s CPU      3.82s WALL (       2 calls)
     potinit      :      0.10s CPU      0.10s WALL (       2 calls)

     Called by electrons:
     c_bands      :     89.77s CPU     94.17s WALL (      18 calls)
     sum_band     :     16.82s CPU     17.56s WALL (      18 calls)
     v_of_rho     :      0.21s CPU      0.22s WALL (      19 calls)
     newd         :      0.25s CPU      0.26s WALL (      19 calls)
     mix_rho      :      0.01s CPU      0.01s WALL (      18 calls)

     Called by c_bands:
     init_us_2    :      3.62s CPU      3.55s WALL (   33880 calls)
     cegterg      :     86.43s CPU     90.80s WALL (   13860 calls)

     Called by sum_band:
     sum_band:bec :      0.01s CPU      0.05s WALL (   13860 calls)
     addusdens    :      0.32s CPU      0.32s WALL (      18 calls)

     Called by *egterg:
     h_psi        :     75.96s CPU     79.94s WALL (   51182 calls)
     s_psi        :      0.88s CPU      0.73s WALL (   51182 calls)
     g_psi        :      0.45s CPU      0.44s WALL (   35782 calls)
     cdiaghg      :      7.07s CPU      7.30s WALL (   47332 calls)

     Called by h_psi:
     h_psi:pot    :     75.77s CPU     79.63s WALL (   51182 calls)
     h_psi:calbec :      1.55s CPU      1.18s WALL (   51182 calls)
     vloc_psi     :     73.66s CPU     77.52s WALL (   51182 calls)
     add_vuspsi   :      0.49s CPU      0.80s WALL (   51182 calls)

     General routines
     calbec       :      2.83s CPU      2.37s WALL (   76592 calls)
     fft          :      0.11s CPU      0.11s WALL (     325 calls)
     ffts         :      0.01s CPU      0.01s WALL (      37 calls)
     fftw         :     81.35s CPU     82.33s WALL (  808232 calls)
     interpolate  :      0.02s CPU      0.02s WALL (      37 calls)
     davcio       :      0.01s CPU      0.02s WALL (    1540 calls)

     Parallel routines
     fft_scatter  :     11.01s CPU     13.98s WALL (  808594 calls)

     PWSCF        :  1m59.18s CPU     2m 4.64s WALL


   This run was terminated on:  14:47:30  20Dec2017            

=------------------------------------------------------------------------------=
   JOB DONE.
=------------------------------------------------------------------------------=
