
     Program PWSCF v.6.1 (svn rev. 13369) starts on 20Dec2017 at 14:52:37 

     This program is part of the open-source Quantum ESPRESSO suite
     for quantum simulation of materials; please cite
         "P. Giannozzi et al., J. Phys.:Condens. Matter 21 395502 (2009);
          URL http://www.quantum-espresso.org", 
     in publications or presentations arising from this work. More details at
     http://www.quantum-espresso.org/quote

     Parallel version (MPI), running on     4 processors
     R & G space division:  proc/nbgrp/npool/nimage =       4
     Waiting for input...
     Reading input from standard input

     Current dimensions of program PWSCF are:
     Max number of different atomic species (ntypx) = 10
     Max number of k-points (npk) =  40000
     Max angular momentum in pseudopotentials (lmaxx) =  3

     Subspace diagonalization in iterative solution of the eigenvalue problem:
     a serial algorithm will be used


     Parallelization info
     --------------------
     sticks:   dense  smooth     PW     G-vecs:    dense   smooth      PW
     Min         214     108     37                 4215     1489     309
     Max         215     109     38                 4218     1491     312
     Sum         859     433    151                16865     5961    1243



     bravais-lattice index     =            2
     lattice parameter (alat)  =       8.8683  a.u.
     unit-cell volume          =     174.3635 (a.u.)^3
     number of atoms/cell      =            1
     number of atomic types    =            1
     number of electrons       =         9.00
     number of Kohn-Sham states=            9
     kinetic-energy cutoff     =      40.0000  Ry
     charge density cutoff     =     320.0000  Ry
     convergence threshold     =      1.0E-08
     mixing beta               =       0.7000
     number of iterations used =            8  plain     mixing
     Exchange-correlation      = SLA  PW   PBE  PBE ( 1  4  3  4 0 0)
     nstep                     =           50


     celldm(1)=   8.868262  celldm(2)=   0.000000  celldm(3)=   0.000000
     celldm(4)=   0.000000  celldm(5)=   0.000000  celldm(6)=   0.000000

     crystal axes: (cart. coord. in units of alat)
               a(1) = (  -0.500000   0.000000   0.500000 )  
               a(2) = (   0.000000   0.500000   0.500000 )  
               a(3) = (  -0.500000   0.500000   0.000000 )  

     reciprocal axes: (cart. coord. in units 2 pi/alat)
               b(1) = ( -1.000000 -1.000000  1.000000 )  
               b(2) = (  1.000000  1.000000  1.000000 )  
               b(3) = ( -1.000000  1.000000 -1.000000 )  


     PseudoPot. # 1 for Na read from file:
     /home/s1333534/quantum_espresso/qe-6.1/pseudo/Na_pbe_v1.uspp.F.UPF
     MD5 check sum: 76a99c7e9422403d3e93cbc85ab7bccb
     Pseudo is Ultrasoft, Zval =  9.0
     Generated by new atomic code, or converted to UPF format
     Using radial grid of  819 points,  5 beta functions with: 
                l(1) =   0
                l(2) =   0
                l(3) =   1
                l(4) =   1
                l(5) =   2
     Q(r) pseudized with  8 coefficients,  rinner =    1.250   1.250   1.250
                                                       1.250   1.250

     atomic species   valence    mass     pseudopotential
        Na             9.00    22.99000     Na( 1.00)

     48 Sym. Ops., with inversion, found



   Cartesian axes

     site n.     atom                  positions (alat units)
         1           Na  tau(   1) = (   0.0000000   0.0000000   0.0000000  )

     number of k points=   770  Marzari-Vanderbilt smearing, width (Ry)=  0.0200

     Number of k-points >= 100: set verbosity='high' to print them.

     Dense  grid:    16865 G-vectors     FFT dimensions: (  36,  36,  36)

     Smooth grid:     5961 G-vectors     FFT dimensions: (  25,  25,  25)

     Estimated max dynamical RAM per process >      22.45MB

     Estimated total allocated dynamical RAM >      89.78MB

     Initial potential from superposition of free atoms

     starting charge    8.99371, renormalised to    9.00000
     Starting wfc are    5 randomized atomic wfcs +    4 random wfc

     total cpu time spent up to now is        1.5 secs

     per-process dynamical memory:    31.9 Mb

     Self-consistent Calculation

     iteration #  1     ecut=    40.00 Ry     beta=0.70
     Davidson diagonalization with overlap
     ethr =  1.00E-02,  avg # of iterations =  5.3

     Threshold (ethr) on eigenvalues was too large:
     Diagonalizing with lowered threshold

     Davidson diagonalization with overlap
     ethr =  1.40E-05,  avg # of iterations =  3.3

     total cpu time spent up to now is       10.1 secs

     total energy              =     -95.09590455 Ry
     Harris-Foulkes estimate   =     -95.09634091 Ry
     estimated scf accuracy    <       0.00126172 Ry

     iteration #  2     ecut=    40.00 Ry     beta=0.70
     Davidson diagonalization with overlap
     ethr =  1.40E-05,  avg # of iterations =  2.0

     total cpu time spent up to now is       13.1 secs

     total energy              =     -95.09606591 Ry
     Harris-Foulkes estimate   =     -95.09610188 Ry
     estimated scf accuracy    <       0.00014132 Ry

     iteration #  3     ecut=    40.00 Ry     beta=0.70
     Davidson diagonalization with overlap
     ethr =  1.57E-06,  avg # of iterations =  2.1

     total cpu time spent up to now is       16.2 secs

     total energy              =     -95.09608355 Ry
     Harris-Foulkes estimate   =     -95.09608474 Ry
     estimated scf accuracy    <       0.00000822 Ry

     iteration #  4     ecut=    40.00 Ry     beta=0.70
     Davidson diagonalization with overlap
     ethr =  9.14E-08,  avg # of iterations =  1.0

     total cpu time spent up to now is       18.8 secs

     total energy              =     -95.09608431 Ry
     Harris-Foulkes estimate   =     -95.09608425 Ry
     estimated scf accuracy    <       0.00000001 Ry

     iteration #  5     ecut=    40.00 Ry     beta=0.70
     Davidson diagonalization with overlap
     ethr =  1.26E-10,  avg # of iterations =  3.0

     total cpu time spent up to now is       22.5 secs

     End of self-consistent calculation

     Number of k-points >= 100: set verbosity='high' to print the bands.

     the Fermi energy is     3.4405 ev

!    total energy              =     -95.09608435 Ry
     Harris-Foulkes estimate   =     -95.09608434 Ry
     estimated scf accuracy    <          1.8E-09 Ry

     The total energy is the sum of the following terms:

     one-electron contribution =     -79.85751429 Ry
     hartree contribution      =      40.95897855 Ry
     xc contribution           =     -14.32078129 Ry
     ewald contribution        =     -41.87673187 Ry
     smearing contrib. (-TS)   =      -0.00003545 Ry

     convergence has been achieved in   5 iterations

     Forces acting on atoms (cartesian axes, Ry/au):

     atom    1 type  1   force =     0.00000000    0.00000000    0.00000000

     Total force =     0.000000     Total SCF correction =     0.000000


     Computing stress (Cartesian axis) and pressure

          total   stress  (Ry/bohr**3)                   (kbar)     P=   50.49
   0.00034321   0.00000000   0.00000000         50.49      0.00      0.00
   0.00000000   0.00034321  -0.00000000          0.00     50.49     -0.00
   0.00000000  -0.00000000   0.00034321          0.00     -0.00     50.49


     BFGS Geometry Optimization

     bfgs converged in   1 scf cycles and   0 bfgs steps
     (criteria: energy <  1.0E-04 Ry, force <  1.0E-03Ry/Bohr, cell <  5.0E-01kbar)

     End of BFGS Geometry Optimization

     Final enthalpy =     -95.0368193954 Ry
Begin final coordinates
     new unit-cell volume =    174.36349 a.u.^3 (    25.83800 Ang^3 )
     density =      1.47751 g/cm^3

CELL_PARAMETERS (alat=  8.86826195)
  -0.500000000   0.000000000   0.500000000
   0.000000000   0.500000000   0.500000000
  -0.500000000   0.500000000   0.000000000

ATOMIC_POSITIONS (crystal)
Na       0.000000000   0.000000000   0.000000000
End final coordinates



     A final scf calculation at the relaxed structure.
     The G-vectors are recalculated for the final unit cell
     Results may differ from those at the preceding step.

     Parallelization info
     --------------------
     sticks:   dense  smooth     PW     G-vecs:    dense   smooth      PW
     Min         214     108     37                 4215     1489     309
     Max         215     109     38                 4218     1491     312
     Sum         859     433    151                16865     5961    1243



     bravais-lattice index     =            2
     lattice parameter (alat)  =       8.8683  a.u.
     unit-cell volume          =     174.3635 (a.u.)^3
     number of atoms/cell      =            1
     number of atomic types    =            1
     number of electrons       =         9.00
     number of Kohn-Sham states=            9
     kinetic-energy cutoff     =      40.0000  Ry
     charge density cutoff     =     320.0000  Ry
     convergence threshold     =      1.0E-08
     mixing beta               =       0.7000
     number of iterations used =            8  plain     mixing
     Exchange-correlation      = SLA  PW   PBE  PBE ( 1  4  3  4 0 0)

     celldm(1)=   8.868262  celldm(2)=   0.000000  celldm(3)=   0.000000
     celldm(4)=   0.000000  celldm(5)=   0.000000  celldm(6)=   0.000000

     crystal axes: (cart. coord. in units of alat)
               a(1) = (  -0.500000   0.000000   0.500000 )  
               a(2) = (   0.000000   0.500000   0.500000 )  
               a(3) = (  -0.500000   0.500000   0.000000 )  

     reciprocal axes: (cart. coord. in units 2 pi/alat)
               b(1) = ( -1.000000 -1.000000  1.000000 )  
               b(2) = (  1.000000  1.000000  1.000000 )  
               b(3) = ( -1.000000  1.000000 -1.000000 )  


     PseudoPot. # 1 for Na read from file:
     /home/s1333534/quantum_espresso/qe-6.1/pseudo/Na_pbe_v1.uspp.F.UPF
     MD5 check sum: 76a99c7e9422403d3e93cbc85ab7bccb
     Pseudo is Ultrasoft, Zval =  9.0
     Generated by new atomic code, or converted to UPF format
     Using radial grid of  819 points,  5 beta functions with: 
                l(1) =   0
                l(2) =   0
                l(3) =   1
                l(4) =   1
                l(5) =   2
     Q(r) pseudized with  8 coefficients,  rinner =    1.250   1.250   1.250
                                                       1.250   1.250

     atomic species   valence    mass     pseudopotential
        Na             9.00    22.99000     Na( 1.00)

     48 Sym. Ops., with inversion, found



   Cartesian axes

     site n.     atom                  positions (alat units)
         1           Na  tau(   1) = (   0.0000000   0.0000000   0.0000000  )

     number of k points=   770  Marzari-Vanderbilt smearing, width (Ry)=  0.0200

     Number of k-points >= 100: set verbosity='high' to print them.

     Dense  grid:    16865 G-vectors     FFT dimensions: (  36,  36,  36)

     Smooth grid:     5961 G-vectors     FFT dimensions: (  25,  25,  25)

     Estimated max dynamical RAM per process >      22.45MB

     Estimated total allocated dynamical RAM >      89.78MB

     Initial potential from superposition of free atoms

     starting charge    8.99371, renormalised to    9.00000
     Starting wfc are    5 randomized atomic wfcs +    4 random wfc

     Writing output data file na.fcc.save

     total cpu time spent up to now is       25.9 secs

     per-process dynamical memory:    39.0 Mb

     Self-consistent Calculation

     iteration #  1     ecut=    40.00 Ry     beta=0.70
     Davidson diagonalization with overlap
     c_bands:  1 eigenvalues not converged
     c_bands:  1 eigenvalues not converged
     ethr =  1.00E-06,  avg # of iterations = 10.5

     total cpu time spent up to now is       34.8 secs

     total energy              =     -95.09589870 Ry
     Harris-Foulkes estimate   =     -95.09634124 Ry
     estimated scf accuracy    <       0.00126772 Ry

     iteration #  2     ecut=    40.00 Ry     beta=0.70
     Davidson diagonalization with overlap
     ethr =  1.41E-05,  avg # of iterations =  2.0

     total cpu time spent up to now is       37.8 secs

     total energy              =     -95.09606618 Ry
     Harris-Foulkes estimate   =     -95.09610451 Ry
     estimated scf accuracy    <       0.00014568 Ry

     iteration #  3     ecut=    40.00 Ry     beta=0.70
     Davidson diagonalization with overlap
     ethr =  1.62E-06,  avg # of iterations =  2.0

     total cpu time spent up to now is       40.9 secs

     total energy              =     -95.09608355 Ry
     Harris-Foulkes estimate   =     -95.09608490 Ry
     estimated scf accuracy    <       0.00000862 Ry

     iteration #  4     ecut=    40.00 Ry     beta=0.70
     Davidson diagonalization with overlap
     ethr =  9.58E-08,  avg # of iterations =  1.0

     total cpu time spent up to now is       43.5 secs

     total energy              =     -95.09608432 Ry
     Harris-Foulkes estimate   =     -95.09608425 Ry
     estimated scf accuracy    <       0.00000001 Ry

     iteration #  5     ecut=    40.00 Ry     beta=0.70
     Davidson diagonalization with overlap
     ethr =  1.15E-10,  avg # of iterations =  3.0

     total cpu time spent up to now is       47.1 secs

     End of self-consistent calculation

     Number of k-points >= 100: set verbosity='high' to print the bands.

     the Fermi energy is     3.4405 ev

!    total energy              =     -95.09608435 Ry
     Harris-Foulkes estimate   =     -95.09608435 Ry
     estimated scf accuracy    <          1.4E-09 Ry

     The total energy is the sum of the following terms:

     one-electron contribution =     -79.85753674 Ry
     hartree contribution      =      40.95900624 Ry
     xc contribution           =     -14.32078653 Ry
     ewald contribution        =     -41.87673187 Ry
     smearing contrib. (-TS)   =      -0.00003545 Ry

     convergence has been achieved in   5 iterations

     Forces acting on atoms (cartesian axes, Ry/au):

     atom    1 type  1   force =     0.00000000    0.00000000    0.00000000

     Total force =     0.000000     Total SCF correction =     0.000000


     Computing stress (Cartesian axis) and pressure

          total   stress  (Ry/bohr**3)                   (kbar)     P=   50.54
   0.00034355   0.00000000   0.00000000         50.54      0.00      0.00
   0.00000000   0.00034355  -0.00000000          0.00     50.54     -0.00
   0.00000000  -0.00000000   0.00034355          0.00     -0.00     50.54


     Writing output data file na.fcc.save

     init_run     :      2.57s CPU      2.75s WALL (       2 calls)
     electrons    :     39.37s CPU     42.23s WALL (       2 calls)
     forces       :      0.37s CPU      0.38s WALL (       2 calls)
     stress       :      2.19s CPU      2.20s WALL (       2 calls)

     Called by init_run:
     wfcinit      :      1.91s CPU      2.07s WALL (       2 calls)
     potinit      :      0.07s CPU      0.07s WALL (       2 calls)

     Called by electrons:
     c_bands      :     33.90s CPU     36.36s WALL (      11 calls)
     sum_band     :      5.28s CPU      5.68s WALL (      11 calls)
     v_of_rho     :      0.09s CPU      0.10s WALL (      12 calls)
     newd         :      0.12s CPU      0.12s WALL (      12 calls)
     mix_rho      :      0.01s CPU      0.01s WALL (      11 calls)

     Called by c_bands:
     init_us_2    :      1.91s CPU      1.73s WALL (   21560 calls)
     cegterg      :     32.33s CPU     34.82s WALL (    8470 calls)

     Called by sum_band:
     sum_band:bec :      0.01s CPU      0.03s WALL (    8470 calls)
     addusdens    :      0.14s CPU      0.14s WALL (      11 calls)

     Called by *egterg:
     h_psi        :     25.26s CPU     27.19s WALL (   37155 calls)
     s_psi        :      0.44s CPU      0.40s WALL (   37155 calls)
     g_psi        :      0.18s CPU      0.24s WALL (   27145 calls)
     cdiaghg      :      5.40s CPU      5.57s WALL (   34845 calls)

     Called by h_psi:
     h_psi:pot    :     25.12s CPU     27.02s WALL (   37155 calls)
     h_psi:calbec :      0.64s CPU      0.65s WALL (   37155 calls)
     vloc_psi     :     24.08s CPU     25.83s WALL (   37155 calls)
     add_vuspsi   :      0.33s CPU      0.45s WALL (   37155 calls)

     General routines
     calbec       :      0.87s CPU      0.93s WALL (   53325 calls)
     fft          :      0.05s CPU      0.05s WALL (     204 calls)
     ffts         :      0.00s CPU      0.00s WALL (      23 calls)
     fftw         :     24.60s CPU     26.08s WALL (  541044 calls)
     interpolate  :      0.01s CPU      0.01s WALL (      23 calls)
     davcio       :      0.01s CPU      0.01s WALL (    1540 calls)

     Parallel routines
     fft_scatter  :      5.56s CPU      7.03s WALL (  541271 calls)

     PWSCF        :    45.91s CPU        49.02s WALL


   This run was terminated on:  14:53:26  20Dec2017            

=------------------------------------------------------------------------------=
   JOB DONE.
=------------------------------------------------------------------------------=
