
     Program PWSCF v.6.1 (svn rev. 13369) starts on 20Dec2017 at 14:47:31 

     This program is part of the open-source Quantum ESPRESSO suite
     for quantum simulation of materials; please cite
         "P. Giannozzi et al., J. Phys.:Condens. Matter 21 395502 (2009);
          URL http://www.quantum-espresso.org", 
     in publications or presentations arising from this work. More details at
     http://www.quantum-espresso.org/quote

     Parallel version (MPI), running on     4 processors
     R & G space division:  proc/nbgrp/npool/nimage =       4
     Waiting for input...
     Reading input from standard input

     Current dimensions of program PWSCF are:
     Max number of different atomic species (ntypx) = 10
     Max number of k-points (npk) =  40000
     Max angular momentum in pseudopotentials (lmaxx) =  3

     Subspace diagonalization in iterative solution of the eigenvalue problem:
     a serial algorithm will be used


     Parallelization info
     --------------------
     sticks:   dense  smooth     PW     G-vecs:    dense   smooth      PW
     Min         253     127     40                 5296     1895     362
     Max         254     130     41                 5298     1896     366
     Sum        1015     511    163                21187     7583    1459



     bravais-lattice index     =            2
     lattice parameter (alat)  =       9.5795  a.u.
     unit-cell volume          =     219.7728 (a.u.)^3
     number of atoms/cell      =            1
     number of atomic types    =            1
     number of electrons       =         9.00
     number of Kohn-Sham states=            9
     kinetic-energy cutoff     =      40.0000  Ry
     charge density cutoff     =     320.0000  Ry
     convergence threshold     =      1.0E-08
     mixing beta               =       0.7000
     number of iterations used =            8  plain     mixing
     Exchange-correlation      = SLA  PW   PBE  PBE ( 1  4  3  4 0 0)
     nstep                     =           50


     celldm(1)=   9.579539  celldm(2)=   0.000000  celldm(3)=   0.000000
     celldm(4)=   0.000000  celldm(5)=   0.000000  celldm(6)=   0.000000

     crystal axes: (cart. coord. in units of alat)
               a(1) = (  -0.500000   0.000000   0.500000 )  
               a(2) = (   0.000000   0.500000   0.500000 )  
               a(3) = (  -0.500000   0.500000   0.000000 )  

     reciprocal axes: (cart. coord. in units 2 pi/alat)
               b(1) = ( -1.000000 -1.000000  1.000000 )  
               b(2) = (  1.000000  1.000000  1.000000 )  
               b(3) = ( -1.000000  1.000000 -1.000000 )  


     PseudoPot. # 1 for Na read from file:
     /home/s1333534/quantum_espresso/qe-6.1/pseudo/Na_pbe_v1.uspp.F.UPF
     MD5 check sum: 76a99c7e9422403d3e93cbc85ab7bccb
     Pseudo is Ultrasoft, Zval =  9.0
     Generated by new atomic code, or converted to UPF format
     Using radial grid of  819 points,  5 beta functions with: 
                l(1) =   0
                l(2) =   0
                l(3) =   1
                l(4) =   1
                l(5) =   2
     Q(r) pseudized with  8 coefficients,  rinner =    1.250   1.250   1.250
                                                       1.250   1.250

     atomic species   valence    mass     pseudopotential
        Na             9.00    22.99000     Na( 1.00)

     48 Sym. Ops., with inversion, found



   Cartesian axes

     site n.     atom                  positions (alat units)
         1           Na  tau(   1) = (   0.0000000   0.0000000   0.0000000  )

     number of k points=   770  Marzari-Vanderbilt smearing, width (Ry)=  0.0200

     Number of k-points >= 100: set verbosity='high' to print them.

     Dense  grid:    21187 G-vectors     FFT dimensions: (  40,  40,  40)

     Smooth grid:     7583 G-vectors     FFT dimensions: (  27,  27,  27)

     Estimated max dynamical RAM per process >      28.31MB

     Estimated total allocated dynamical RAM >     113.26MB

     Initial potential from superposition of free atoms

     starting charge    8.99371, renormalised to    9.00000
     Starting wfc are    5 randomized atomic wfcs +    4 random wfc

     total cpu time spent up to now is        2.0 secs

     per-process dynamical memory:    37.3 Mb

     Self-consistent Calculation

     iteration #  1     ecut=    40.00 Ry     beta=0.70
     Davidson diagonalization with overlap
     ethr =  1.00E-02,  avg # of iterations =  5.4

     Threshold (ethr) on eigenvalues was too large:
     Diagonalizing with lowered threshold

     Davidson diagonalization with overlap
     ethr =  1.06E-05,  avg # of iterations =  3.8

     total cpu time spent up to now is       15.0 secs

     total energy              =     -95.10527564 Ry
     Harris-Foulkes estimate   =     -95.10556467 Ry
     estimated scf accuracy    <       0.00094907 Ry

     iteration #  2     ecut=    40.00 Ry     beta=0.70
     Davidson diagonalization with overlap
     ethr =  1.05E-05,  avg # of iterations =  2.0

     total cpu time spent up to now is       19.4 secs

     total energy              =     -95.10538611 Ry
     Harris-Foulkes estimate   =     -95.10541240 Ry
     estimated scf accuracy    <       0.00010465 Ry

     iteration #  3     ecut=    40.00 Ry     beta=0.70
     Davidson diagonalization with overlap
     ethr =  1.16E-06,  avg # of iterations =  2.1

     total cpu time spent up to now is       24.0 secs

     total energy              =     -95.10539839 Ry
     Harris-Foulkes estimate   =     -95.10539965 Ry
     estimated scf accuracy    <       0.00000627 Ry

     iteration #  4     ecut=    40.00 Ry     beta=0.70
     Davidson diagonalization with overlap
     ethr =  6.97E-08,  avg # of iterations =  1.0

     total cpu time spent up to now is       27.9 secs

     End of self-consistent calculation

     Number of k-points >= 100: set verbosity='high' to print the bands.

     the Fermi energy is     2.1818 ev

!    total energy              =     -95.10539897 Ry
     Harris-Foulkes estimate   =     -95.10539892 Ry
     estimated scf accuracy    <          9.2E-09 Ry

     The total energy is the sum of the following terms:

     one-electron contribution =     -85.27386369 Ry
     hartree contribution      =      43.22170909 Ry
     xc contribution           =     -14.28580153 Ry
     ewald contribution        =     -38.76740067 Ry
     smearing contrib. (-TS)   =      -0.00004217 Ry

     convergence has been achieved in   4 iterations

     Forces acting on atoms (cartesian axes, Ry/au):

     atom    1 type  1   force =     0.00000000    0.00000000    0.00000000

     Total force =     0.000000     Total SCF correction =     0.000000


     Computing stress (Cartesian axis) and pressure

          total   stress  (Ry/bohr**3)                   (kbar)     P=    9.39
   0.00006386   0.00000000   0.00000000          9.39      0.00      0.00
   0.00000000   0.00006386  -0.00000000          0.00      9.39     -0.00
   0.00000000  -0.00000000   0.00006386          0.00     -0.00      9.39


     BFGS Geometry Optimization

     number of scf cycles    =   1
     number of bfgs steps    =   0

     enthalpy new            =     -95.0904591205 Ry

     new trust radius        =       0.0003050283 bohr
     new conv_thr            =       0.0000000100 Ry

     new unit-cell volume =    219.70493 a.u.^3 (    32.55691 Ang^3 )
     density =      1.17259 g/cm^3

CELL_PARAMETERS (alat=  9.57953904)
  -0.499948561  -0.000000000   0.499948561
   0.000000000   0.499948561   0.499948561
  -0.499948561   0.499948561  -0.000000000

ATOMIC_POSITIONS (crystal)
Na       0.000000000   0.000000000   0.000000000



     Writing output data file na.fcc.save
     NEW-OLD atomic charge density approx. for the potential
     extrapolated charge    8.99722, renormalised to    9.00000

     total cpu time spent up to now is       30.5 secs

     per-process dynamical memory:    47.6 Mb

     Self-consistent Calculation

     iteration #  1     ecut=    40.00 Ry     beta=0.70
     Davidson diagonalization with overlap
     ethr =  1.00E-06,  avg # of iterations =  2.0

     Threshold (ethr) on eigenvalues was too large:
     Diagonalizing with lowered threshold

     Davidson diagonalization with overlap
     ethr =  3.22E-08,  avg # of iterations =  1.0

     total cpu time spent up to now is       39.2 secs

     total energy              =     -95.10538950 Ry
     Harris-Foulkes estimate   =     -95.12633289 Ry
     estimated scf accuracy    <       0.00000290 Ry

     iteration #  2     ecut=    40.00 Ry     beta=0.70
     Davidson diagonalization with overlap
     ethr =  3.22E-08,  avg # of iterations =  2.9

     total cpu time spent up to now is       44.4 secs

     total energy              =     -95.10539468 Ry
     Harris-Foulkes estimate   =     -95.10539678 Ry
     estimated scf accuracy    <       0.00000475 Ry

     iteration #  3     ecut=    40.00 Ry     beta=0.70
     Davidson diagonalization with overlap
     ethr =  3.22E-08,  avg # of iterations =  1.5

     total cpu time spent up to now is       48.5 secs

     total energy              =     -95.10539463 Ry
     Harris-Foulkes estimate   =     -95.10539499 Ry
     estimated scf accuracy    <       0.00000092 Ry

     iteration #  4     ecut=    40.00 Ry     beta=0.70
     Davidson diagonalization with overlap
     ethr =  1.02E-08,  avg # of iterations =  1.0

     total cpu time spent up to now is       52.4 secs

     total energy              =     -95.10539466 Ry
     Harris-Foulkes estimate   =     -95.10539469 Ry
     estimated scf accuracy    <       0.00000021 Ry

     iteration #  5     ecut=    40.00 Ry     beta=0.70
     Davidson diagonalization with overlap
     ethr =  2.33E-09,  avg # of iterations =  1.0

     total cpu time spent up to now is       56.3 secs

     total energy              =     -95.10539465 Ry
     Harris-Foulkes estimate   =     -95.10539466 Ry
     estimated scf accuracy    <       0.00000014 Ry

     iteration #  6     ecut=    40.00 Ry     beta=0.70
     Davidson diagonalization with overlap
     ethr =  1.60E-09,  avg # of iterations =  1.0

     total cpu time spent up to now is       60.2 secs

     total energy              =     -95.10539466 Ry
     Harris-Foulkes estimate   =     -95.10539465 Ry
     estimated scf accuracy    <       0.00000013 Ry

     iteration #  7     ecut=    40.00 Ry     beta=0.70
     Davidson diagonalization with overlap
     ethr =  1.39E-09,  avg # of iterations =  1.0

     total cpu time spent up to now is       64.1 secs

     total energy              =     -95.10539456 Ry
     Harris-Foulkes estimate   =     -95.10539466 Ry
     estimated scf accuracy    <       0.00000014 Ry

     iteration #  8     ecut=    40.00 Ry     beta=0.70
     Davidson diagonalization with overlap
     ethr =  1.39E-09,  avg # of iterations =  2.0

     total cpu time spent up to now is       68.8 secs

     End of self-consistent calculation

     Number of k-points >= 100: set verbosity='high' to print the bands.

     the Fermi energy is     2.1830 ev

!    total energy              =     -95.10539460 Ry
     Harris-Foulkes estimate   =     -95.10539460 Ry
     estimated scf accuracy    <          9.2E-09 Ry

     The total energy is the sum of the following terms:

     one-electron contribution =     -85.26740359 Ry
     hartree contribution      =      43.21940098 Ry
     xc contribution           =     -14.28596044 Ry
     ewald contribution        =     -38.77138940 Ry
     smearing contrib. (-TS)   =      -0.00004216 Ry

     convergence has been achieved in   8 iterations

     Forces acting on atoms (cartesian axes, Ry/au):

     atom    1 type  1   force =     0.00000000    0.00000000    0.00000000

     Total force =     0.000000     Total SCF correction =     0.000000


     Computing stress (Cartesian axis) and pressure

          total   stress  (Ry/bohr**3)                   (kbar)     P=   10.09
   0.00006858   0.00000000   0.00000000         10.09      0.00      0.00
   0.00000000   0.00006858  -0.00000000          0.00     10.09     -0.00
   0.00000000  -0.00000000   0.00006858          0.00     -0.00     10.09


     bfgs converged in   2 scf cycles and   1 bfgs steps
     (criteria: energy <  1.0E-04 Ry, force <  1.0E-03Ry/Bohr, cell <  5.0E-01kbar)

     End of BFGS Geometry Optimization

     Final enthalpy =     -95.0904593554 Ry
Begin final coordinates
     new unit-cell volume =    219.70493 a.u.^3 (    32.55691 Ang^3 )
     density =      1.17259 g/cm^3

CELL_PARAMETERS (alat=  9.57953904)
  -0.499948561  -0.000000000   0.499948561
   0.000000000   0.499948561   0.499948561
  -0.499948561   0.499948561  -0.000000000

ATOMIC_POSITIONS (crystal)
Na       0.000000000   0.000000000   0.000000000
End final coordinates



     A final scf calculation at the relaxed structure.
     The G-vectors are recalculated for the final unit cell
     Results may differ from those at the preceding step.

     Parallelization info
     --------------------
     sticks:   dense  smooth     PW     G-vecs:    dense   smooth      PW
     Min         253     127     40                 5296     1895     362
     Max         254     130     41                 5298     1896     366
     Sum        1015     511    163                21187     7583    1459



     bravais-lattice index     =            2
     lattice parameter (alat)  =       9.5795  a.u.
     unit-cell volume          =     219.7049 (a.u.)^3
     number of atoms/cell      =            1
     number of atomic types    =            1
     number of electrons       =         9.00
     number of Kohn-Sham states=            9
     kinetic-energy cutoff     =      40.0000  Ry
     charge density cutoff     =     320.0000  Ry
     convergence threshold     =      1.0E-08
     mixing beta               =       0.7000
     number of iterations used =            8  plain     mixing
     Exchange-correlation      = SLA  PW   PBE  PBE ( 1  4  3  4 0 0)

     celldm(1)=   9.579539  celldm(2)=   0.000000  celldm(3)=   0.000000
     celldm(4)=   0.000000  celldm(5)=   0.000000  celldm(6)=   0.000000

     crystal axes: (cart. coord. in units of alat)
               a(1) = (  -0.499949  -0.000000   0.499949 )  
               a(2) = (   0.000000   0.499949   0.499949 )  
               a(3) = (  -0.499949   0.499949  -0.000000 )  

     reciprocal axes: (cart. coord. in units 2 pi/alat)
               b(1) = ( -1.000103 -1.000103  1.000103 )  
               b(2) = (  1.000103  1.000103  1.000103 )  
               b(3) = ( -1.000103  1.000103 -1.000103 )  


     PseudoPot. # 1 for Na read from file:
     /home/s1333534/quantum_espresso/qe-6.1/pseudo/Na_pbe_v1.uspp.F.UPF
     MD5 check sum: 76a99c7e9422403d3e93cbc85ab7bccb
     Pseudo is Ultrasoft, Zval =  9.0
     Generated by new atomic code, or converted to UPF format
     Using radial grid of  819 points,  5 beta functions with: 
                l(1) =   0
                l(2) =   0
                l(3) =   1
                l(4) =   1
                l(5) =   2
     Q(r) pseudized with  8 coefficients,  rinner =    1.250   1.250   1.250
                                                       1.250   1.250

     atomic species   valence    mass     pseudopotential
        Na             9.00    22.99000     Na( 1.00)

     48 Sym. Ops., with inversion, found



   Cartesian axes

     site n.     atom                  positions (alat units)
         1           Na  tau(   1) = (   0.0000000   0.0000000   0.0000000  )

     number of k points=   770  Marzari-Vanderbilt smearing, width (Ry)=  0.0200

     Number of k-points >= 100: set verbosity='high' to print them.

     Dense  grid:    21187 G-vectors     FFT dimensions: (  40,  40,  40)

     Smooth grid:     7583 G-vectors     FFT dimensions: (  27,  27,  27)

     Estimated max dynamical RAM per process >      28.31MB

     Estimated total allocated dynamical RAM >     113.26MB

     Initial potential from superposition of free atoms

     starting charge    8.99371, renormalised to    9.00000
     Starting wfc are    5 randomized atomic wfcs +    4 random wfc

     Writing output data file na.fcc.save

     total cpu time spent up to now is       73.1 secs

     per-process dynamical memory:    45.1 Mb

     Self-consistent Calculation

     iteration #  1     ecut=    40.00 Ry     beta=0.70
     Davidson diagonalization with overlap
     c_bands:  1 eigenvalues not converged
     c_bands:  1 eigenvalues not converged
     c_bands:  1 eigenvalues not converged
     c_bands:  1 eigenvalues not converged
     c_bands:  1 eigenvalues not converged
     c_bands:  1 eigenvalues not converged
     c_bands:  1 eigenvalues not converged
     c_bands:  1 eigenvalues not converged
     c_bands:  1 eigenvalues not converged
     c_bands:  1 eigenvalues not converged
     ethr =  1.00E-06,  avg # of iterations = 11.0

     total cpu time spent up to now is       86.0 secs

     total energy              =     -95.10526541 Ry
     Harris-Foulkes estimate   =     -95.10555845 Ry
     estimated scf accuracy    <       0.00095330 Ry

     iteration #  2     ecut=    40.00 Ry     beta=0.70
     Davidson diagonalization with overlap
     ethr =  1.06E-05,  avg # of iterations =  2.0

     total cpu time spent up to now is       90.5 secs

     total energy              =     -95.10538028 Ry
     Harris-Foulkes estimate   =     -95.10540822 Ry
     estimated scf accuracy    <       0.00010774 Ry

     iteration #  3     ecut=    40.00 Ry     beta=0.70
     Davidson diagonalization with overlap
     ethr =  1.20E-06,  avg # of iterations =  2.0

     total cpu time spent up to now is       95.1 secs

     total energy              =     -95.10539219 Ry
     Harris-Foulkes estimate   =     -95.10539363 Ry
     estimated scf accuracy    <       0.00000664 Ry

     iteration #  4     ecut=    40.00 Ry     beta=0.70
     Davidson diagonalization with overlap
     ethr =  7.37E-08,  avg # of iterations =  1.0

     total cpu time spent up to now is       99.0 secs

     End of self-consistent calculation

     Number of k-points >= 100: set verbosity='high' to print the bands.

     the Fermi energy is     2.1832 ev

!    total energy              =     -95.10539279 Ry
     Harris-Foulkes estimate   =     -95.10539274 Ry
     estimated scf accuracy    <          7.7E-09 Ry

     The total energy is the sum of the following terms:

     one-electron contribution =     -85.26686178 Ry
     hartree contribution      =      43.21873954 Ry
     xc contribution           =     -14.28583900 Ry
     ewald contribution        =     -38.77138940 Ry
     smearing contrib. (-TS)   =      -0.00004216 Ry

     convergence has been achieved in   4 iterations

     Forces acting on atoms (cartesian axes, Ry/au):

     atom    1 type  1   force =     0.00000000    0.00000000    0.00000000

     Total force =     0.000000     Total SCF correction =     0.000000


     Computing stress (Cartesian axis) and pressure

          total   stress  (Ry/bohr**3)                   (kbar)     P=    9.38
   0.00006379   0.00000000   0.00000000          9.38      0.00      0.00
   0.00000000   0.00006379  -0.00000000          0.00      9.38     -0.00
   0.00000000  -0.00000000   0.00006379          0.00     -0.00      9.38


     Writing output data file na.fcc.save

     init_run     :      3.71s CPU      3.88s WALL (       2 calls)
     electrons    :     85.68s CPU     90.06s WALL (       3 calls)
     update_pot   :      0.19s CPU      0.20s WALL (       1 calls)
     forces       :      0.71s CPU      0.71s WALL (       3 calls)
     stress       :      4.16s CPU      4.18s WALL (       3 calls)

     Called by init_run:
     wfcinit      :      2.96s CPU      3.12s WALL (       2 calls)
     potinit      :      0.09s CPU      0.09s WALL (       2 calls)

     Called by electrons:
     c_bands      :     71.81s CPU     75.55s WALL (      18 calls)
     sum_band     :     13.45s CPU     14.07s WALL (      18 calls)
     v_of_rho     :      0.21s CPU      0.22s WALL (      19 calls)
     newd         :      0.24s CPU      0.25s WALL (      19 calls)
     mix_rho      :      0.01s CPU      0.01s WALL (      18 calls)

     Called by c_bands:
     init_us_2    :      3.43s CPU      3.34s WALL (   33880 calls)
     cegterg      :     68.69s CPU     72.43s WALL (   13860 calls)

     Called by sum_band:
     sum_band:bec :      0.04s CPU      0.04s WALL (   13860 calls)
     addusdens    :      0.30s CPU      0.30s WALL (      18 calls)

     Called by *egterg:
     h_psi        :     58.80s CPU     62.06s WALL (   49084 calls)
     s_psi        :      0.85s CPU      0.67s WALL (   49084 calls)
     g_psi        :      0.44s CPU      0.39s WALL (   33684 calls)
     cdiaghg      :      6.57s CPU      6.79s WALL (   45234 calls)

     Called by h_psi:
     h_psi:pot    :     58.62s CPU     61.79s WALL (   49084 calls)
     h_psi:calbec :      1.38s CPU      1.06s WALL (   49084 calls)
     vloc_psi     :     56.70s CPU     59.86s WALL (   49084 calls)
     add_vuspsi   :      0.47s CPU      0.74s WALL (   49084 calls)

     General routines
     calbec       :      1.86s CPU      1.63s WALL (   74494 calls)
     fft          :      0.11s CPU      0.11s WALL (     325 calls)
     ffts         :      0.01s CPU      0.01s WALL (      37 calls)
     fftw         :     63.09s CPU     63.39s WALL (  793098 calls)
     interpolate  :      0.02s CPU      0.02s WALL (      37 calls)
     davcio       :      0.00s CPU      0.02s WALL (    1540 calls)

     Parallel routines
     fft_scatter  :      9.95s CPU     12.06s WALL (  793460 calls)

     PWSCF        :  1m36.56s CPU     1m41.23s WALL


   This run was terminated on:  14:49:12  20Dec2017            

=------------------------------------------------------------------------------=
   JOB DONE.
=------------------------------------------------------------------------------=
