
     Program PWSCF v.6.1 (svn rev. 13369) starts on 20Dec2017 at 14:49:12 

     This program is part of the open-source Quantum ESPRESSO suite
     for quantum simulation of materials; please cite
         "P. Giannozzi et al., J. Phys.:Condens. Matter 21 395502 (2009);
          URL http://www.quantum-espresso.org", 
     in publications or presentations arising from this work. More details at
     http://www.quantum-espresso.org/quote

     Parallel version (MPI), running on     4 processors
     R & G space division:  proc/nbgrp/npool/nimage =       4
     Waiting for input...
     Reading input from standard input

     Current dimensions of program PWSCF are:
     Max number of different atomic species (ntypx) = 10
     Max number of k-points (npk) =  40000
     Max angular momentum in pseudopotentials (lmaxx) =  3

     Subspace diagonalization in iterative solution of the eigenvalue problem:
     a serial algorithm will be used


     Parallelization info
     --------------------
     sticks:   dense  smooth     PW     G-vecs:    dense   smooth      PW
     Min         238     118     40                 4945     1718     351
     Max         239     119     41                 4950     1721     354
     Sum         955     475    163                19795     6879    1411



     bravais-lattice index     =            2
     lattice parameter (alat)  =       9.3481  a.u.
     unit-cell volume          =     204.2253 (a.u.)^3
     number of atoms/cell      =            1
     number of atomic types    =            1
     number of electrons       =         9.00
     number of Kohn-Sham states=            9
     kinetic-energy cutoff     =      40.0000  Ry
     charge density cutoff     =     320.0000  Ry
     convergence threshold     =      1.0E-08
     mixing beta               =       0.7000
     number of iterations used =            8  plain     mixing
     Exchange-correlation      = SLA  PW   PBE  PBE ( 1  4  3  4 0 0)
     nstep                     =           50


     celldm(1)=   9.348096  celldm(2)=   0.000000  celldm(3)=   0.000000
     celldm(4)=   0.000000  celldm(5)=   0.000000  celldm(6)=   0.000000

     crystal axes: (cart. coord. in units of alat)
               a(1) = (  -0.500000   0.000000   0.500000 )  
               a(2) = (   0.000000   0.500000   0.500000 )  
               a(3) = (  -0.500000   0.500000   0.000000 )  

     reciprocal axes: (cart. coord. in units 2 pi/alat)
               b(1) = ( -1.000000 -1.000000  1.000000 )  
               b(2) = (  1.000000  1.000000  1.000000 )  
               b(3) = ( -1.000000  1.000000 -1.000000 )  


     PseudoPot. # 1 for Na read from file:
     /home/s1333534/quantum_espresso/qe-6.1/pseudo/Na_pbe_v1.uspp.F.UPF
     MD5 check sum: 76a99c7e9422403d3e93cbc85ab7bccb
     Pseudo is Ultrasoft, Zval =  9.0
     Generated by new atomic code, or converted to UPF format
     Using radial grid of  819 points,  5 beta functions with: 
                l(1) =   0
                l(2) =   0
                l(3) =   1
                l(4) =   1
                l(5) =   2
     Q(r) pseudized with  8 coefficients,  rinner =    1.250   1.250   1.250
                                                       1.250   1.250

     atomic species   valence    mass     pseudopotential
        Na             9.00    22.99000     Na( 1.00)

     48 Sym. Ops., with inversion, found



   Cartesian axes

     site n.     atom                  positions (alat units)
         1           Na  tau(   1) = (   0.0000000   0.0000000   0.0000000  )

     number of k points=   770  Marzari-Vanderbilt smearing, width (Ry)=  0.0200

     Number of k-points >= 100: set verbosity='high' to print them.

     Dense  grid:    19795 G-vectors     FFT dimensions: (  40,  40,  40)

     Smooth grid:     6879 G-vectors     FFT dimensions: (  27,  27,  27)

     Estimated max dynamical RAM per process >      26.46MB

     Estimated total allocated dynamical RAM >     105.85MB

     Initial potential from superposition of free atoms

     starting charge    8.99371, renormalised to    9.00000
     Starting wfc are    5 randomized atomic wfcs +    4 random wfc

     total cpu time spent up to now is        2.0 secs

     per-process dynamical memory:    34.5 Mb

     Self-consistent Calculation

     iteration #  1     ecut=    40.00 Ry     beta=0.70
     Davidson diagonalization with overlap
     ethr =  1.00E-02,  avg # of iterations =  5.3

     Threshold (ethr) on eigenvalues was too large:
     Diagonalizing with lowered threshold

     Davidson diagonalization with overlap
     ethr =  1.13E-05,  avg # of iterations =  3.7

     total cpu time spent up to now is       14.6 secs

     total energy              =     -95.10341898 Ry
     Harris-Foulkes estimate   =     -95.10374420 Ry
     estimated scf accuracy    <       0.00101920 Ry

     iteration #  2     ecut=    40.00 Ry     beta=0.70
     Davidson diagonalization with overlap
     ethr =  1.13E-05,  avg # of iterations =  2.0

     total cpu time spent up to now is       18.9 secs

     total energy              =     -95.10354243 Ry
     Harris-Foulkes estimate   =     -95.10357114 Ry
     estimated scf accuracy    <       0.00011325 Ry

     iteration #  3     ecut=    40.00 Ry     beta=0.70
     Davidson diagonalization with overlap
     ethr =  1.26E-06,  avg # of iterations =  2.1

     total cpu time spent up to now is       23.4 secs

     total energy              =     -95.10355588 Ry
     Harris-Foulkes estimate   =     -95.10355713 Ry
     estimated scf accuracy    <       0.00000673 Ry

     iteration #  4     ecut=    40.00 Ry     beta=0.70
     Davidson diagonalization with overlap
     ethr =  7.48E-08,  avg # of iterations =  1.0

     total cpu time spent up to now is       27.3 secs

     End of self-consistent calculation

     Number of k-points >= 100: set verbosity='high' to print the bands.

     the Fermi energy is     2.5469 ev

!    total energy              =     -95.10355650 Ry
     Harris-Foulkes estimate   =     -95.10355644 Ry
     estimated scf accuracy    <          9.2E-09 Ry

     The total energy is the sum of the following terms:

     one-electron contribution =     -83.59723242 Ry
     hartree contribution      =      42.51722991 Ry
     xc contribution           =     -14.29629907 Ry
     ewald contribution        =     -39.72721519 Ry
     smearing contrib. (-TS)   =      -0.00003974 Ry

     convergence has been achieved in   4 iterations

     Forces acting on atoms (cartesian axes, Ry/au):

     atom    1 type  1   force =     0.00000000    0.00000000    0.00000000

     Total force =     0.000000     Total SCF correction =     0.000000


     Computing stress (Cartesian axis) and pressure

          total   stress  (Ry/bohr**3)                   (kbar)     P=   19.25
   0.00013088   0.00000000   0.00000000         19.25      0.00      0.00
   0.00000000   0.00013088  -0.00000000          0.00     19.25     -0.00
   0.00000000  -0.00000000   0.00013088          0.00     -0.00     19.25


     BFGS Geometry Optimization

     number of scf cycles    =   1
     number of bfgs steps    =   0

     enthalpy new            =     -95.0757905905 Ry

     new trust radius        =       0.0003627707 bohr
     new conv_thr            =       0.0000000100 Ry

     new unit-cell volume =    204.14754 a.u.^3 (    30.25154 Ang^3 )
     density =      1.26195 g/cm^3

CELL_PARAMETERS (alat=  9.34809617)
  -0.499936537  -0.000000000   0.499936537
   0.000000000   0.499936537   0.499936537
  -0.499936537   0.499936537  -0.000000000

ATOMIC_POSITIONS (crystal)
Na       0.000000000   0.000000000   0.000000000



     Writing output data file na.fcc.save
     NEW-OLD atomic charge density approx. for the potential
     extrapolated charge    8.99657, renormalised to    9.00000

     total cpu time spent up to now is       29.8 secs

     per-process dynamical memory:    44.1 Mb

     Self-consistent Calculation

     iteration #  1     ecut=    40.00 Ry     beta=0.70
     Davidson diagonalization with overlap
     ethr =  1.00E-06,  avg # of iterations =  2.1

     Threshold (ethr) on eigenvalues was too large:
     Diagonalizing with lowered threshold

     Davidson diagonalization with overlap
     ethr =  4.82E-08,  avg # of iterations =  1.0

     total cpu time spent up to now is       38.4 secs

     total energy              =     -95.10353860 Ry
     Harris-Foulkes estimate   =     -95.12883759 Ry
     estimated scf accuracy    <       0.00000434 Ry

     iteration #  2     ecut=    40.00 Ry     beta=0.70
     Davidson diagonalization with overlap
     ethr =  4.82E-08,  avg # of iterations =  2.9

     total cpu time spent up to now is       43.6 secs

     total energy              =     -95.10354640 Ry
     Harris-Foulkes estimate   =     -95.10354955 Ry
     estimated scf accuracy    <       0.00000717 Ry

     iteration #  3     ecut=    40.00 Ry     beta=0.70
     Davidson diagonalization with overlap
     ethr =  4.82E-08,  avg # of iterations =  1.5

     total cpu time spent up to now is       47.6 secs

     total energy              =     -95.10354634 Ry
     Harris-Foulkes estimate   =     -95.10354687 Ry
     estimated scf accuracy    <       0.00000139 Ry

     iteration #  4     ecut=    40.00 Ry     beta=0.70
     Davidson diagonalization with overlap
     ethr =  1.54E-08,  avg # of iterations =  1.0

     total cpu time spent up to now is       51.5 secs

     total energy              =     -95.10354636 Ry
     Harris-Foulkes estimate   =     -95.10354643 Ry
     estimated scf accuracy    <       0.00000036 Ry

     iteration #  5     ecut=    40.00 Ry     beta=0.70
     Davidson diagonalization with overlap
     ethr =  3.96E-09,  avg # of iterations =  1.0

     total cpu time spent up to now is       55.3 secs

     total energy              =     -95.10354634 Ry
     Harris-Foulkes estimate   =     -95.10354636 Ry
     estimated scf accuracy    <       0.00000022 Ry

     iteration #  6     ecut=    40.00 Ry     beta=0.70
     Davidson diagonalization with overlap
     ethr =  2.40E-09,  avg # of iterations =  1.0

     total cpu time spent up to now is       59.2 secs

     total energy              =     -95.10354627 Ry
     Harris-Foulkes estimate   =     -95.10354635 Ry
     estimated scf accuracy    <       0.00000017 Ry

     iteration #  7     ecut=    40.00 Ry     beta=0.70
     Davidson diagonalization with overlap
     ethr =  1.92E-09,  avg # of iterations =  1.0

     total cpu time spent up to now is       63.0 secs

     total energy              =     -95.10354626 Ry
     Harris-Foulkes estimate   =     -95.10354628 Ry
     estimated scf accuracy    <       0.00000003 Ry

     iteration #  8     ecut=    40.00 Ry     beta=0.70
     Davidson diagonalization with overlap
     ethr =  3.09E-10,  avg # of iterations =  2.0

     total cpu time spent up to now is       67.6 secs

     End of self-consistent calculation

     Number of k-points >= 100: set verbosity='high' to print the bands.

     the Fermi energy is     2.5486 ev

!    total energy              =     -95.10354627 Ry
     Harris-Foulkes estimate   =     -95.10354627 Ry
     estimated scf accuracy    <          2.8E-09 Ry

     The total energy is the sum of the following terms:

     one-electron contribution =     -83.58881974 Ry
     hartree contribution      =      42.51401188 Ry
     xc contribution           =     -14.29644046 Ry
     ewald contribution        =     -39.73225821 Ry
     smearing contrib. (-TS)   =      -0.00003973 Ry

     convergence has been achieved in   8 iterations

     Forces acting on atoms (cartesian axes, Ry/au):

     atom    1 type  1   force =     0.00000000    0.00000000    0.00000000

     Total force =     0.000000     Total SCF correction =     0.000000


     Computing stress (Cartesian axis) and pressure

          total   stress  (Ry/bohr**3)                   (kbar)     P=   19.84
   0.00013486  -0.00000000  -0.00000000         19.84     -0.00     -0.00
  -0.00000000   0.00013486   0.00000000         -0.00     19.84      0.00
  -0.00000000   0.00000000   0.00013486         -0.00      0.00     19.84


     bfgs converged in   2 scf cycles and   1 bfgs steps
     (criteria: energy <  1.0E-04 Ry, force <  1.0E-03Ry/Bohr, cell <  5.0E-01kbar)

     End of BFGS Geometry Optimization

     Final enthalpy =     -95.0757909260 Ry
Begin final coordinates
     new unit-cell volume =    204.14754 a.u.^3 (    30.25154 Ang^3 )
     density =      1.26195 g/cm^3

CELL_PARAMETERS (alat=  9.34809617)
  -0.499936537  -0.000000000   0.499936537
   0.000000000   0.499936537   0.499936537
  -0.499936537   0.499936537  -0.000000000

ATOMIC_POSITIONS (crystal)
Na       0.000000000   0.000000000   0.000000000
End final coordinates



     A final scf calculation at the relaxed structure.
     The G-vectors are recalculated for the final unit cell
     Results may differ from those at the preceding step.

     Parallelization info
     --------------------
     sticks:   dense  smooth     PW     G-vecs:    dense   smooth      PW
     Min         238     118     40                 4945     1718     351
     Max         239     119     41                 4950     1721     354
     Sum         955     475    163                19795     6879    1411



     bravais-lattice index     =            2
     lattice parameter (alat)  =       9.3481  a.u.
     unit-cell volume          =     204.1475 (a.u.)^3
     number of atoms/cell      =            1
     number of atomic types    =            1
     number of electrons       =         9.00
     number of Kohn-Sham states=            9
     kinetic-energy cutoff     =      40.0000  Ry
     charge density cutoff     =     320.0000  Ry
     convergence threshold     =      1.0E-08
     mixing beta               =       0.7000
     number of iterations used =            8  plain     mixing
     Exchange-correlation      = SLA  PW   PBE  PBE ( 1  4  3  4 0 0)

     celldm(1)=   9.348096  celldm(2)=   0.000000  celldm(3)=   0.000000
     celldm(4)=   0.000000  celldm(5)=   0.000000  celldm(6)=   0.000000

     crystal axes: (cart. coord. in units of alat)
               a(1) = (  -0.499937  -0.000000   0.499937 )  
               a(2) = (   0.000000   0.499937   0.499937 )  
               a(3) = (  -0.499937   0.499937  -0.000000 )  

     reciprocal axes: (cart. coord. in units 2 pi/alat)
               b(1) = ( -1.000127 -1.000127  1.000127 )  
               b(2) = (  1.000127  1.000127  1.000127 )  
               b(3) = ( -1.000127  1.000127 -1.000127 )  


     PseudoPot. # 1 for Na read from file:
     /home/s1333534/quantum_espresso/qe-6.1/pseudo/Na_pbe_v1.uspp.F.UPF
     MD5 check sum: 76a99c7e9422403d3e93cbc85ab7bccb
     Pseudo is Ultrasoft, Zval =  9.0
     Generated by new atomic code, or converted to UPF format
     Using radial grid of  819 points,  5 beta functions with: 
                l(1) =   0
                l(2) =   0
                l(3) =   1
                l(4) =   1
                l(5) =   2
     Q(r) pseudized with  8 coefficients,  rinner =    1.250   1.250   1.250
                                                       1.250   1.250

     atomic species   valence    mass     pseudopotential
        Na             9.00    22.99000     Na( 1.00)

     48 Sym. Ops., with inversion, found



   Cartesian axes

     site n.     atom                  positions (alat units)
         1           Na  tau(   1) = (   0.0000000   0.0000000   0.0000000  )

     number of k points=   770  Marzari-Vanderbilt smearing, width (Ry)=  0.0200

     Number of k-points >= 100: set verbosity='high' to print them.

     Dense  grid:    19795 G-vectors     FFT dimensions: (  40,  40,  40)

     Smooth grid:     6879 G-vectors     FFT dimensions: (  27,  27,  27)

     Estimated max dynamical RAM per process >      26.46MB

     Estimated total allocated dynamical RAM >     105.85MB

     Initial potential from superposition of free atoms

     starting charge    8.99371, renormalised to    9.00000
     Starting wfc are    5 randomized atomic wfcs +    4 random wfc

     Writing output data file na.fcc.save

     total cpu time spent up to now is       71.8 secs

     per-process dynamical memory:    42.1 Mb

     Self-consistent Calculation

     iteration #  1     ecut=    40.00 Ry     beta=0.70
     Davidson diagonalization with overlap
     c_bands:  1 eigenvalues not converged
     c_bands:  1 eigenvalues not converged
     c_bands:  1 eigenvalues not converged
     c_bands:  1 eigenvalues not converged
     c_bands:  1 eigenvalues not converged
     c_bands:  1 eigenvalues not converged
     c_bands:  1 eigenvalues not converged
     c_bands:  1 eigenvalues not converged
     c_bands:  1 eigenvalues not converged
     c_bands:  1 eigenvalues not converged
     ethr =  1.00E-06,  avg # of iterations = 10.8

     total cpu time spent up to now is       84.4 secs

     total energy              =     -95.10340273 Ry
     Harris-Foulkes estimate   =     -95.10373210 Ry
     estimated scf accuracy    <       0.00102376 Ry

     iteration #  2     ecut=    40.00 Ry     beta=0.70
     Davidson diagonalization with overlap
     ethr =  1.14E-05,  avg # of iterations =  2.0

     total cpu time spent up to now is       88.8 secs

     total energy              =     -95.10353078 Ry
     Harris-Foulkes estimate   =     -95.10356117 Ry
     estimated scf accuracy    <       0.00011644 Ry

     iteration #  3     ecut=    40.00 Ry     beta=0.70
     Davidson diagonalization with overlap
     ethr =  1.29E-06,  avg # of iterations =  2.0

     total cpu time spent up to now is       93.4 secs

     total energy              =     -95.10354387 Ry
     Harris-Foulkes estimate   =     -95.10354528 Ry
     estimated scf accuracy    <       0.00000709 Ry

     iteration #  4     ecut=    40.00 Ry     beta=0.70
     Davidson diagonalization with overlap
     ethr =  7.87E-08,  avg # of iterations =  1.0

     total cpu time spent up to now is       97.3 secs

     End of self-consistent calculation

     Number of k-points >= 100: set verbosity='high' to print the bands.

     the Fermi energy is     2.5489 ev

!    total energy              =     -95.10354450 Ry
     Harris-Foulkes estimate   =     -95.10354445 Ry
     estimated scf accuracy    <          8.0E-09 Ry

     The total energy is the sum of the following terms:

     one-electron contribution =     -83.58840101 Ry
     hartree contribution      =      42.51350169 Ry
     xc contribution           =     -14.29634725 Ry
     ewald contribution        =     -39.73225821 Ry
     smearing contrib. (-TS)   =      -0.00003973 Ry

     convergence has been achieved in   4 iterations

     Forces acting on atoms (cartesian axes, Ry/au):

     atom    1 type  1   force =     0.00000000    0.00000000    0.00000000

     Total force =     0.000000     Total SCF correction =     0.000000


     Computing stress (Cartesian axis) and pressure

          total   stress  (Ry/bohr**3)                   (kbar)     P=   19.24
   0.00013081   0.00000000   0.00000000         19.24      0.00      0.00
   0.00000000   0.00013081  -0.00000000          0.00     19.24     -0.00
   0.00000000  -0.00000000   0.00013081          0.00     -0.00     19.24


     Writing output data file na.fcc.save

     init_run     :      3.65s CPU      3.82s WALL (       2 calls)
     electrons    :     84.26s CPU     88.65s WALL (       3 calls)
     update_pot   :      0.18s CPU      0.19s WALL (       1 calls)
     forces       :      0.66s CPU      0.67s WALL (       3 calls)
     stress       :      3.87s CPU      3.89s WALL (       3 calls)

     Called by init_run:
     wfcinit      :      2.91s CPU      3.07s WALL (       2 calls)
     potinit      :      0.09s CPU      0.09s WALL (       2 calls)

     Called by electrons:
     c_bands      :     70.71s CPU     74.43s WALL (      18 calls)
     sum_band     :     13.15s CPU     13.81s WALL (      18 calls)
     v_of_rho     :      0.22s CPU      0.22s WALL (      19 calls)
     newd         :      0.22s CPU      0.23s WALL (      19 calls)
     mix_rho      :      0.01s CPU      0.01s WALL (      18 calls)

     Called by c_bands:
     init_us_2    :      3.18s CPU      3.01s WALL (   33880 calls)
     cegterg      :     67.80s CPU     71.54s WALL (   13860 calls)

     Called by sum_band:
     sum_band:bec :      0.03s CPU      0.04s WALL (   13860 calls)
     addusdens    :      0.27s CPU      0.28s WALL (      18 calls)

     Called by *egterg:
     h_psi        :     58.47s CPU     61.68s WALL (   48823 calls)
     s_psi        :      0.71s CPU      0.60s WALL (   48823 calls)
     g_psi        :      0.38s CPU      0.36s WALL (   33423 calls)
     cdiaghg      :      6.56s CPU      6.79s WALL (   44973 calls)

     Called by h_psi:
     h_psi:pot    :     58.32s CPU     61.42s WALL (   48823 calls)
     h_psi:calbec :      1.28s CPU      1.02s WALL (   48823 calls)
     vloc_psi     :     56.50s CPU     59.62s WALL (   48823 calls)
     add_vuspsi   :      0.45s CPU      0.66s WALL (   48823 calls)

     General routines
     calbec       :      1.79s CPU      1.64s WALL (   74233 calls)
     fft          :      0.11s CPU      0.12s WALL (     325 calls)
     ffts         :      0.01s CPU      0.01s WALL (      37 calls)
     fftw         :     62.96s CPU     63.13s WALL (  792554 calls)
     interpolate  :      0.02s CPU      0.02s WALL (      37 calls)
     davcio       :      0.01s CPU      0.02s WALL (    1540 calls)

     Parallel routines
     fft_scatter  :      9.72s CPU     11.65s WALL (  792916 calls)

     PWSCF        :  1m34.74s CPU     1m39.42s WALL


   This run was terminated on:  14:50:52  20Dec2017            

=------------------------------------------------------------------------------=
   JOB DONE.
=------------------------------------------------------------------------------=
