
     Program PWSCF v.6.1 (svn rev. 13369) starts on 20Dec2017 at 17:37: 0 

     This program is part of the open-source Quantum ESPRESSO suite
     for quantum simulation of materials; please cite
         "P. Giannozzi et al., J. Phys.:Condens. Matter 21 395502 (2009);
          URL http://www.quantum-espresso.org", 
     in publications or presentations arising from this work. More details at
     http://www.quantum-espresso.org/quote

     Parallel version (MPI), running on     4 processors
     R & G space division:  proc/nbgrp/npool/nimage =       4
     Waiting for input...
     Reading input from standard input

     Current dimensions of program PWSCF are:
     Max number of different atomic species (ntypx) = 10
     Max number of k-points (npk) =  40000
     Max angular momentum in pseudopotentials (lmaxx) =  3

     Subspace diagonalization in iterative solution of the eigenvalue problem:
     a serial algorithm will be used


     Parallelization info
     --------------------
     sticks:   dense  smooth     PW     G-vecs:    dense   smooth      PW
     Min         245     121     39                 4869     1740     312
     Max         246     122     40                 4870     1742     314
     Sum         981     487    159                19477     6963    1253



     bravais-lattice index     =            3
     lattice parameter (alat)  =       7.4115  a.u.
     unit-cell volume          =     203.5619 (a.u.)^3
     number of atoms/cell      =            1
     number of atomic types    =            1
     number of electrons       =         9.00
     number of Kohn-Sham states=            9
     kinetic-energy cutoff     =      40.0000  Ry
     charge density cutoff     =     320.0000  Ry
     convergence threshold     =      1.0E-08
     mixing beta               =       0.7000
     number of iterations used =            8  plain     mixing
     Exchange-correlation      = SLA  PW   PBE  PBE ( 1  4  3  4 0 0)
     nstep                     =           50


     celldm(1)=   7.411547  celldm(2)=   0.000000  celldm(3)=   0.000000
     celldm(4)=   0.000000  celldm(5)=   0.000000  celldm(6)=   0.000000

     crystal axes: (cart. coord. in units of alat)
               a(1) = (   0.500000   0.500000   0.500000 )  
               a(2) = (  -0.500000   0.500000   0.500000 )  
               a(3) = (  -0.500000  -0.500000   0.500000 )  

     reciprocal axes: (cart. coord. in units 2 pi/alat)
               b(1) = (  1.000000  0.000000  1.000000 )  
               b(2) = ( -1.000000  1.000000  0.000000 )  
               b(3) = (  0.000000 -1.000000  1.000000 )  


     PseudoPot. # 1 for Na read from file:
     /home/s1333534/quantum_espresso/qe-6.1/pseudo/Na_pbe_v1.uspp.F.UPF
     MD5 check sum: 76a99c7e9422403d3e93cbc85ab7bccb
     Pseudo is Ultrasoft, Zval =  9.0
     Generated by new atomic code, or converted to UPF format
     Using radial grid of  819 points,  5 beta functions with: 
                l(1) =   0
                l(2) =   0
                l(3) =   1
                l(4) =   1
                l(5) =   2
     Q(r) pseudized with  8 coefficients,  rinner =    1.250   1.250   1.250
                                                       1.250   1.250

     atomic species   valence    mass     pseudopotential
        Na             9.00    22.99000     Na( 1.00)

     48 Sym. Ops., with inversion, found



   Cartesian axes

     site n.     atom                  positions (alat units)
         1           Na  tau(   1) = (   0.0000000   0.0000000   0.0000000  )

     number of k points=   250  Marzari-Vanderbilt smearing, width (Ry)=  0.0200

     Number of k-points >= 100: set verbosity='high' to print them.

     Dense  grid:    19477 G-vectors     FFT dimensions: (  40,  40,  40)

     Smooth grid:     6963 G-vectors     FFT dimensions: (  25,  25,  25)

     Estimated max dynamical RAM per process >      10.83MB

     Estimated total allocated dynamical RAM >      43.31MB

     Initial potential from superposition of free atoms

     starting charge    8.99371, renormalised to    9.00000
     Starting wfc are    5 randomized atomic wfcs +    4 random wfc

     total cpu time spent up to now is        0.8 secs

     per-process dynamical memory:    17.0 Mb

     Self-consistent Calculation

     iteration #  1     ecut=    40.00 Ry     beta=0.70
     Davidson diagonalization with overlap
     ethr =  1.00E-02,  avg # of iterations =  5.6

     Threshold (ethr) on eigenvalues was too large:
     Diagonalizing with lowered threshold

     Davidson diagonalization with overlap
     ethr =  1.13E-05,  avg # of iterations =  4.0

     total cpu time spent up to now is        3.9 secs

     total energy              =     -95.10331375 Ry
     Harris-Foulkes estimate   =     -95.10364823 Ry
     estimated scf accuracy    <       0.00101415 Ry

     iteration #  2     ecut=    40.00 Ry     beta=0.70
     Davidson diagonalization with overlap
     ethr =  1.13E-05,  avg # of iterations =  2.0

     total cpu time spent up to now is        5.0 secs

     total energy              =     -95.10343961 Ry
     Harris-Foulkes estimate   =     -95.10346845 Ry
     estimated scf accuracy    <       0.00011399 Ry

     iteration #  3     ecut=    40.00 Ry     beta=0.70
     Davidson diagonalization with overlap
     ethr =  1.27E-06,  avg # of iterations =  2.1

     total cpu time spent up to now is        6.1 secs

     total energy              =     -95.10345257 Ry
     Harris-Foulkes estimate   =     -95.10345385 Ry
     estimated scf accuracy    <       0.00000693 Ry

     iteration #  4     ecut=    40.00 Ry     beta=0.70
     Davidson diagonalization with overlap
     ethr =  7.70E-08,  avg # of iterations =  1.0

     total cpu time spent up to now is        7.0 secs

     End of self-consistent calculation

     Number of k-points >= 100: set verbosity='high' to print the bands.

     the Fermi energy is     2.5662 ev

!    total energy              =     -95.10345320 Ry
     Harris-Foulkes estimate   =     -95.10345314 Ry
     estimated scf accuracy    <          9.4E-09 Ry

     The total energy is the sum of the following terms:

     one-electron contribution =     -83.51521424 Ry
     hartree contribution      =      42.48137286 Ry
     xc contribution           =     -14.29671835 Ry
     ewald contribution        =     -39.77279143 Ry
     smearing contrib. (-TS)   =      -0.00010203 Ry

     convergence has been achieved in   4 iterations

     Forces acting on atoms (cartesian axes, Ry/au):

     atom    1 type  1   force =     0.00000000    0.00000000    0.00000000

     Total force =     0.000000     Total SCF correction =     0.000000


     Computing stress (Cartesian axis) and pressure

          total   stress  (Ry/bohr**3)                   (kbar)     P=   19.48
   0.00013245  -0.00000000   0.00000000         19.48     -0.00      0.00
  -0.00000000   0.00013245  -0.00000000         -0.00     19.48     -0.00
   0.00000000  -0.00000000   0.00013245          0.00     -0.00     19.48


     BFGS Geometry Optimization

     number of scf cycles    =   1
     number of bfgs steps    =   0

     enthalpy new            =     -95.0757774729 Ry

     new trust radius        =       0.0002504117 bohr
     new conv_thr            =       0.0000000100 Ry

     new unit-cell volume =    203.50836 a.u.^3 (    30.15683 Ang^3 )
     density =      1.26591 g/cm^3

CELL_PARAMETERS (alat=  7.41154691)
   0.499956122   0.499956122   0.499956122
  -0.499956122   0.499956122   0.499956122
  -0.499956122  -0.499956122   0.499956122

ATOMIC_POSITIONS (crystal)
Na       0.000000000   0.000000000   0.000000000



     Writing output data file na.bcc.save
     NEW-OLD atomic charge density approx. for the potential
     extrapolated charge    8.99763, renormalised to    9.00000

     total cpu time spent up to now is        8.2 secs

     per-process dynamical memory:    26.6 Mb

     Self-consistent Calculation

     iteration #  1     ecut=    40.00 Ry     beta=0.70
     Davidson diagonalization with overlap
     ethr =  1.00E-06,  avg # of iterations =  2.1

     Threshold (ethr) on eigenvalues was too large:
     Diagonalizing with lowered threshold

     Davidson diagonalization with overlap
     ethr =  2.33E-08,  avg # of iterations =  1.0

     total cpu time spent up to now is       10.2 secs

     total energy              =     -95.10344236 Ry
     Harris-Foulkes estimate   =     -95.12091299 Ry
     estimated scf accuracy    <       0.00000210 Ry

     iteration #  2     ecut=    40.00 Ry     beta=0.70
     Davidson diagonalization with overlap
     ethr =  2.33E-08,  avg # of iterations =  2.9

     total cpu time spent up to now is       11.5 secs

     total energy              =     -95.10344611 Ry
     Harris-Foulkes estimate   =     -95.10344762 Ry
     estimated scf accuracy    <       0.00000343 Ry

     iteration #  3     ecut=    40.00 Ry     beta=0.70
     Davidson diagonalization with overlap
     ethr =  2.33E-08,  avg # of iterations =  1.5

     total cpu time spent up to now is       12.5 secs

     total energy              =     -95.10344607 Ry
     Harris-Foulkes estimate   =     -95.10344633 Ry
     estimated scf accuracy    <       0.00000066 Ry

     iteration #  4     ecut=    40.00 Ry     beta=0.70
     Davidson diagonalization with overlap
     ethr =  7.34E-09,  avg # of iterations =  1.0

     total cpu time spent up to now is       13.4 secs

     total energy              =     -95.10344611 Ry
     Harris-Foulkes estimate   =     -95.10344611 Ry
     estimated scf accuracy    <       0.00000015 Ry

     iteration #  5     ecut=    40.00 Ry     beta=0.70
     Davidson diagonalization with overlap
     ethr =  1.68E-09,  avg # of iterations =  1.0

     total cpu time spent up to now is       14.3 secs

     total energy              =     -95.10344613 Ry
     Harris-Foulkes estimate   =     -95.10344611 Ry
     estimated scf accuracy    <       0.00000014 Ry

     iteration #  6     ecut=    40.00 Ry     beta=0.70
     Davidson diagonalization with overlap
     ethr =  1.61E-09,  avg # of iterations =  1.0

     total cpu time spent up to now is       15.2 secs

     total energy              =     -95.10344612 Ry
     Harris-Foulkes estimate   =     -95.10344613 Ry
     estimated scf accuracy    <       0.00000019 Ry

     iteration #  7     ecut=    40.00 Ry     beta=0.70
     Davidson diagonalization with overlap
     ethr =  1.61E-09,  avg # of iterations =  1.0

     total cpu time spent up to now is       16.2 secs

     total energy              =     -95.10344611 Ry
     Harris-Foulkes estimate   =     -95.10344612 Ry
     estimated scf accuracy    <       0.00000017 Ry

     iteration #  8     ecut=    40.00 Ry     beta=0.70
     Davidson diagonalization with overlap
     ethr =  1.61E-09,  avg # of iterations =  1.0

     total cpu time spent up to now is       17.1 secs

     total energy              =     -95.10344645 Ry
     Harris-Foulkes estimate   =     -95.10344611 Ry
     estimated scf accuracy    <       0.00000015 Ry

     iteration #  9     ecut=    40.00 Ry     beta=0.70
     Davidson diagonalization with overlap
     ethr =  1.61E-09,  avg # of iterations =  2.0

     total cpu time spent up to now is       18.2 secs

     total energy              =     -95.10344639 Ry
     Harris-Foulkes estimate   =     -95.10344652 Ry
     estimated scf accuracy    <       0.00000117 Ry

     iteration # 10     ecut=    40.00 Ry     beta=0.70
     Davidson diagonalization with overlap
     ethr =  1.61E-09,  avg # of iterations =  1.0

     total cpu time spent up to now is       19.2 secs

     total energy              =     -95.10344636 Ry
     Harris-Foulkes estimate   =     -95.10344640 Ry
     estimated scf accuracy    <       0.00000087 Ry

     iteration # 11     ecut=    40.00 Ry     beta=0.70
     Davidson diagonalization with overlap
     ethr =  1.61E-09,  avg # of iterations =  1.0

     total cpu time spent up to now is       20.1 secs

     total energy              =     -95.10344657 Ry
     Harris-Foulkes estimate   =     -95.10344637 Ry
     estimated scf accuracy    <       0.00000079 Ry

     iteration # 12     ecut=    40.00 Ry     beta=0.70
     Davidson diagonalization with overlap
     ethr =  1.61E-09,  avg # of iterations =  1.0

     total cpu time spent up to now is       21.0 secs

     total energy              =     -95.10344585 Ry
     Harris-Foulkes estimate   =     -95.10344658 Ry
     estimated scf accuracy    <       0.00000134 Ry

     iteration # 13     ecut=    40.00 Ry     beta=0.70
     Davidson diagonalization with overlap
     ethr =  1.61E-09,  avg # of iterations =  2.0

     total cpu time spent up to now is       22.1 secs

     End of self-consistent calculation

     Number of k-points >= 100: set verbosity='high' to print the bands.

     the Fermi energy is     2.5673 ev

!    total energy              =     -95.10344605 Ry
     Harris-Foulkes estimate   =     -95.10344605 Ry
     estimated scf accuracy    <          5.9E-10 Ry

     The total energy is the sum of the following terms:

     one-electron contribution =     -83.50927148 Ry
     hartree contribution      =      42.47899830 Ry
     xc contribution           =     -14.29678878 Ry
     ewald contribution        =     -39.77628203 Ry
     smearing contrib. (-TS)   =      -0.00010204 Ry

     convergence has been achieved in  13 iterations

     Forces acting on atoms (cartesian axes, Ry/au):

     atom    1 type  1   force =     0.00000000    0.00000000    0.00000000

     Total force =     0.000000     Total SCF correction =     0.000000


     Computing stress (Cartesian axis) and pressure

          total   stress  (Ry/bohr**3)                   (kbar)     P=   19.67
   0.00013371   0.00000000  -0.00000000         19.67      0.00     -0.00
   0.00000000   0.00013371   0.00000000          0.00     19.67      0.00
  -0.00000000   0.00000000   0.00013371         -0.00      0.00     19.67


     bfgs converged in   2 scf cycles and   1 bfgs steps
     (criteria: energy <  1.0E-04 Ry, force <  1.0E-03Ry/Bohr, cell <  5.0E-01kbar)

     End of BFGS Geometry Optimization

     Final enthalpy =     -95.0757776071 Ry
Begin final coordinates
     new unit-cell volume =    203.50836 a.u.^3 (    30.15683 Ang^3 )
     density =      1.26591 g/cm^3

CELL_PARAMETERS (alat=  7.41154691)
   0.499956122   0.499956122   0.499956122
  -0.499956122   0.499956122   0.499956122
  -0.499956122  -0.499956122   0.499956122

ATOMIC_POSITIONS (crystal)
Na       0.000000000   0.000000000   0.000000000
End final coordinates



     A final scf calculation at the relaxed structure.
     The G-vectors are recalculated for the final unit cell
     Results may differ from those at the preceding step.

     Parallelization info
     --------------------
     sticks:   dense  smooth     PW     G-vecs:    dense   smooth      PW
     Min         245     121     39                 4869     1740     312
     Max         246     122     40                 4870     1742     314
     Sum         981     487    159                19477     6963    1253



     bravais-lattice index     =            3
     lattice parameter (alat)  =       7.4115  a.u.
     unit-cell volume          =     203.5084 (a.u.)^3
     number of atoms/cell      =            1
     number of atomic types    =            1
     number of electrons       =         9.00
     number of Kohn-Sham states=            9
     kinetic-energy cutoff     =      40.0000  Ry
     charge density cutoff     =     320.0000  Ry
     convergence threshold     =      1.0E-08
     mixing beta               =       0.7000
     number of iterations used =            8  plain     mixing
     Exchange-correlation      = SLA  PW   PBE  PBE ( 1  4  3  4 0 0)

     celldm(1)=   7.411547  celldm(2)=   0.000000  celldm(3)=   0.000000
     celldm(4)=   0.000000  celldm(5)=   0.000000  celldm(6)=   0.000000

     crystal axes: (cart. coord. in units of alat)
               a(1) = (   0.499956   0.499956   0.499956 )  
               a(2) = (  -0.499956   0.499956   0.499956 )  
               a(3) = (  -0.499956  -0.499956   0.499956 )  

     reciprocal axes: (cart. coord. in units 2 pi/alat)
               b(1) = (  1.000088  0.000000  1.000088 )  
               b(2) = ( -1.000088  1.000088  0.000000 )  
               b(3) = (  0.000000 -1.000088  1.000088 )  


     PseudoPot. # 1 for Na read from file:
     /home/s1333534/quantum_espresso/qe-6.1/pseudo/Na_pbe_v1.uspp.F.UPF
     MD5 check sum: 76a99c7e9422403d3e93cbc85ab7bccb
     Pseudo is Ultrasoft, Zval =  9.0
     Generated by new atomic code, or converted to UPF format
     Using radial grid of  819 points,  5 beta functions with: 
                l(1) =   0
                l(2) =   0
                l(3) =   1
                l(4) =   1
                l(5) =   2
     Q(r) pseudized with  8 coefficients,  rinner =    1.250   1.250   1.250
                                                       1.250   1.250

     atomic species   valence    mass     pseudopotential
        Na             9.00    22.99000     Na( 1.00)

     48 Sym. Ops., with inversion, found



   Cartesian axes

     site n.     atom                  positions (alat units)
         1           Na  tau(   1) = (   0.0000000   0.0000000   0.0000000  )

     number of k points=   250  Marzari-Vanderbilt smearing, width (Ry)=  0.0200

     Number of k-points >= 100: set verbosity='high' to print them.

     Dense  grid:    19477 G-vectors     FFT dimensions: (  40,  40,  40)

     Smooth grid:     6963 G-vectors     FFT dimensions: (  25,  25,  25)

     Estimated max dynamical RAM per process >      10.83MB

     Estimated total allocated dynamical RAM >      43.31MB

     Initial potential from superposition of free atoms

     starting charge    8.99371, renormalised to    9.00000
     Starting wfc are    5 randomized atomic wfcs +    4 random wfc

     Writing output data file na.bcc.save

     total cpu time spent up to now is       23.8 secs

     per-process dynamical memory:    24.1 Mb

     Self-consistent Calculation

     iteration #  1     ecut=    40.00 Ry     beta=0.70
     Davidson diagonalization with overlap
     c_bands:  1 eigenvalues not converged
     c_bands:  1 eigenvalues not converged
     ethr =  1.00E-06,  avg # of iterations = 11.4

     total cpu time spent up to now is       27.0 secs

     total energy              =     -95.10330052 Ry
     Harris-Foulkes estimate   =     -95.10363915 Ry
     estimated scf accuracy    <       0.00101838 Ry

     iteration #  2     ecut=    40.00 Ry     beta=0.70
     Davidson diagonalization with overlap
     ethr =  1.13E-05,  avg # of iterations =  2.0

     total cpu time spent up to now is       28.1 secs

     total energy              =     -95.10343035 Ry
     Harris-Foulkes estimate   =     -95.10346085 Ry
     estimated scf accuracy    <       0.00011703 Ry

     iteration #  3     ecut=    40.00 Ry     beta=0.70
     Davidson diagonalization with overlap
     ethr =  1.30E-06,  avg # of iterations =  2.0

     total cpu time spent up to now is       29.2 secs

     total energy              =     -95.10344338 Ry
     Harris-Foulkes estimate   =     -95.10344477 Ry
     estimated scf accuracy    <       0.00000722 Ry

     iteration #  4     ecut=    40.00 Ry     beta=0.70
     Davidson diagonalization with overlap
     ethr =  8.02E-08,  avg # of iterations =  1.0

     total cpu time spent up to now is       30.1 secs

     End of self-consistent calculation

     Number of k-points >= 100: set verbosity='high' to print the bands.

     the Fermi energy is     2.5675 ev

!    total energy              =     -95.10344401 Ry
     Harris-Foulkes estimate   =     -95.10344396 Ry
     estimated scf accuracy    <          9.1E-09 Ry

     The total energy is the sum of the following terms:

     one-electron contribution =     -83.50910371 Ry
     hartree contribution      =      42.47879524 Ry
     xc contribution           =     -14.29675147 Ry
     ewald contribution        =     -39.77628203 Ry
     smearing contrib. (-TS)   =      -0.00010204 Ry

     convergence has been achieved in   4 iterations

     Forces acting on atoms (cartesian axes, Ry/au):

     atom    1 type  1   force =     0.00000000    0.00000000    0.00000000

     Total force =     0.000000     Total SCF correction =     0.000000


     Computing stress (Cartesian axis) and pressure

          total   stress  (Ry/bohr**3)                   (kbar)     P=   19.49
   0.00013250  -0.00000000   0.00000000         19.49     -0.00      0.00
  -0.00000000   0.00013250  -0.00000000         -0.00     19.49     -0.00
   0.00000000  -0.00000000   0.00013250          0.00     -0.00     19.49


     Writing output data file na.bcc.save

     init_run     :      1.30s CPU      1.35s WALL (       2 calls)
     electrons    :     24.85s CPU     26.53s WALL (       3 calls)
     update_pot   :      0.18s CPU      0.19s WALL (       1 calls)
     forces       :      0.33s CPU      0.33s WALL (       3 calls)
     stress       :      1.69s CPU      1.69s WALL (       3 calls)

     Called by init_run:
     wfcinit      :      0.67s CPU      0.72s WALL (       2 calls)
     potinit      :      0.09s CPU      0.09s WALL (       2 calls)

     Called by electrons:
     c_bands      :     20.14s CPU     21.53s WALL (      23 calls)
     sum_band     :      4.18s CPU      4.45s WALL (      23 calls)
     v_of_rho     :      0.28s CPU      0.28s WALL (      24 calls)
     newd         :      0.29s CPU      0.29s WALL (      24 calls)
     mix_rho      :      0.02s CPU      0.02s WALL (      23 calls)

     Called by c_bands:
     init_us_2    :      1.36s CPU      1.27s WALL (   13500 calls)
     cegterg      :     18.89s CPU     20.29s WALL (    5750 calls)

     Called by sum_band:
     sum_band:bec :      0.01s CPU      0.02s WALL (    5750 calls)
     addusdens    :      0.35s CPU      0.35s WALL (      23 calls)

     Called by *egterg:
     h_psi        :     14.97s CPU     16.06s WALL (   18906 calls)
     s_psi        :      0.24s CPU      0.24s WALL (   18906 calls)
     g_psi        :      0.13s CPU      0.14s WALL (   12656 calls)
     cdiaghg      :      2.47s CPU      2.57s WALL (   17656 calls)

     Called by h_psi:
     h_psi:pot    :     14.90s CPU     15.96s WALL (   18906 calls)
     h_psi:calbec :      0.33s CPU      0.38s WALL (   18906 calls)
     vloc_psi     :     14.29s CPU     15.27s WALL (   18906 calls)
     add_vuspsi   :      0.24s CPU      0.26s WALL (   18906 calls)

     General routines
     calbec       :      0.58s CPU      0.66s WALL (   28406 calls)
     fft          :      0.15s CPU      0.15s WALL (     405 calls)
     ffts         :      0.00s CPU      0.00s WALL (      47 calls)
     fftw         :     14.93s CPU     15.43s WALL (  315696 calls)
     interpolate  :      0.02s CPU      0.02s WALL (      47 calls)
     davcio       :      0.00s CPU      0.01s WALL (     500 calls)

     Parallel routines
     fft_scatter  :      3.38s CPU      4.34s WALL (  316148 calls)

     PWSCF        :    29.13s CPU        30.90s WALL


   This run was terminated on:  17:37:31  20Dec2017            

=------------------------------------------------------------------------------=
   JOB DONE.
=------------------------------------------------------------------------------=
