
     Program PWSCF v.6.1 (svn rev. 13369) starts on 20Dec2017 at 17:35:44 

     This program is part of the open-source Quantum ESPRESSO suite
     for quantum simulation of materials; please cite
         "P. Giannozzi et al., J. Phys.:Condens. Matter 21 395502 (2009);
          URL http://www.quantum-espresso.org", 
     in publications or presentations arising from this work. More details at
     http://www.quantum-espresso.org/quote

     Parallel version (MPI), running on     4 processors
     R & G space division:  proc/nbgrp/npool/nimage =       4
     Waiting for input...
     Reading input from standard input

     Current dimensions of program PWSCF are:
     Max number of different atomic species (ntypx) = 10
     Max number of k-points (npk) =  40000
     Max angular momentum in pseudopotentials (lmaxx) =  3

     Subspace diagonalization in iterative solution of the eigenvalue problem:
     a serial algorithm will be used


     Parallelization info
     --------------------
     sticks:   dense  smooth     PW     G-vecs:    dense   smooth      PW
     Min         278     139     43                 5863     2097     369
     Max         279     140     44                 5866     2099     372
     Sum        1113     557    173                23455     8391    1481



     bravais-lattice index     =            3
     lattice parameter (alat)  =       7.8581  a.u.
     unit-cell volume          =     242.6175 (a.u.)^3
     number of atoms/cell      =            1
     number of atomic types    =            1
     number of electrons       =         9.00
     number of Kohn-Sham states=            9
     kinetic-energy cutoff     =      40.0000  Ry
     charge density cutoff     =     320.0000  Ry
     convergence threshold     =      1.0E-08
     mixing beta               =       0.7000
     number of iterations used =            8  plain     mixing
     Exchange-correlation      = SLA  PW   PBE  PBE ( 1  4  3  4 0 0)
     nstep                     =           50


     celldm(1)=   7.858097  celldm(2)=   0.000000  celldm(3)=   0.000000
     celldm(4)=   0.000000  celldm(5)=   0.000000  celldm(6)=   0.000000

     crystal axes: (cart. coord. in units of alat)
               a(1) = (   0.500000   0.500000   0.500000 )  
               a(2) = (  -0.500000   0.500000   0.500000 )  
               a(3) = (  -0.500000  -0.500000   0.500000 )  

     reciprocal axes: (cart. coord. in units 2 pi/alat)
               b(1) = (  1.000000  0.000000  1.000000 )  
               b(2) = ( -1.000000  1.000000  0.000000 )  
               b(3) = (  0.000000 -1.000000  1.000000 )  


     PseudoPot. # 1 for Na read from file:
     /home/s1333534/quantum_espresso/qe-6.1/pseudo/Na_pbe_v1.uspp.F.UPF
     MD5 check sum: 76a99c7e9422403d3e93cbc85ab7bccb
     Pseudo is Ultrasoft, Zval =  9.0
     Generated by new atomic code, or converted to UPF format
     Using radial grid of  819 points,  5 beta functions with: 
                l(1) =   0
                l(2) =   0
                l(3) =   1
                l(4) =   1
                l(5) =   2
     Q(r) pseudized with  8 coefficients,  rinner =    1.250   1.250   1.250
                                                       1.250   1.250

     atomic species   valence    mass     pseudopotential
        Na             9.00    22.99000     Na( 1.00)

     48 Sym. Ops., with inversion, found



   Cartesian axes

     site n.     atom                  positions (alat units)
         1           Na  tau(   1) = (   0.0000000   0.0000000   0.0000000  )

     number of k points=   250  Marzari-Vanderbilt smearing, width (Ry)=  0.0200

     Number of k-points >= 100: set verbosity='high' to print them.

     Dense  grid:    23455 G-vectors     FFT dimensions: (  40,  40,  40)

     Smooth grid:     8391 G-vectors     FFT dimensions: (  27,  27,  27)

     Estimated max dynamical RAM per process >      12.72MB

     Estimated total allocated dynamical RAM >      50.90MB

     Initial potential from superposition of free atoms

     starting charge    8.99371, renormalised to    9.00000
     Starting wfc are    5 randomized atomic wfcs +    4 random wfc

     total cpu time spent up to now is        1.0 secs

     per-process dynamical memory:    18.9 Mb

     Self-consistent Calculation

     iteration #  1     ecut=    40.00 Ry     beta=0.70
     Davidson diagonalization with overlap
     ethr =  1.00E-02,  avg # of iterations =  5.8

     Threshold (ethr) on eigenvalues was too large:
     Diagonalizing with lowered threshold

     Davidson diagonalization with overlap
     ethr =  9.96E-06,  avg # of iterations =  4.6

     total cpu time spent up to now is        5.5 secs

     total energy              =     -95.10636086 Ry
     Harris-Foulkes estimate   =     -95.10658830 Ry
     estimated scf accuracy    <       0.00089550 Ry

     iteration #  2     ecut=    40.00 Ry     beta=0.70
     Davidson diagonalization with overlap
     ethr =  9.95E-06,  avg # of iterations =  2.0

     total cpu time spent up to now is        7.0 secs

     total energy              =     -95.10646293 Ry
     Harris-Foulkes estimate   =     -95.10648540 Ry
     estimated scf accuracy    <       0.00009914 Ry

     iteration #  3     ecut=    40.00 Ry     beta=0.70
     Davidson diagonalization with overlap
     ethr =  1.10E-06,  avg # of iterations =  2.2

     total cpu time spent up to now is        8.5 secs

     total energy              =     -95.10647418 Ry
     Harris-Foulkes estimate   =     -95.10647534 Ry
     estimated scf accuracy    <       0.00000616 Ry

     iteration #  4     ecut=    40.00 Ry     beta=0.70
     Davidson diagonalization with overlap
     ethr =  6.85E-08,  avg # of iterations =  1.0

     total cpu time spent up to now is        9.9 secs

     total energy              =     -95.10647475 Ry
     Harris-Foulkes estimate   =     -95.10647471 Ry
     estimated scf accuracy    <       0.00000001 Ry

     iteration #  5     ecut=    40.00 Ry     beta=0.70
     Davidson diagonalization with overlap
     ethr =  1.18E-10,  avg # of iterations =  3.0

     total cpu time spent up to now is       11.7 secs

     End of self-consistent calculation

     Number of k-points >= 100: set verbosity='high' to print the bands.

     the Fermi energy is     1.7359 ev

!    total energy              =     -95.10647478 Ry
     Harris-Foulkes estimate   =     -95.10647478 Ry
     estimated scf accuracy    <          1.7E-09 Ry

     The total energy is the sum of the following terms:

     one-electron contribution =     -87.46921309 Ry
     hartree contribution      =      44.14789182 Ry
     xc contribution           =     -14.27242682 Ry
     ewald contribution        =     -37.51263253 Ry
     smearing contrib. (-TS)   =      -0.00009416 Ry

     convergence has been achieved in   5 iterations

     Forces acting on atoms (cartesian axes, Ry/au):

     atom    1 type  1   force =     0.00000000    0.00000000    0.00000000

     Total force =     0.000000     Total SCF correction =     0.000000


     Computing stress (Cartesian axis) and pressure

          total   stress  (Ry/bohr**3)                   (kbar)     P=   -0.36
  -0.00000248   0.00000000  -0.00000000         -0.36      0.00     -0.00
   0.00000000  -0.00000248   0.00000000          0.00     -0.36      0.00
  -0.00000000   0.00000000  -0.00000248         -0.00      0.00     -0.36


     BFGS Geometry Optimization

     bfgs converged in   1 scf cycles and   0 bfgs steps
     (criteria: energy <  1.0E-04 Ry, force <  1.0E-03Ry/Bohr, cell <  5.0E-01kbar)

     End of BFGS Geometry Optimization

     Final enthalpy =     -95.1064747830 Ry
Begin final coordinates
     new unit-cell volume =    242.61753 a.u.^3 (    35.95221 Ang^3 )
     density =      1.06185 g/cm^3

CELL_PARAMETERS (alat=  7.85809711)
   0.500000000   0.500000000   0.500000000
  -0.500000000   0.500000000   0.500000000
  -0.500000000  -0.500000000   0.500000000

ATOMIC_POSITIONS (crystal)
Na       0.000000000   0.000000000   0.000000000
End final coordinates



     A final scf calculation at the relaxed structure.
     The G-vectors are recalculated for the final unit cell
     Results may differ from those at the preceding step.

     Parallelization info
     --------------------
     sticks:   dense  smooth     PW     G-vecs:    dense   smooth      PW
     Min         278     139     43                 5863     2097     369
     Max         279     140     44                 5866     2099     372
     Sum        1113     557    173                23455     8391    1481



     bravais-lattice index     =            3
     lattice parameter (alat)  =       7.8581  a.u.
     unit-cell volume          =     242.6175 (a.u.)^3
     number of atoms/cell      =            1
     number of atomic types    =            1
     number of electrons       =         9.00
     number of Kohn-Sham states=            9
     kinetic-energy cutoff     =      40.0000  Ry
     charge density cutoff     =     320.0000  Ry
     convergence threshold     =      1.0E-08
     mixing beta               =       0.7000
     number of iterations used =            8  plain     mixing
     Exchange-correlation      = SLA  PW   PBE  PBE ( 1  4  3  4 0 0)

     celldm(1)=   7.858097  celldm(2)=   0.000000  celldm(3)=   0.000000
     celldm(4)=   0.000000  celldm(5)=   0.000000  celldm(6)=   0.000000

     crystal axes: (cart. coord. in units of alat)
               a(1) = (   0.500000   0.500000   0.500000 )  
               a(2) = (  -0.500000   0.500000   0.500000 )  
               a(3) = (  -0.500000  -0.500000   0.500000 )  

     reciprocal axes: (cart. coord. in units 2 pi/alat)
               b(1) = (  1.000000  0.000000  1.000000 )  
               b(2) = ( -1.000000  1.000000  0.000000 )  
               b(3) = (  0.000000 -1.000000  1.000000 )  


     PseudoPot. # 1 for Na read from file:
     /home/s1333534/quantum_espresso/qe-6.1/pseudo/Na_pbe_v1.uspp.F.UPF
     MD5 check sum: 76a99c7e9422403d3e93cbc85ab7bccb
     Pseudo is Ultrasoft, Zval =  9.0
     Generated by new atomic code, or converted to UPF format
     Using radial grid of  819 points,  5 beta functions with: 
                l(1) =   0
                l(2) =   0
                l(3) =   1
                l(4) =   1
                l(5) =   2
     Q(r) pseudized with  8 coefficients,  rinner =    1.250   1.250   1.250
                                                       1.250   1.250

     atomic species   valence    mass     pseudopotential
        Na             9.00    22.99000     Na( 1.00)

     48 Sym. Ops., with inversion, found



   Cartesian axes

     site n.     atom                  positions (alat units)
         1           Na  tau(   1) = (   0.0000000   0.0000000   0.0000000  )

     number of k points=   250  Marzari-Vanderbilt smearing, width (Ry)=  0.0200

     Number of k-points >= 100: set verbosity='high' to print them.

     Dense  grid:    23455 G-vectors     FFT dimensions: (  40,  40,  40)

     Smooth grid:     8391 G-vectors     FFT dimensions: (  27,  27,  27)

     Estimated max dynamical RAM per process >      12.72MB

     Estimated total allocated dynamical RAM >      50.90MB

     Initial potential from superposition of free atoms

     starting charge    8.99371, renormalised to    9.00000
     Starting wfc are    5 randomized atomic wfcs +    4 random wfc

     Writing output data file na.bcc.save

     total cpu time spent up to now is       13.6 secs

     per-process dynamical memory:    24.4 Mb

     Self-consistent Calculation

     iteration #  1     ecut=    40.00 Ry     beta=0.70
     Davidson diagonalization with overlap
     c_bands:  1 eigenvalues not converged
     c_bands:  1 eigenvalues not converged
     c_bands:  1 eigenvalues not converged
     c_bands:  1 eigenvalues not converged
     c_bands:  1 eigenvalues not converged
     ethr =  1.00E-06,  avg # of iterations = 12.0

     total cpu time spent up to now is       18.1 secs

     total energy              =     -95.10635772 Ry
     Harris-Foulkes estimate   =     -95.10658846 Ry
     estimated scf accuracy    <       0.00089861 Ry

     iteration #  2     ecut=    40.00 Ry     beta=0.70
     Davidson diagonalization with overlap
     ethr =  9.98E-06,  avg # of iterations =  2.0

     total cpu time spent up to now is       19.6 secs

     total energy              =     -95.10646300 Ry
     Harris-Foulkes estimate   =     -95.10648679 Ry
     estimated scf accuracy    <       0.00010151 Ry

     iteration #  3     ecut=    40.00 Ry     beta=0.70
     Davidson diagonalization with overlap
     ethr =  1.13E-06,  avg # of iterations =  2.0

     total cpu time spent up to now is       21.2 secs

     total energy              =     -95.10647417 Ry
     Harris-Foulkes estimate   =     -95.10647544 Ry
     estimated scf accuracy    <       0.00000644 Ry

     iteration #  4     ecut=    40.00 Ry     beta=0.70
     Davidson diagonalization with overlap
     ethr =  7.16E-08,  avg # of iterations =  1.0

     total cpu time spent up to now is       22.5 secs

     End of self-consistent calculation

     Number of k-points >= 100: set verbosity='high' to print the bands.

     the Fermi energy is     1.7361 ev

!    total energy              =     -95.10647476 Ry
     Harris-Foulkes estimate   =     -95.10647471 Ry
     estimated scf accuracy    <          9.9E-09 Ry

     The total energy is the sum of the following terms:

     one-electron contribution =     -87.46886489 Ry
     hartree contribution      =      44.14746782 Ry
     xc contribution           =     -14.27235100 Ry
     ewald contribution        =     -37.51263253 Ry
     smearing contrib. (-TS)   =      -0.00009416 Ry

     convergence has been achieved in   4 iterations

     Forces acting on atoms (cartesian axes, Ry/au):

     atom    1 type  1   force =     0.00000000    0.00000000    0.00000000

     Total force =     0.000000     Total SCF correction =     0.000000


     Computing stress (Cartesian axis) and pressure

          total   stress  (Ry/bohr**3)                   (kbar)     P=   -0.77
  -0.00000523  -0.00000000   0.00000000         -0.77     -0.00      0.00
  -0.00000000  -0.00000523  -0.00000000         -0.00     -0.77     -0.00
   0.00000000  -0.00000000  -0.00000523          0.00     -0.00     -0.77


     Writing output data file na.bcc.save

     init_run     :      1.68s CPU      1.73s WALL (       2 calls)
     electrons    :     18.75s CPU     19.64s WALL (       2 calls)
     forces       :      0.23s CPU      0.24s WALL (       2 calls)
     stress       :      1.27s CPU      1.28s WALL (       2 calls)

     Called by init_run:
     wfcinit      :      0.99s CPU      1.04s WALL (       2 calls)
     potinit      :      0.10s CPU      0.10s WALL (       2 calls)

     Called by electrons:
     c_bands      :     15.87s CPU     16.63s WALL (      10 calls)
     sum_band     :      2.62s CPU      2.74s WALL (      10 calls)
     v_of_rho     :      0.13s CPU      0.13s WALL (      11 calls)
     newd         :      0.17s CPU      0.17s WALL (      11 calls)
     mix_rho      :      0.01s CPU      0.01s WALL (      10 calls)

     Called by c_bands:
     init_us_2    :      0.74s CPU      0.73s WALL (    6500 calls)
     cegterg      :     15.23s CPU     15.99s WALL (    2500 calls)

     Called by sum_band:
     sum_band:bec :      0.00s CPU      0.01s WALL (    2500 calls)
     addusdens    :      0.18s CPU      0.18s WALL (      10 calls)

     Called by *egterg:
     h_psi        :     12.71s CPU     13.37s WALL (   11900 calls)
     s_psi        :      0.19s CPU      0.16s WALL (   11900 calls)
     g_psi        :      0.09s CPU      0.10s WALL (    8900 calls)
     cdiaghg      :      1.85s CPU      1.91s WALL (   11150 calls)

     Called by h_psi:
     h_psi:pot    :     12.67s CPU     13.30s WALL (   11900 calls)
     h_psi:calbec :      0.33s CPU      0.25s WALL (   11900 calls)
     vloc_psi     :     12.21s CPU     12.85s WALL (   11900 calls)
     add_vuspsi   :      0.11s CPU      0.17s WALL (   11900 calls)

     General routines
     calbec       :      0.50s CPU      0.42s WALL (   16900 calls)
     fft          :      0.08s CPU      0.08s WALL (     188 calls)
     ffts         :      0.00s CPU      0.00s WALL (      21 calls)
     fftw         :     13.16s CPU     13.24s WALL (  165402 calls)
     interpolate  :      0.01s CPU      0.01s WALL (      21 calls)
     davcio       :      0.00s CPU      0.01s WALL (     500 calls)

     Parallel routines
     fft_scatter  :      1.92s CPU      2.47s WALL (  165611 calls)

     PWSCF        :    22.45s CPU        23.43s WALL


   This run was terminated on:  17:36: 8  20Dec2017            

=------------------------------------------------------------------------------=
   JOB DONE.
=------------------------------------------------------------------------------=
