
     Program PHONON v.5.4.0 starts on  6Jun2016 at  6: 8:48 

     This program is part of the open-source Quantum ESPRESSO suite
     for quantum simulation of materials; please cite
         "P. Giannozzi et al., J. Phys.:Condens. Matter 21 395502 (2009);
          URL http://www.quantum-espresso.org", 
     in publications or presentations arising from this work. More details at
     http://www.quantum-espresso.org/quote

     Parallel version (MPI), running on   384 processors
     K-points division:     npool     =     384

     Reading data from directory:
     ./tmp/li-fcc.save

   Info: using nr1, nr2, nr3 values from input

   Info: using nr1, nr2, nr3 values from input

     IMPORTANT: XC functional enforced from input :
     Exchange-correlation      =  SLA  PW   PBX  PBC ( 1  4  3  4 0 0)
     Any further DFT definition will be discarded
     Please, verify this is what you really want

 
     G-vector sticks info
     --------------------
     sticks:   dense  smooth     PW     G-vecs:    dense   smooth      PW
     Sum        1069     547    187                23409     8363    1639
 


     Dynamical matrices for ( 8, 8, 8)  uniform grid of q-points
     (  29q-points):
       N         xq(1)         xq(2)         xq(3) 
       1   0.000000000   0.000000000   0.000000000
       2  -0.125000000   0.125000000  -0.125000000
       3  -0.250000000   0.250000000  -0.250000000
       4  -0.375000000   0.375000000  -0.375000000
       5   0.500000000  -0.500000000   0.500000000
       6   0.000000000   0.250000000   0.000000000
       7  -0.125000000   0.375000000  -0.125000000
       8  -0.250000000   0.500000000  -0.250000000
       9   0.625000000  -0.375000000   0.625000000
      10   0.500000000  -0.250000000   0.500000000
      11   0.375000000  -0.125000000   0.375000000
      12   0.250000000   0.000000000   0.250000000
      13   0.000000000   0.500000000   0.000000000
      14  -0.125000000   0.625000000  -0.125000000
      15   0.750000000  -0.250000000   0.750000000
      16   0.625000000  -0.125000000   0.625000000
      17   0.500000000   0.000000000   0.500000000
      18   0.000000000   0.750000000   0.000000000
      19   0.875000000  -0.125000000   0.875000000
      20   0.750000000   0.000000000   0.750000000
      21   0.000000000  -1.000000000   0.000000000
      22  -0.250000000   0.500000000   0.000000000
      23   0.625000000  -0.375000000   0.875000000
      24   0.500000000  -0.250000000   0.750000000
      25   0.750000000  -0.250000000   1.000000000
      26   0.625000000  -0.125000000   0.875000000
      27   0.500000000   0.000000000   0.750000000
      28  -0.250000000  -1.000000000   0.000000000
      29  -0.500000000  -1.000000000   0.000000000

     Calculation of q =    0.0000000   0.0000000   0.0000000

                                                                                

     bravais-lattice index     =            2
     lattice parameter (alat)  =       8.0861  a.u.
     unit-cell volume          =     132.1771 (a.u.)^3
     number of atoms/cell      =            1
     number of atomic types    =            1
     kinetic-energy cut-off    =      60.0000  Ry
     charge density cut-off    =     480.0000  Ry
     convergence threshold     =      1.0E-16
     beta                      =       0.7000
     number of iterations used =            4
     Exchange-correlation      =  SLA  PW   PBX  PBC ( 1  4  3  4 0 0)


     celldm(1)=    8.08609  celldm(2)=    0.00000  celldm(3)=    0.00000
     celldm(4)=    0.00000  celldm(5)=    0.00000  celldm(6)=    0.00000

     crystal axes: (cart. coord. in units of alat)
               a(1) = ( -0.5000  0.0000  0.5000 )  
               a(2) = (  0.0000  0.5000  0.5000 )  
               a(3) = ( -0.5000  0.5000  0.0000 )  

     reciprocal axes: (cart. coord. in units 2 pi/alat)
               b(1) = ( -1.0000 -1.0000  1.0000 )  
               b(2) = (  1.0000  1.0000  1.0000 )  
               b(3) = ( -1.0000  1.0000 -1.0000 )  


     Atoms inside the unit cell: 

     Cartesian axes

     site n.  atom      mass           positions (alat units)
        1     Li   6.9410   tau(    1) = (    0.00000    0.00000    0.00000  )

     Computing dynamical matrix for 
                    q = (   0.0000000   0.0000000   0.0000000 )
 
     49 Sym.Ops. (with q -> -q+G )


     G cutoff =  794.9851  (  23409 G-vectors)     FFT grid: ( 40, 40, 40)
     G cutoff =  397.4925  (   8363 G-vectors)  smooth grid: ( 30, 30, 30)

     number of k points=  2030  Marzari-Vanderbilt smearing, width (Ry)=  0.0200

     PseudoPot. # 1 for Li read from file:
     ../Li.pbe-s-gbrv14.UPF
     MD5 check sum: 7ca33c4f951f001da2db5c8738379802
     Pseudo is Ultrasoft, Zval =  3.0
     Generated by new atomic code, or converted to UPF format
     Using radial grid of  751 points,  5 beta functions with: 
                l(1) =   0
                l(2) =   0
                l(3) =   0
                l(4) =   1
                l(5) =   1
     Q(r) pseudized with 10 coefficients,  rinner =    1.150   1.150   1.150


     Mode symmetry, O_h (m-3m)  point group:


     Atomic displacements:
     There are   1 irreducible representations

     Representation     1      3 modes -T_1u G_15  G_4-  To be done



     Alpha used in Ewald sum =   2.8000
     PHONON       :    13.86s CPU        20.10s WALL



     Representation #  1 modes #   1  2  3

     Self-consistent Calculation
 
     Pert. #  1: Fermi energy shift (Ry) =     8.2718E-25     1.2539E-37
     Pert. #  2: Fermi energy shift (Ry) =    -2.3264E-25     7.8366E-38
     Pert. #  3: Fermi energy shift (Ry) =     7.5825E-25     6.6611E-38

      iter #   1 total cpu time :    21.1 secs   av.it.:   5.3
      thresh= 1.000E-02 alpha_mix =  0.700 |ddv_scf|^2 =  1.137E-07
 
     Pert. #  1: Fermi energy shift (Ry) =    -1.0340E-25     0.0000E+00
     Pert. #  2: Fermi energy shift (Ry) =    -2.1541E-27    -1.8558E-40
     Pert. #  3: Fermi energy shift (Ry) =    -6.8932E-26    -7.6530E-41

      iter #   2 total cpu time :    23.1 secs   av.it.:   9.4
      thresh= 3.372E-05 alpha_mix =  0.700 |ddv_scf|^2 =  6.989E-09
 
     Pert. #  1: Fermi energy shift (Ry) =    -2.5849E-25     0.0000E+00
     Pert. #  2: Fermi energy shift (Ry) =     2.5203E-25     0.0000E+00
     Pert. #  3: Fermi energy shift (Ry) =    -3.4466E-26     1.8176E-41

      iter #   3 total cpu time :    24.5 secs   av.it.:   9.7
      thresh= 8.360E-06 alpha_mix =  0.700 |ddv_scf|^2 =  4.428E-11
 
     Pert. #  1: Fermi energy shift (Ry) =    -6.8932E-26     0.0000E+00
     Pert. #  2: Fermi energy shift (Ry) =     1.3786E-25     0.0000E+00
     Pert. #  3: Fermi energy shift (Ry) =     2.9296E-25     0.0000E+00

      iter #   4 total cpu time :    27.3 secs   av.it.:   9.4
      thresh= 6.654E-07 alpha_mix =  0.700 |ddv_scf|^2 =  1.090E-13
 
     Pert. #  1: Fermi energy shift (Ry) =     1.5510E-25     0.0000E+00
     Pert. #  2: Fermi energy shift (Ry) =    -1.3786E-25     0.0000E+00
     Pert. #  3: Fermi energy shift (Ry) =    -3.4466E-26    -2.8400E-43

      iter #   5 total cpu time :    29.5 secs   av.it.:   9.0
      thresh= 3.301E-08 alpha_mix =  0.700 |ddv_scf|^2 =  1.886E-15
 
     Pert. #  1: Fermi energy shift (Ry) =     2.7573E-25     0.0000E+00
     Pert. #  2: Fermi energy shift (Ry) =     7.7548E-26     0.0000E+00
     Pert. #  3: Fermi energy shift (Ry) =    -1.2063E-25     0.0000E+00

      iter #   6 total cpu time :    30.6 secs   av.it.:   8.7
      thresh= 4.343E-09 alpha_mix =  0.700 |ddv_scf|^2 =  5.689E-19

     End of self-consistent calculation

     Convergence has been achieved 
 
     Number of q in the star =    1
     List of q in the star:
          1   0.000000000   0.000000000   0.000000000

     Diagonalizing the dynamical matrix

     q = (    0.000000000   0.000000000   0.000000000 ) 

 **************************************************************************
     freq (    1) =      -0.074883 [THz] =      -2.497840 [cm-1]
     freq (    2) =      -0.074883 [THz] =      -2.497840 [cm-1]
     freq (    3) =      -0.074883 [THz] =      -2.497840 [cm-1]
 **************************************************************************

     Mode symmetry, O_h (m-3m)  point group:

     freq (  1 -  3) =         -2.5  [cm-1]   --> T_1u G_15  G_4- I  

     Calculation of q =   -0.1250000   0.1250000  -0.1250000
 
     G-vector sticks info
     --------------------
     sticks:   dense  smooth     PW     G-vecs:    dense   smooth      PW
     Sum        1069     547    187                23409     8363    1687
 


     bravais-lattice index     =            2
     lattice parameter (alat)  =       8.0861  a.u.
     unit-cell volume          =     132.1771 (a.u.)^3
     number of atoms/cell      =            1
     number of atomic types    =            1
     number of electrons       =         3.00
     number of Kohn-Sham states=            6
     kinetic-energy cutoff     =      60.0000  Ry
     charge density cutoff     =     480.0000  Ry
     Exchange-correlation      =  SLA  PW   PBX  PBC ( 1  4  3  4 0 0)

     celldm(1)=   8.086093  celldm(2)=   0.000000  celldm(3)=   0.000000
     celldm(4)=   0.000000  celldm(5)=   0.000000  celldm(6)=   0.000000

     crystal axes: (cart. coord. in units of alat)
               a(1) = (  -0.500000   0.000000   0.500000 )  
               a(2) = (   0.000000   0.500000   0.500000 )  
               a(3) = (  -0.500000   0.500000   0.000000 )  

     reciprocal axes: (cart. coord. in units 2 pi/alat)
               b(1) = ( -1.000000 -1.000000  1.000000 )  
               b(2) = (  1.000000  1.000000  1.000000 )  
               b(3) = ( -1.000000  1.000000 -1.000000 )  


     PseudoPot. # 1 for Li read from file:
     ../Li.pbe-s-gbrv14.UPF
     MD5 check sum: 7ca33c4f951f001da2db5c8738379802
     Pseudo is Ultrasoft, Zval =  3.0
     Generated by new atomic code, or converted to UPF format
     Using radial grid of  751 points,  5 beta functions with: 
                l(1) =   0
                l(2) =   0
                l(3) =   0
                l(4) =   1
                l(5) =   1
     Q(r) pseudized with 10 coefficients,  rinner =    1.150   1.150   1.150


     atomic species   valence    mass     pseudopotential
        Li             3.00     6.94100     Li( 1.00)

     48 Sym. Ops., with inversion, found



   Cartesian axes

     site n.     atom                  positions (alat units)
         1           Li  tau(   1) = (   0.0000000   0.0000000   0.0000000  )

     number of k points= 30856  Marzari-Vanderbilt smearing, width (Ry)=  0.0200

     Number of k-points >= 100: set verbosity='high' to print them.

     Dense  grid:    23409 G-vectors     FFT dimensions: (  40,  40,  40)

     Smooth grid:     8363 G-vectors     FFT dimensions: (  30,  30,  30)

     Largest allocated arrays     est. size (Mb)     dimensions
        Kohn-Sham Wavefunctions         0.10 Mb     (    1056,    6)
        NL pseudopotentials             0.15 Mb     (    1056,    9)
        Each V/rho on FFT grid          0.98 Mb     (   64000)
        Each G-vector array             0.18 Mb     (   23409)
        G-vector shells                 0.00 Mb     (     267)
     Largest temporary arrays     est. size (Mb)     dimensions
        Auxiliary wavefunctions         0.39 Mb     (    1056,   24)
        Each subspace H/S matrix        0.01 Mb     (      24,   24)
        Each <psi_i|beta_j> matrix      0.00 Mb     (       9,    6)

     The potential is recalculated from file :
     ./tmp/_ph0/li-fcc.save/charge-density.dat

     Starting wfc are    5 atomic +    1 random wfc

     Band Structure Calculation
     Davidson diagonalization with overlap

     ethr =  3.33E-10,  avg # of iterations = 15.4

     total cpu time spent up to now is       10.2 secs

     End of band structure calculation

     Number of k-points >= 100: set verbosity='high' to print the bands.

     the Fermi energy is     1.0451 ev

                                                                                

     bravais-lattice index     =            2
     lattice parameter (alat)  =       8.0861  a.u.
     unit-cell volume          =     132.1771 (a.u.)^3
     number of atoms/cell      =            1
     number of atomic types    =            1
     kinetic-energy cut-off    =      60.0000  Ry
     charge density cut-off    =     480.0000  Ry
     convergence threshold     =      1.0E-16
     beta                      =       0.7000
     number of iterations used =            4
     Exchange-correlation      =  SLA  PW   PBX  PBC ( 1  4  3  4 0 0)


     celldm(1)=    8.08609  celldm(2)=    0.00000  celldm(3)=    0.00000
     celldm(4)=    0.00000  celldm(5)=    0.00000  celldm(6)=    0.00000

     crystal axes: (cart. coord. in units of alat)
               a(1) = ( -0.5000  0.0000  0.5000 )  
               a(2) = (  0.0000  0.5000  0.5000 )  
               a(3) = ( -0.5000  0.5000  0.0000 )  

     reciprocal axes: (cart. coord. in units 2 pi/alat)
               b(1) = ( -1.0000 -1.0000  1.0000 )  
               b(2) = (  1.0000  1.0000  1.0000 )  
               b(3) = ( -1.0000  1.0000 -1.0000 )  


     Atoms inside the unit cell: 

     Cartesian axes

     site n.  atom      mass           positions (alat units)
        1     Li   6.9410   tau(    1) = (    0.00000    0.00000    0.00000  )

     Computing dynamical matrix for 
                    q = (  -0.1250000   0.1250000  -0.1250000 )
 
      6 Sym.Ops. (no q -> -q+G )


     G cutoff =  794.9851  (  23409 G-vectors)     FFT grid: ( 40, 40, 40)
     G cutoff =  397.4925  (   8363 G-vectors)  smooth grid: ( 30, 30, 30)

     number of k points= 30856  Marzari-Vanderbilt smearing, width (Ry)=  0.0200

     PseudoPot. # 1 for Li read from file:
     ../Li.pbe-s-gbrv14.UPF
     MD5 check sum: 7ca33c4f951f001da2db5c8738379802
     Pseudo is Ultrasoft, Zval =  3.0
     Generated by new atomic code, or converted to UPF format
     Using radial grid of  751 points,  5 beta functions with: 
                l(1) =   0
                l(2) =   0
                l(3) =   0
                l(4) =   1
                l(5) =   1
     Q(r) pseudized with 10 coefficients,  rinner =    1.150   1.150   1.150


     Mode symmetry, C_3v (3m)   point group:


     Atomic displacements:
     There are   2 irreducible representations

     Representation     1      1 modes -A_1  L_1  To be done

     Representation     2      2 modes -E    L_3  To be done



     Alpha used in Ewald sum =   2.8000
     PHONON       :    46.10s CPU        53.15s WALL



     Representation #  1 mode #   1

     Self-consistent Calculation

      iter #   1 total cpu time :    54.4 secs   av.it.:   6.3
      thresh= 1.000E-02 alpha_mix =  0.700 |ddv_scf|^2 =  8.188E-02

      iter #   2 total cpu time :    58.2 secs   av.it.:   7.9
      thresh= 1.000E-02 alpha_mix =  0.700 |ddv_scf|^2 =  7.066E+01

      iter #   3 total cpu time :    70.2 secs   av.it.:   7.9
      thresh= 1.000E-02 alpha_mix =  0.700 |ddv_scf|^2 =  5.628E-04

      iter #   4 total cpu time :    71.2 secs   av.it.:   5.0
      thresh= 2.372E-03 alpha_mix =  0.700 |ddv_scf|^2 =  4.219E-08

      iter #   5 total cpu time :    72.4 secs   av.it.:   8.3
      thresh= 2.054E-05 alpha_mix =  0.700 |ddv_scf|^2 =  4.436E-10

      iter #   6 total cpu time :    77.2 secs   av.it.:   8.7
      thresh= 2.106E-06 alpha_mix =  0.700 |ddv_scf|^2 =  9.215E-09

      iter #   7 total cpu time :    88.4 secs   av.it.:   3.5
      thresh= 9.599E-06 alpha_mix =  0.700 |ddv_scf|^2 =  1.502E-10

      iter #   8 total cpu time :    91.8 secs   av.it.:   7.2
      thresh= 1.226E-06 alpha_mix =  0.700 |ddv_scf|^2 =  1.539E-13

      iter #   9 total cpu time :    97.9 secs   av.it.:   8.0
      thresh= 3.924E-08 alpha_mix =  0.700 |ddv_scf|^2 =  7.745E-15

      iter #  10 total cpu time :    99.2 secs   av.it.:   7.7
      thresh= 8.801E-09 alpha_mix =  0.700 |ddv_scf|^2 =  1.183E-14

      iter #  11 total cpu time :   100.8 secs   av.it.:   6.1
      thresh= 1.088E-08 alpha_mix =  0.700 |ddv_scf|^2 =  3.686E-18

     End of self-consistent calculation

     Convergence has been achieved 


     Representation #  2 modes #   2  3

     Self-consistent Calculation

      iter #   1 total cpu time :   109.0 secs   av.it.:   5.4
      thresh= 1.000E-02 alpha_mix =  0.700 |ddv_scf|^2 =  2.581E-07

      iter #   2 total cpu time :   112.8 secs   av.it.:   9.4
      thresh= 5.080E-05 alpha_mix =  0.700 |ddv_scf|^2 =  1.582E-08

      iter #   3 total cpu time :   117.9 secs   av.it.:   9.5
      thresh= 1.258E-05 alpha_mix =  0.700 |ddv_scf|^2 =  1.111E-10

      iter #   4 total cpu time :   120.6 secs   av.it.:   9.1
      thresh= 1.054E-06 alpha_mix =  0.700 |ddv_scf|^2 =  2.415E-13

      iter #   5 total cpu time :   124.3 secs   av.it.:   8.9
      thresh= 4.915E-08 alpha_mix =  0.700 |ddv_scf|^2 =  4.163E-15

      iter #   6 total cpu time :   128.0 secs   av.it.:   8.0
      thresh= 6.452E-09 alpha_mix =  0.700 |ddv_scf|^2 =  1.652E-18

     End of self-consistent calculation

     Convergence has been achieved 
 
     Number of q in the star =    8
     List of q in the star:
          1  -0.125000000   0.125000000  -0.125000000
          2   0.125000000  -0.125000000  -0.125000000
          3   0.125000000  -0.125000000   0.125000000
          4  -0.125000000   0.125000000   0.125000000
          5   0.125000000   0.125000000  -0.125000000
          6  -0.125000000  -0.125000000  -0.125000000
          7  -0.125000000  -0.125000000   0.125000000
          8   0.125000000   0.125000000   0.125000000

     Diagonalizing the dynamical matrix

     q = (   -0.125000000   0.125000000  -0.125000000 ) 

 **************************************************************************
     freq (    1) =       1.419717 [THz] =      47.356648 [cm-1]
     freq (    2) =       1.419717 [THz] =      47.356648 [cm-1]
     freq (    3) =       3.697008 [THz] =     123.318924 [cm-1]
 **************************************************************************

     Mode symmetry, C_3v (3m)   point group:

     freq (  1 -  2) =         47.4  [cm-1]   --> E    L_3           
     freq (  3 -  3) =        123.3  [cm-1]   --> A_1  L_1           

     Calculation of q =   -0.2500000   0.2500000  -0.2500000
 
     G-vector sticks info
     --------------------
     sticks:   dense  smooth     PW     G-vecs:    dense   smooth      PW
     Sum        1069     547    199                23409     8363    1807
 


     bravais-lattice index     =            2
     lattice parameter (alat)  =       8.0861  a.u.
     unit-cell volume          =     132.1771 (a.u.)^3
     number of atoms/cell      =            1
     number of atomic types    =            1
     number of electrons       =         3.00
     number of Kohn-Sham states=            6
     kinetic-energy cutoff     =      60.0000  Ry
     charge density cutoff     =     480.0000  Ry
     Exchange-correlation      =  SLA  PW   PBX  PBC ( 1  4  3  4 0 0)

     celldm(1)=   8.086093  celldm(2)=   0.000000  celldm(3)=   0.000000
     celldm(4)=   0.000000  celldm(5)=   0.000000  celldm(6)=   0.000000

     crystal axes: (cart. coord. in units of alat)
               a(1) = (  -0.500000   0.000000   0.500000 )  
               a(2) = (   0.000000   0.500000   0.500000 )  
               a(3) = (  -0.500000   0.500000   0.000000 )  

     reciprocal axes: (cart. coord. in units 2 pi/alat)
               b(1) = ( -1.000000 -1.000000  1.000000 )  
               b(2) = (  1.000000  1.000000  1.000000 )  
               b(3) = ( -1.000000  1.000000 -1.000000 )  


     PseudoPot. # 1 for Li read from file:
     ../Li.pbe-s-gbrv14.UPF
     MD5 check sum: 7ca33c4f951f001da2db5c8738379802
     Pseudo is Ultrasoft, Zval =  3.0
     Generated by new atomic code, or converted to UPF format
     Using radial grid of  751 points,  5 beta functions with: 
                l(1) =   0
                l(2) =   0
                l(3) =   0
                l(4) =   1
                l(5) =   1
     Q(r) pseudized with 10 coefficients,  rinner =    1.150   1.150   1.150


     atomic species   valence    mass     pseudopotential
        Li             3.00     6.94100     Li( 1.00)

     48 Sym. Ops., with inversion, found



   Cartesian axes

     site n.     atom                  positions (alat units)
         1           Li  tau(   1) = (   0.0000000   0.0000000   0.0000000  )

     number of k points= 30856  Marzari-Vanderbilt smearing, width (Ry)=  0.0200

     Number of k-points >= 100: set verbosity='high' to print them.

     Dense  grid:    23409 G-vectors     FFT dimensions: (  40,  40,  40)

     Smooth grid:     8363 G-vectors     FFT dimensions: (  30,  30,  30)

     Largest allocated arrays     est. size (Mb)     dimensions
        Kohn-Sham Wavefunctions         0.10 Mb     (    1056,    6)
        NL pseudopotentials             0.15 Mb     (    1056,    9)
        Each V/rho on FFT grid          0.98 Mb     (   64000)
        Each G-vector array             0.18 Mb     (   23409)
        G-vector shells                 0.00 Mb     (     267)
     Largest temporary arrays     est. size (Mb)     dimensions
        Auxiliary wavefunctions         0.39 Mb     (    1056,   24)
        Each subspace H/S matrix        0.01 Mb     (      24,   24)
        Each <psi_i|beta_j> matrix      0.00 Mb     (       9,    6)

     The potential is recalculated from file :
     ./tmp/_ph0/li-fcc.save/charge-density.dat

     Starting wfc are    5 atomic +    1 random wfc

     Band Structure Calculation
     Davidson diagonalization with overlap

     ethr =  3.33E-10,  avg # of iterations = 15.4

     total cpu time spent up to now is       26.6 secs

     End of band structure calculation

     Number of k-points >= 100: set verbosity='high' to print the bands.

     the Fermi energy is     1.0451 ev

                                                                                

     bravais-lattice index     =            2
     lattice parameter (alat)  =       8.0861  a.u.
     unit-cell volume          =     132.1771 (a.u.)^3
     number of atoms/cell      =            1
     number of atomic types    =            1
     kinetic-energy cut-off    =      60.0000  Ry
     charge density cut-off    =     480.0000  Ry
     convergence threshold     =      1.0E-16
     beta                      =       0.7000
     number of iterations used =            4
     Exchange-correlation      =  SLA  PW   PBX  PBC ( 1  4  3  4 0 0)


     celldm(1)=    8.08609  celldm(2)=    0.00000  celldm(3)=    0.00000
     celldm(4)=    0.00000  celldm(5)=    0.00000  celldm(6)=    0.00000

     crystal axes: (cart. coord. in units of alat)
               a(1) = ( -0.5000  0.0000  0.5000 )  
               a(2) = (  0.0000  0.5000  0.5000 )  
               a(3) = ( -0.5000  0.5000  0.0000 )  

     reciprocal axes: (cart. coord. in units 2 pi/alat)
               b(1) = ( -1.0000 -1.0000  1.0000 )  
               b(2) = (  1.0000  1.0000  1.0000 )  
               b(3) = ( -1.0000  1.0000 -1.0000 )  


     Atoms inside the unit cell: 

     Cartesian axes

     site n.  atom      mass           positions (alat units)
        1     Li   6.9410   tau(    1) = (    0.00000    0.00000    0.00000  )

     Computing dynamical matrix for 
                    q = (  -0.2500000   0.2500000  -0.2500000 )
 
      6 Sym.Ops. (no q -> -q+G )


     G cutoff =  794.9851  (  23409 G-vectors)     FFT grid: ( 40, 40, 40)
     G cutoff =  397.4925  (   8363 G-vectors)  smooth grid: ( 30, 30, 30)

     number of k points= 30856  Marzari-Vanderbilt smearing, width (Ry)=  0.0200

     PseudoPot. # 1 for Li read from file:
     ../Li.pbe-s-gbrv14.UPF
     MD5 check sum: 7ca33c4f951f001da2db5c8738379802
     Pseudo is Ultrasoft, Zval =  3.0
     Generated by new atomic code, or converted to UPF format
     Using radial grid of  751 points,  5 beta functions with: 
                l(1) =   0
                l(2) =   0
                l(3) =   0
                l(4) =   1
                l(5) =   1
     Q(r) pseudized with 10 coefficients,  rinner =    1.150   1.150   1.150


     Mode symmetry, C_3v (3m)   point group:


     Atomic displacements:
     There are   2 irreducible representations

     Representation     1      1 modes -A_1  L_1  To be done

     Representation     2      2 modes -E    L_3  To be done



     Alpha used in Ewald sum =   2.8000
     PHONON       :  2m 9.85s CPU     2m36.36s WALL



     Representation #  1 mode #   1

     Self-consistent Calculation

      iter #   1 total cpu time :   157.6 secs   av.it.:   6.4
      thresh= 1.000E-02 alpha_mix =  0.700 |ddv_scf|^2 =  9.859E-04

      iter #   2 total cpu time :   170.1 secs   av.it.:   7.8
      thresh= 3.140E-03 alpha_mix =  0.700 |ddv_scf|^2 =  3.581E-02

      iter #   3 total cpu time :   174.3 secs   av.it.:   6.4
      thresh= 1.000E-02 alpha_mix =  0.700 |ddv_scf|^2 =  8.914E-08

      iter #   4 total cpu time :   175.6 secs   av.it.:   8.9
      thresh= 2.986E-05 alpha_mix =  0.700 |ddv_scf|^2 =  4.258E-09

      iter #   5 total cpu time :   176.9 secs   av.it.:   8.9
      thresh= 6.525E-06 alpha_mix =  0.700 |ddv_scf|^2 =  9.392E-11

      iter #   6 total cpu time :   178.5 secs   av.it.:   8.4
      thresh= 9.691E-07 alpha_mix =  0.700 |ddv_scf|^2 =  2.606E-13

      iter #   7 total cpu time :   191.2 secs   av.it.:   9.6
      thresh= 5.105E-08 alpha_mix =  0.700 |ddv_scf|^2 =  2.316E-14

      iter #   8 total cpu time :   199.2 secs   av.it.:   8.6
      thresh= 1.522E-08 alpha_mix =  0.700 |ddv_scf|^2 =  1.511E-13

      iter #   9 total cpu time :   200.4 secs   av.it.:   6.2
      thresh= 3.888E-08 alpha_mix =  0.700 |ddv_scf|^2 =  1.516E-14

      iter #  10 total cpu time :   202.3 secs   av.it.:   6.7
      thresh= 1.231E-08 alpha_mix =  0.700 |ddv_scf|^2 =  4.666E-17

     End of self-consistent calculation

     Convergence has been achieved 


     Representation #  2 modes #   2  3

     Self-consistent Calculation

      iter #   1 total cpu time :   205.2 secs   av.it.:   5.4
      thresh= 1.000E-02 alpha_mix =  0.700 |ddv_scf|^2 =  2.634E-07

      iter #   2 total cpu time :   207.8 secs   av.it.:   9.4
      thresh= 5.132E-05 alpha_mix =  0.700 |ddv_scf|^2 =  1.605E-08

      iter #   3 total cpu time :   210.4 secs   av.it.:   9.6
      thresh= 1.267E-05 alpha_mix =  0.700 |ddv_scf|^2 =  1.353E-10

      iter #   4 total cpu time :   213.1 secs   av.it.:   9.1
      thresh= 1.163E-06 alpha_mix =  0.700 |ddv_scf|^2 =  2.447E-13

      iter #   5 total cpu time :   215.8 secs   av.it.:   9.1
      thresh= 4.947E-08 alpha_mix =  0.700 |ddv_scf|^2 =  4.101E-15

      iter #   6 total cpu time :   218.1 secs   av.it.:   7.4
      thresh= 6.404E-09 alpha_mix =  0.700 |ddv_scf|^2 =  1.996E-18

     End of self-consistent calculation

     Convergence has been achieved 
 
     Number of q in the star =    8
     List of q in the star:
          1  -0.250000000   0.250000000  -0.250000000
          2   0.250000000  -0.250000000  -0.250000000
          3   0.250000000  -0.250000000   0.250000000
          4  -0.250000000   0.250000000   0.250000000
          5   0.250000000   0.250000000  -0.250000000
          6  -0.250000000  -0.250000000  -0.250000000
          7  -0.250000000  -0.250000000   0.250000000
          8   0.250000000   0.250000000   0.250000000

     Diagonalizing the dynamical matrix

     q = (   -0.250000000   0.250000000  -0.250000000 ) 

 **************************************************************************
     freq (    1) =       2.648292 [THz] =      88.337504 [cm-1]
     freq (    2) =       2.648292 [THz] =      88.337504 [cm-1]
     freq (    3) =       7.156182 [THz] =     238.704547 [cm-1]
 **************************************************************************

     Mode symmetry, C_3v (3m)   point group:

     freq (  1 -  2) =         88.3  [cm-1]   --> E    L_3           
     freq (  3 -  3) =        238.7  [cm-1]   --> A_1  L_1           

     Calculation of q =   -0.3750000   0.3750000  -0.3750000
 
     G-vector sticks info
     --------------------
     sticks:   dense  smooth     PW     G-vecs:    dense   smooth      PW
     Sum        1069     547    199                23409     8363    1893
 


     bravais-lattice index     =            2
     lattice parameter (alat)  =       8.0861  a.u.
     unit-cell volume          =     132.1771 (a.u.)^3
     number of atoms/cell      =            1
     number of atomic types    =            1
     number of electrons       =         3.00
     number of Kohn-Sham states=            6
     kinetic-energy cutoff     =      60.0000  Ry
     charge density cutoff     =     480.0000  Ry
     Exchange-correlation      =  SLA  PW   PBX  PBC ( 1  4  3  4 0 0)

     celldm(1)=   8.086093  celldm(2)=   0.000000  celldm(3)=   0.000000
     celldm(4)=   0.000000  celldm(5)=   0.000000  celldm(6)=   0.000000

     crystal axes: (cart. coord. in units of alat)
               a(1) = (  -0.500000   0.000000   0.500000 )  
               a(2) = (   0.000000   0.500000   0.500000 )  
               a(3) = (  -0.500000   0.500000   0.000000 )  

     reciprocal axes: (cart. coord. in units 2 pi/alat)
               b(1) = ( -1.000000 -1.000000  1.000000 )  
               b(2) = (  1.000000  1.000000  1.000000 )  
               b(3) = ( -1.000000  1.000000 -1.000000 )  


     PseudoPot. # 1 for Li read from file:
     ../Li.pbe-s-gbrv14.UPF
     MD5 check sum: 7ca33c4f951f001da2db5c8738379802
     Pseudo is Ultrasoft, Zval =  3.0
     Generated by new atomic code, or converted to UPF format
     Using radial grid of  751 points,  5 beta functions with: 
                l(1) =   0
                l(2) =   0
                l(3) =   0
                l(4) =   1
                l(5) =   1
     Q(r) pseudized with 10 coefficients,  rinner =    1.150   1.150   1.150


     atomic species   valence    mass     pseudopotential
        Li             3.00     6.94100     Li( 1.00)

     48 Sym. Ops., with inversion, found



   Cartesian axes

     site n.     atom                  positions (alat units)
         1           Li  tau(   1) = (   0.0000000   0.0000000   0.0000000  )

     number of k points= 30856  Marzari-Vanderbilt smearing, width (Ry)=  0.0200

     Number of k-points >= 100: set verbosity='high' to print them.

     Dense  grid:    23409 G-vectors     FFT dimensions: (  40,  40,  40)

     Smooth grid:     8363 G-vectors     FFT dimensions: (  30,  30,  30)

     Largest allocated arrays     est. size (Mb)     dimensions
        Kohn-Sham Wavefunctions         0.10 Mb     (    1056,    6)
        NL pseudopotentials             0.15 Mb     (    1056,    9)
        Each V/rho on FFT grid          0.98 Mb     (   64000)
        Each G-vector array             0.18 Mb     (   23409)
        G-vector shells                 0.00 Mb     (     267)
     Largest temporary arrays     est. size (Mb)     dimensions
        Auxiliary wavefunctions         0.39 Mb     (    1056,   24)
        Each subspace H/S matrix        0.01 Mb     (      24,   24)
        Each <psi_i|beta_j> matrix      0.00 Mb     (       9,    6)

     The potential is recalculated from file :
     ./tmp/_ph0/li-fcc.save/charge-density.dat

     Starting wfc are    5 atomic +    1 random wfc

     Band Structure Calculation
     Davidson diagonalization with overlap

     ethr =  3.33E-10,  avg # of iterations = 15.4

     total cpu time spent up to now is       39.5 secs

     End of band structure calculation

     Number of k-points >= 100: set verbosity='high' to print the bands.

     the Fermi energy is     1.0451 ev

                                                                                

     bravais-lattice index     =            2
     lattice parameter (alat)  =       8.0861  a.u.
     unit-cell volume          =     132.1771 (a.u.)^3
     number of atoms/cell      =            1
     number of atomic types    =            1
     kinetic-energy cut-off    =      60.0000  Ry
     charge density cut-off    =     480.0000  Ry
     convergence threshold     =      1.0E-16
     beta                      =       0.7000
     number of iterations used =            4
     Exchange-correlation      =  SLA  PW   PBX  PBC ( 1  4  3  4 0 0)


     celldm(1)=    8.08609  celldm(2)=    0.00000  celldm(3)=    0.00000
     celldm(4)=    0.00000  celldm(5)=    0.00000  celldm(6)=    0.00000

     crystal axes: (cart. coord. in units of alat)
               a(1) = ( -0.5000  0.0000  0.5000 )  
               a(2) = (  0.0000  0.5000  0.5000 )  
               a(3) = ( -0.5000  0.5000  0.0000 )  

     reciprocal axes: (cart. coord. in units 2 pi/alat)
               b(1) = ( -1.0000 -1.0000  1.0000 )  
               b(2) = (  1.0000  1.0000  1.0000 )  
               b(3) = ( -1.0000  1.0000 -1.0000 )  


     Atoms inside the unit cell: 

     Cartesian axes

     site n.  atom      mass           positions (alat units)
        1     Li   6.9410   tau(    1) = (    0.00000    0.00000    0.00000  )

     Computing dynamical matrix for 
                    q = (  -0.3750000   0.3750000  -0.3750000 )
 
      6 Sym.Ops. (no q -> -q+G )


     G cutoff =  794.9851  (  23409 G-vectors)     FFT grid: ( 40, 40, 40)
     G cutoff =  397.4925  (   8363 G-vectors)  smooth grid: ( 30, 30, 30)

     number of k points= 30856  Marzari-Vanderbilt smearing, width (Ry)=  0.0200

     PseudoPot. # 1 for Li read from file:
     ../Li.pbe-s-gbrv14.UPF
     MD5 check sum: 7ca33c4f951f001da2db5c8738379802
     Pseudo is Ultrasoft, Zval =  3.0
     Generated by new atomic code, or converted to UPF format
     Using radial grid of  751 points,  5 beta functions with: 
                l(1) =   0
                l(2) =   0
                l(3) =   0
                l(4) =   1
                l(5) =   1
     Q(r) pseudized with 10 coefficients,  rinner =    1.150   1.150   1.150


     Mode symmetry, C_3v (3m)   point group:


     Atomic displacements:
     There are   2 irreducible representations

     Representation     1      1 modes -A_1  L_1  To be done

     Representation     2      2 modes -E    L_3  To be done



     Alpha used in Ewald sum =   2.8000
     PHONON       :  3m18.04s CPU     3m54.91s WALL



     Representation #  1 mode #   1

     Self-consistent Calculation

      iter #   1 total cpu time :   236.1 secs   av.it.:   6.4
      thresh= 1.000E-02 alpha_mix =  0.700 |ddv_scf|^2 =  6.605E-05

      iter #   2 total cpu time :   242.2 secs   av.it.:   8.5
      thresh= 8.127E-04 alpha_mix =  0.700 |ddv_scf|^2 =  2.483E-04

      iter #   3 total cpu time :   251.9 secs   av.it.:   7.0
      thresh= 1.576E-03 alpha_mix =  0.700 |ddv_scf|^2 =  5.995E-08

      iter #   4 total cpu time :   260.5 secs   av.it.:   8.7
      thresh= 2.449E-05 alpha_mix =  0.700 |ddv_scf|^2 =  3.290E-09

      iter #   5 total cpu time :   265.6 secs   av.it.:   8.8
      thresh= 5.735E-06 alpha_mix =  0.700 |ddv_scf|^2 =  3.883E-12

      iter #   6 total cpu time :   268.0 secs   av.it.:   9.1
      thresh= 1.970E-07 alpha_mix =  0.700 |ddv_scf|^2 =  2.226E-13

      iter #   7 total cpu time :   269.7 secs   av.it.:   9.0
      thresh= 4.718E-08 alpha_mix =  0.700 |ddv_scf|^2 =  1.118E-15

      iter #   8 total cpu time :   271.2 secs   av.it.:   9.5
      thresh= 3.344E-09 alpha_mix =  0.700 |ddv_scf|^2 =  7.506E-16

      iter #   9 total cpu time :   273.1 secs   av.it.:   8.5
      thresh= 2.740E-09 alpha_mix =  0.700 |ddv_scf|^2 =  1.383E-17

     End of self-consistent calculation

     Convergence has been achieved 


     Representation #  2 modes #   2  3

     Self-consistent Calculation

      iter #   1 total cpu time :   276.7 secs   av.it.:   5.5
      thresh= 1.000E-02 alpha_mix =  0.700 |ddv_scf|^2 =  2.684E-07

      iter #   2 total cpu time :   279.4 secs   av.it.:   9.5
      thresh= 5.181E-05 alpha_mix =  0.700 |ddv_scf|^2 =  1.627E-08

      iter #   3 total cpu time :   283.8 secs   av.it.:   9.7
      thresh= 1.276E-05 alpha_mix =  0.700 |ddv_scf|^2 =  1.526E-10

      iter #   4 total cpu time :   294.7 secs   av.it.:   9.1
      thresh= 1.235E-06 alpha_mix =  0.700 |ddv_scf|^2 =  2.517E-13

      iter #   5 total cpu time :   298.1 secs   av.it.:   9.2
      thresh= 5.017E-08 alpha_mix =  0.700 |ddv_scf|^2 =  4.314E-15

      iter #   6 total cpu time :   308.6 secs   av.it.:   8.1
      thresh= 6.568E-09 alpha_mix =  0.700 |ddv_scf|^2 =  1.478E-18

     End of self-consistent calculation

     Convergence has been achieved 
 
     Number of q in the star =    8
     List of q in the star:
          1  -0.375000000   0.375000000  -0.375000000
          2   0.375000000  -0.375000000  -0.375000000
          3   0.375000000  -0.375000000   0.375000000
          4  -0.375000000   0.375000000   0.375000000
          5   0.375000000   0.375000000  -0.375000000
          6  -0.375000000  -0.375000000  -0.375000000
          7  -0.375000000  -0.375000000   0.375000000
          8   0.375000000   0.375000000   0.375000000

     Diagonalizing the dynamical matrix

     q = (   -0.375000000   0.375000000  -0.375000000 ) 

 **************************************************************************
     freq (    1) =       3.532002 [THz] =     117.814894 [cm-1]
     freq (    2) =       3.532002 [THz] =     117.814894 [cm-1]
     freq (    3) =       9.240199 [THz] =     308.219860 [cm-1]
 **************************************************************************

     Mode symmetry, C_3v (3m)   point group:

     freq (  1 -  2) =        117.8  [cm-1]   --> E    L_3           
     freq (  3 -  3) =        308.2  [cm-1]   --> A_1  L_1           

     Calculation of q =    0.5000000  -0.5000000   0.5000000
 
     G-vector sticks info
     --------------------
     sticks:   dense  smooth     PW     G-vecs:    dense   smooth      PW
     Sum        1069     547    211                23409     8363    1989
 


     bravais-lattice index     =            2
     lattice parameter (alat)  =       8.0861  a.u.
     unit-cell volume          =     132.1771 (a.u.)^3
     number of atoms/cell      =            1
     number of atomic types    =            1
     number of electrons       =         3.00
     number of Kohn-Sham states=            6
     kinetic-energy cutoff     =      60.0000  Ry
     charge density cutoff     =     480.0000  Ry
     Exchange-correlation      =  SLA  PW   PBX  PBC ( 1  4  3  4 0 0)

     celldm(1)=   8.086093  celldm(2)=   0.000000  celldm(3)=   0.000000
     celldm(4)=   0.000000  celldm(5)=   0.000000  celldm(6)=   0.000000

     crystal axes: (cart. coord. in units of alat)
               a(1) = (  -0.500000   0.000000   0.500000 )  
               a(2) = (   0.000000   0.500000   0.500000 )  
               a(3) = (  -0.500000   0.500000   0.000000 )  

     reciprocal axes: (cart. coord. in units 2 pi/alat)
               b(1) = ( -1.000000 -1.000000  1.000000 )  
               b(2) = (  1.000000  1.000000  1.000000 )  
               b(3) = ( -1.000000  1.000000 -1.000000 )  


     PseudoPot. # 1 for Li read from file:
     ../Li.pbe-s-gbrv14.UPF
     MD5 check sum: 7ca33c4f951f001da2db5c8738379802
     Pseudo is Ultrasoft, Zval =  3.0
     Generated by new atomic code, or converted to UPF format
     Using radial grid of  751 points,  5 beta functions with: 
                l(1) =   0
                l(2) =   0
                l(3) =   0
                l(4) =   1
                l(5) =   1
     Q(r) pseudized with 10 coefficients,  rinner =    1.150   1.150   1.150


     atomic species   valence    mass     pseudopotential
        Li             3.00     6.94100     Li( 1.00)

     48 Sym. Ops., with inversion, found



   Cartesian axes

     site n.     atom                  positions (alat units)
         1           Li  tau(   1) = (   0.0000000   0.0000000   0.0000000  )

     number of k points= 15428  Marzari-Vanderbilt smearing, width (Ry)=  0.0200

     Number of k-points >= 100: set verbosity='high' to print them.

     Dense  grid:    23409 G-vectors     FFT dimensions: (  40,  40,  40)

     Smooth grid:     8363 G-vectors     FFT dimensions: (  30,  30,  30)

     Largest allocated arrays     est. size (Mb)     dimensions
        Kohn-Sham Wavefunctions         0.10 Mb     (    1056,    6)
        NL pseudopotentials             0.15 Mb     (    1056,    9)
        Each V/rho on FFT grid          0.98 Mb     (   64000)
        Each G-vector array             0.18 Mb     (   23409)
        G-vector shells                 0.00 Mb     (     267)
     Largest temporary arrays     est. size (Mb)     dimensions
        Auxiliary wavefunctions         0.39 Mb     (    1056,   24)
        Each subspace H/S matrix        0.01 Mb     (      24,   24)
        Each <psi_i|beta_j> matrix      0.00 Mb     (       9,    6)

     The potential is recalculated from file :
     ./tmp/_ph0/li-fcc.save/charge-density.dat

     Starting wfc are    5 atomic +    1 random wfc

     Band Structure Calculation
     Davidson diagonalization with overlap

     ethr =  3.33E-10,  avg # of iterations = 15.4

     total cpu time spent up to now is       47.8 secs

     End of band structure calculation

     Number of k-points >= 100: set verbosity='high' to print the bands.

     the Fermi energy is     1.0451 ev

                                                                                

     bravais-lattice index     =            2
     lattice parameter (alat)  =       8.0861  a.u.
     unit-cell volume          =     132.1771 (a.u.)^3
     number of atoms/cell      =            1
     number of atomic types    =            1
     kinetic-energy cut-off    =      60.0000  Ry
     charge density cut-off    =     480.0000  Ry
     convergence threshold     =      1.0E-16
     beta                      =       0.7000
     number of iterations used =            4
     Exchange-correlation      =  SLA  PW   PBX  PBC ( 1  4  3  4 0 0)


     celldm(1)=    8.08609  celldm(2)=    0.00000  celldm(3)=    0.00000
     celldm(4)=    0.00000  celldm(5)=    0.00000  celldm(6)=    0.00000

     crystal axes: (cart. coord. in units of alat)
               a(1) = ( -0.5000  0.0000  0.5000 )  
               a(2) = (  0.0000  0.5000  0.5000 )  
               a(3) = ( -0.5000  0.5000  0.0000 )  

     reciprocal axes: (cart. coord. in units 2 pi/alat)
               b(1) = ( -1.0000 -1.0000  1.0000 )  
               b(2) = (  1.0000  1.0000  1.0000 )  
               b(3) = ( -1.0000  1.0000 -1.0000 )  


     Atoms inside the unit cell: 

     Cartesian axes

     site n.  atom      mass           positions (alat units)
        1     Li   6.9410   tau(    1) = (    0.00000    0.00000    0.00000  )

     Computing dynamical matrix for 
                    q = (   0.5000000  -0.5000000   0.5000000 )
 
     13 Sym.Ops. (with q -> -q+G )


     G cutoff =  794.9851  (  23409 G-vectors)     FFT grid: ( 40, 40, 40)
     G cutoff =  397.4925  (   8363 G-vectors)  smooth grid: ( 30, 30, 30)

     number of k points= 15428  Marzari-Vanderbilt smearing, width (Ry)=  0.0200

     PseudoPot. # 1 for Li read from file:
     ../Li.pbe-s-gbrv14.UPF
     MD5 check sum: 7ca33c4f951f001da2db5c8738379802
     Pseudo is Ultrasoft, Zval =  3.0
     Generated by new atomic code, or converted to UPF format
     Using radial grid of  751 points,  5 beta functions with: 
                l(1) =   0
                l(2) =   0
                l(3) =   0
                l(4) =   1
                l(5) =   1
     Q(r) pseudized with 10 coefficients,  rinner =    1.150   1.150   1.150


     Mode symmetry, D_3d (-3m)  point group:


     Atomic displacements:
     There are   2 irreducible representations

     Representation     1      1 modes -A_2u L_2'  To be done

     Representation     2      2 modes -E_u  L_3'  To be done



     Alpha used in Ewald sum =   2.8000
     PHONON       :  4m40.03s CPU     5m26.26s WALL



     Representation #  1 mode #   1

     Self-consistent Calculation

      iter #   1 total cpu time :   327.0 secs   av.it.:   6.3
      thresh= 1.000E-02 alpha_mix =  0.700 |ddv_scf|^2 =  1.736E-05

      iter #   2 total cpu time :   330.3 secs   av.it.:   8.7
      thresh= 4.166E-04 alpha_mix =  0.700 |ddv_scf|^2 =  7.587E-06

      iter #   3 total cpu time :   333.2 secs   av.it.:   7.9
      thresh= 2.755E-04 alpha_mix =  0.700 |ddv_scf|^2 =  2.010E-08

      iter #   4 total cpu time :   338.8 secs   av.it.:   8.8
      thresh= 1.418E-05 alpha_mix =  0.700 |ddv_scf|^2 =  1.196E-11

      iter #   5 total cpu time :   340.5 secs   av.it.:   8.3
      thresh= 3.459E-07 alpha_mix =  0.700 |ddv_scf|^2 =  7.423E-13

      iter #   6 total cpu time :   344.2 secs   av.it.:   8.3
      thresh= 8.616E-08 alpha_mix =  0.700 |ddv_scf|^2 =  3.345E-15

      iter #   7 total cpu time :   354.7 secs   av.it.:   8.9
      thresh= 5.783E-09 alpha_mix =  0.700 |ddv_scf|^2 =  2.566E-18

     End of self-consistent calculation

     Convergence has been achieved 


     Representation #  2 modes #   2  3

     Self-consistent Calculation

      iter #   1 total cpu time :   370.1 secs   av.it.:   5.4
      thresh= 1.000E-02 alpha_mix =  0.700 |ddv_scf|^2 =  2.705E-07

      iter #   2 total cpu time :   383.1 secs   av.it.:   9.3
      thresh= 5.201E-05 alpha_mix =  0.700 |ddv_scf|^2 =  1.634E-08

      iter #   3 total cpu time :   393.2 secs   av.it.:   9.6
      thresh= 1.278E-05 alpha_mix =  0.700 |ddv_scf|^2 =  1.570E-10

      iter #   4 total cpu time :   394.9 secs   av.it.:   8.9
      thresh= 1.253E-06 alpha_mix =  0.700 |ddv_scf|^2 =  2.531E-13

      iter #   5 total cpu time :   398.2 secs   av.it.:   9.0
      thresh= 5.031E-08 alpha_mix =  0.700 |ddv_scf|^2 =  4.691E-15

      iter #   6 total cpu time :   399.6 secs   av.it.:   7.8
      thresh= 6.849E-09 alpha_mix =  0.700 |ddv_scf|^2 =  1.001E-18

     End of self-consistent calculation

     Convergence has been achieved 
 
     Number of q in the star =    4
     List of q in the star:
          1   0.500000000  -0.500000000   0.500000000
          2   0.500000000   0.500000000   0.500000000
          3  -0.500000000   0.500000000   0.500000000
          4   0.500000000   0.500000000  -0.500000000

     Diagonalizing the dynamical matrix

     q = (    0.500000000  -0.500000000   0.500000000 ) 

 **************************************************************************
     freq (    1) =       3.865815 [THz] =     128.949713 [cm-1]
     freq (    2) =       3.865815 [THz] =     128.949713 [cm-1]
     freq (    3) =       9.916648 [THz] =     330.783772 [cm-1]
 **************************************************************************

     Mode symmetry, D_3d (-3m)  point group:

     freq (  1 -  2) =        128.9  [cm-1]   --> E_u  L_3'          
     freq (  3 -  3) =        330.8  [cm-1]   --> A_2u L_2'          

     Calculation of q =    0.0000000   0.2500000   0.0000000
 
     G-vector sticks info
     --------------------
     sticks:   dense  smooth     PW     G-vecs:    dense   smooth      PW
     Sum        1069     547    199                23409     8363    1759
 


     bravais-lattice index     =            2
     lattice parameter (alat)  =       8.0861  a.u.
     unit-cell volume          =     132.1771 (a.u.)^3
     number of atoms/cell      =            1
     number of atomic types    =            1
     number of electrons       =         3.00
     number of Kohn-Sham states=            6
     kinetic-energy cutoff     =      60.0000  Ry
     charge density cutoff     =     480.0000  Ry
     Exchange-correlation      =  SLA  PW   PBX  PBC ( 1  4  3  4 0 0)

     celldm(1)=   8.086093  celldm(2)=   0.000000  celldm(3)=   0.000000
     celldm(4)=   0.000000  celldm(5)=   0.000000  celldm(6)=   0.000000

     crystal axes: (cart. coord. in units of alat)
               a(1) = (  -0.500000   0.000000   0.500000 )  
               a(2) = (   0.000000   0.500000   0.500000 )  
               a(3) = (  -0.500000   0.500000   0.000000 )  

     reciprocal axes: (cart. coord. in units 2 pi/alat)
               b(1) = ( -1.000000 -1.000000  1.000000 )  
               b(2) = (  1.000000  1.000000  1.000000 )  
               b(3) = ( -1.000000  1.000000 -1.000000 )  


     PseudoPot. # 1 for Li read from file:
     ../Li.pbe-s-gbrv14.UPF
     MD5 check sum: 7ca33c4f951f001da2db5c8738379802
     Pseudo is Ultrasoft, Zval =  3.0
     Generated by new atomic code, or converted to UPF format
     Using radial grid of  751 points,  5 beta functions with: 
                l(1) =   0
                l(2) =   0
                l(3) =   0
                l(4) =   1
                l(5) =   1
     Q(r) pseudized with 10 coefficients,  rinner =    1.150   1.150   1.150


     atomic species   valence    mass     pseudopotential
        Li             3.00     6.94100     Li( 1.00)

     48 Sym. Ops., with inversion, found



   Cartesian axes

     site n.     atom                  positions (alat units)
         1           Li  tau(   1) = (   0.0000000   0.0000000   0.0000000  )

     number of k points= 22736  Marzari-Vanderbilt smearing, width (Ry)=  0.0200

     Number of k-points >= 100: set verbosity='high' to print them.

     Dense  grid:    23409 G-vectors     FFT dimensions: (  40,  40,  40)

     Smooth grid:     8363 G-vectors     FFT dimensions: (  30,  30,  30)

     Largest allocated arrays     est. size (Mb)     dimensions
        Kohn-Sham Wavefunctions         0.10 Mb     (    1056,    6)
        NL pseudopotentials             0.15 Mb     (    1056,    9)
        Each V/rho on FFT grid          0.98 Mb     (   64000)
        Each G-vector array             0.18 Mb     (   23409)
        G-vector shells                 0.00 Mb     (     267)
     Largest temporary arrays     est. size (Mb)     dimensions
        Auxiliary wavefunctions         0.39 Mb     (    1056,   24)
        Each subspace H/S matrix        0.01 Mb     (      24,   24)
        Each <psi_i|beta_j> matrix      0.00 Mb     (       9,    6)

     The potential is recalculated from file :
     ./tmp/_ph0/li-fcc.save/charge-density.dat

     Starting wfc are    5 atomic +    1 random wfc

     Band Structure Calculation
     Davidson diagonalization with overlap

     ethr =  3.33E-10,  avg # of iterations = 15.4

     total cpu time spent up to now is       59.1 secs

     End of band structure calculation

     Number of k-points >= 100: set verbosity='high' to print the bands.

     the Fermi energy is     1.0451 ev

                                                                                

     bravais-lattice index     =            2
     lattice parameter (alat)  =       8.0861  a.u.
     unit-cell volume          =     132.1771 (a.u.)^3
     number of atoms/cell      =            1
     number of atomic types    =            1
     kinetic-energy cut-off    =      60.0000  Ry
     charge density cut-off    =     480.0000  Ry
     convergence threshold     =      1.0E-16
     beta                      =       0.7000
     number of iterations used =            4
     Exchange-correlation      =  SLA  PW   PBX  PBC ( 1  4  3  4 0 0)


     celldm(1)=    8.08609  celldm(2)=    0.00000  celldm(3)=    0.00000
     celldm(4)=    0.00000  celldm(5)=    0.00000  celldm(6)=    0.00000

     crystal axes: (cart. coord. in units of alat)
               a(1) = ( -0.5000  0.0000  0.5000 )  
               a(2) = (  0.0000  0.5000  0.5000 )  
               a(3) = ( -0.5000  0.5000  0.0000 )  

     reciprocal axes: (cart. coord. in units 2 pi/alat)
               b(1) = ( -1.0000 -1.0000  1.0000 )  
               b(2) = (  1.0000  1.0000  1.0000 )  
               b(3) = ( -1.0000  1.0000 -1.0000 )  


     Atoms inside the unit cell: 

     Cartesian axes

     site n.  atom      mass           positions (alat units)
        1     Li   6.9410   tau(    1) = (    0.00000    0.00000    0.00000  )

     Computing dynamical matrix for 
                    q = (   0.0000000   0.2500000   0.0000000 )
 
      8 Sym.Ops. (no q -> -q+G )


     G cutoff =  794.9851  (  23409 G-vectors)     FFT grid: ( 40, 40, 40)
     G cutoff =  397.4925  (   8363 G-vectors)  smooth grid: ( 30, 30, 30)

     number of k points= 22736  Marzari-Vanderbilt smearing, width (Ry)=  0.0200

     PseudoPot. # 1 for Li read from file:
     ../Li.pbe-s-gbrv14.UPF
     MD5 check sum: 7ca33c4f951f001da2db5c8738379802
     Pseudo is Ultrasoft, Zval =  3.0
     Generated by new atomic code, or converted to UPF format
     Using radial grid of  751 points,  5 beta functions with: 
                l(1) =   0
                l(2) =   0
                l(3) =   0
                l(4) =   1
                l(5) =   1
     Q(r) pseudized with 10 coefficients,  rinner =    1.150   1.150   1.150


     Mode symmetry, C_4v (4mm)  point group:


     Atomic displacements:
     There are   2 irreducible representations

     Representation     1      1 modes -A_1  G_1 D_1  To be done

     Representation     2      2 modes -E    G_5 D_5  To be done



     Alpha used in Ewald sum =   2.8000
     PHONON       :  5m44.59s CPU     6m49.63s WALL



     Representation #  1 mode #   1

     Self-consistent Calculation

      iter #   1 total cpu time :   410.6 secs   av.it.:   6.4
      thresh= 1.000E-02 alpha_mix =  0.700 |ddv_scf|^2 =  3.493E-02

      iter #   2 total cpu time :   412.3 secs   av.it.:   7.7
      thresh= 1.000E-02 alpha_mix =  0.700 |ddv_scf|^2 =  1.697E+01

      iter #   3 total cpu time :   414.7 secs   av.it.:   7.7
      thresh= 1.000E-02 alpha_mix =  0.700 |ddv_scf|^2 =  6.808E-05

      iter #   4 total cpu time :   416.8 secs   av.it.:   6.2
      thresh= 8.251E-04 alpha_mix =  0.700 |ddv_scf|^2 =  3.107E-08

      iter #   5 total cpu time :   417.8 secs   av.it.:   8.5
      thresh= 1.763E-05 alpha_mix =  0.700 |ddv_scf|^2 =  1.418E-10

      iter #   6 total cpu time :   418.8 secs   av.it.:   8.4
      thresh= 1.191E-06 alpha_mix =  0.700 |ddv_scf|^2 =  4.380E-10

      iter #   7 total cpu time :   420.3 secs   av.it.:   5.2
      thresh= 2.093E-06 alpha_mix =  0.700 |ddv_scf|^2 =  5.868E-10

      iter #   8 total cpu time :   421.2 secs   av.it.:   6.2
      thresh= 2.422E-06 alpha_mix =  0.700 |ddv_scf|^2 =  6.203E-14

      iter #   9 total cpu time :   422.1 secs   av.it.:   8.3
      thresh= 2.491E-08 alpha_mix =  0.700 |ddv_scf|^2 =  1.207E-14

      iter #  10 total cpu time :   427.0 secs   av.it.:   7.2
      thresh= 1.099E-08 alpha_mix =  0.700 |ddv_scf|^2 =  1.120E-14

      iter #  11 total cpu time :   431.2 secs   av.it.:   6.1
      thresh= 1.059E-08 alpha_mix =  0.700 |ddv_scf|^2 =  5.939E-19

     End of self-consistent calculation

     Convergence has been achieved 


     Representation #  2 modes #   2  3

     Self-consistent Calculation

      iter #   1 total cpu time :   434.8 secs   av.it.:   5.4
      thresh= 1.000E-02 alpha_mix =  0.700 |ddv_scf|^2 =  2.648E-07

      iter #   2 total cpu time :   436.8 secs   av.it.:   9.3
      thresh= 5.146E-05 alpha_mix =  0.700 |ddv_scf|^2 =  1.604E-08

      iter #   3 total cpu time :   440.0 secs   av.it.:   9.5
      thresh= 1.267E-05 alpha_mix =  0.700 |ddv_scf|^2 =  1.540E-10

      iter #   4 total cpu time :   443.0 secs   av.it.:   8.9
      thresh= 1.241E-06 alpha_mix =  0.700 |ddv_scf|^2 =  2.321E-13

      iter #   5 total cpu time :   445.7 secs   av.it.:   8.9
      thresh= 4.818E-08 alpha_mix =  0.700 |ddv_scf|^2 =  4.194E-15

      iter #   6 total cpu time :   448.1 secs   av.it.:   8.2
      thresh= 6.476E-09 alpha_mix =  0.700 |ddv_scf|^2 =  2.706E-18

     End of self-consistent calculation

     Convergence has been achieved 
 
     Number of q in the star =    6
     List of q in the star:
          1   0.000000000   0.250000000   0.000000000
          2   0.000000000  -0.250000000   0.000000000
          3   0.250000000   0.000000000   0.000000000
          4   0.000000000   0.000000000   0.250000000
          5   0.000000000   0.000000000  -0.250000000
          6  -0.250000000   0.000000000   0.000000000

     Diagonalizing the dynamical matrix

     q = (    0.000000000   0.250000000   0.000000000 ) 

 **************************************************************************
     freq (    1) =       2.473816 [THz] =      82.517618 [cm-1]
     freq (    2) =       2.473816 [THz] =      82.517618 [cm-1]
     freq (    3) =       3.224052 [THz] =     107.542784 [cm-1]
 **************************************************************************

     Mode symmetry, C_4v (4mm)  point group:

     freq (  1 -  2) =         82.5  [cm-1]   --> E    G_5 D_5       
     freq (  3 -  3) =        107.5  [cm-1]   --> A_1  G_1 D_1       

     Calculation of q =   -0.1250000   0.3750000  -0.1250000
 
     G-vector sticks info
     --------------------
     sticks:   dense  smooth     PW     G-vecs:    dense   smooth      PW
     Sum        1069     547    199                23409     8363    1807
 


     bravais-lattice index     =            2
     lattice parameter (alat)  =       8.0861  a.u.
     unit-cell volume          =     132.1771 (a.u.)^3
     number of atoms/cell      =            1
     number of atomic types    =            1
     number of electrons       =         3.00
     number of Kohn-Sham states=            6
     kinetic-energy cutoff     =      60.0000  Ry
     charge density cutoff     =     480.0000  Ry
     Exchange-correlation      =  SLA  PW   PBX  PBC ( 1  4  3  4 0 0)

     celldm(1)=   8.086093  celldm(2)=   0.000000  celldm(3)=   0.000000
     celldm(4)=   0.000000  celldm(5)=   0.000000  celldm(6)=   0.000000

     crystal axes: (cart. coord. in units of alat)
               a(1) = (  -0.500000   0.000000   0.500000 )  
               a(2) = (   0.000000   0.500000   0.500000 )  
               a(3) = (  -0.500000   0.500000   0.000000 )  

     reciprocal axes: (cart. coord. in units 2 pi/alat)
               b(1) = ( -1.000000 -1.000000  1.000000 )  
               b(2) = (  1.000000  1.000000  1.000000 )  
               b(3) = ( -1.000000  1.000000 -1.000000 )  


     PseudoPot. # 1 for Li read from file:
     ../Li.pbe-s-gbrv14.UPF
     MD5 check sum: 7ca33c4f951f001da2db5c8738379802
     Pseudo is Ultrasoft, Zval =  3.0
     Generated by new atomic code, or converted to UPF format
     Using radial grid of  751 points,  5 beta functions with: 
                l(1) =   0
                l(2) =   0
                l(3) =   0
                l(4) =   1
                l(5) =   1
     Q(r) pseudized with 10 coefficients,  rinner =    1.150   1.150   1.150


     atomic species   valence    mass     pseudopotential
        Li             3.00     6.94100     Li( 1.00)

     48 Sym. Ops., with inversion, found



   Cartesian axes

     site n.     atom                  positions (alat units)
         1           Li  tau(   1) = (   0.0000000   0.0000000   0.0000000  )

     number of k points= 89376  Marzari-Vanderbilt smearing, width (Ry)=  0.0200

     Number of k-points >= 100: set verbosity='high' to print them.

     Dense  grid:    23409 G-vectors     FFT dimensions: (  40,  40,  40)

     Smooth grid:     8363 G-vectors     FFT dimensions: (  30,  30,  30)

     Largest allocated arrays     est. size (Mb)     dimensions
        Kohn-Sham Wavefunctions         0.10 Mb     (    1056,    6)
        NL pseudopotentials             0.15 Mb     (    1056,    9)
        Each V/rho on FFT grid          0.98 Mb     (   64000)
        Each G-vector array             0.18 Mb     (   23409)
        G-vector shells                 0.00 Mb     (     267)
     Largest temporary arrays     est. size (Mb)     dimensions
        Auxiliary wavefunctions         0.39 Mb     (    1056,   24)
        Each subspace H/S matrix        0.01 Mb     (      24,   24)
        Each <psi_i|beta_j> matrix      0.00 Mb     (       9,    6)

     The potential is recalculated from file :
     ./tmp/_ph0/li-fcc.save/charge-density.dat

     Starting wfc are    5 atomic +    1 random wfc

     Band Structure Calculation
     Davidson diagonalization with overlap

     ethr =  3.33E-10,  avg # of iterations = 15.4

     total cpu time spent up to now is       88.2 secs

     End of band structure calculation

     Number of k-points >= 100: set verbosity='high' to print the bands.

     the Fermi energy is     1.0451 ev

                                                                                

     bravais-lattice index     =            2
     lattice parameter (alat)  =       8.0861  a.u.
     unit-cell volume          =     132.1771 (a.u.)^3
     number of atoms/cell      =            1
     number of atomic types    =            1
     kinetic-energy cut-off    =      60.0000  Ry
     charge density cut-off    =     480.0000  Ry
     convergence threshold     =      1.0E-16
     beta                      =       0.7000
     number of iterations used =            4
     Exchange-correlation      =  SLA  PW   PBX  PBC ( 1  4  3  4 0 0)


     celldm(1)=    8.08609  celldm(2)=    0.00000  celldm(3)=    0.00000
     celldm(4)=    0.00000  celldm(5)=    0.00000  celldm(6)=    0.00000

     crystal axes: (cart. coord. in units of alat)
               a(1) = ( -0.5000  0.0000  0.5000 )  
               a(2) = (  0.0000  0.5000  0.5000 )  
               a(3) = ( -0.5000  0.5000  0.0000 )  

     reciprocal axes: (cart. coord. in units 2 pi/alat)
               b(1) = ( -1.0000 -1.0000  1.0000 )  
               b(2) = (  1.0000  1.0000  1.0000 )  
               b(3) = ( -1.0000  1.0000 -1.0000 )  


     Atoms inside the unit cell: 

     Cartesian axes

     site n.  atom      mass           positions (alat units)
        1     Li   6.9410   tau(    1) = (    0.00000    0.00000    0.00000  )

     Computing dynamical matrix for 
                    q = (  -0.1250000   0.3750000  -0.1250000 )
 
      2 Sym.Ops. (no q -> -q+G )


     G cutoff =  794.9851  (  23409 G-vectors)     FFT grid: ( 40, 40, 40)
     G cutoff =  397.4925  (   8363 G-vectors)  smooth grid: ( 30, 30, 30)

     number of k points= 89376  Marzari-Vanderbilt smearing, width (Ry)=  0.0200

     PseudoPot. # 1 for Li read from file:
     ../Li.pbe-s-gbrv14.UPF
     MD5 check sum: 7ca33c4f951f001da2db5c8738379802
     Pseudo is Ultrasoft, Zval =  3.0
     Generated by new atomic code, or converted to UPF format
     Using radial grid of  751 points,  5 beta functions with: 
                l(1) =   0
                l(2) =   0
                l(3) =   0
                l(4) =   1
                l(5) =   1
     Q(r) pseudized with 10 coefficients,  rinner =    1.150   1.150   1.150


     Mode symmetry, C_s (m)     point group:


     Atomic displacements:
     There are   3 irreducible representations

     Representation     1      1 modes -A'  To be done

     Representation     2      1 modes -A'  To be done

     Representation     3      1 modes -A''  To be done



     Alpha used in Ewald sum =   2.8000
     PHONON       :  6m53.51s CPU     8m 3.32s WALL



     Representation #  1 mode #   1

     Self-consistent Calculation

      iter #   1 total cpu time :   486.7 secs   av.it.:   6.5
      thresh= 1.000E-02 alpha_mix =  0.700 |ddv_scf|^2 =  1.173E-03

      iter #   2 total cpu time :   491.1 secs   av.it.:   7.8
      thresh= 3.426E-03 alpha_mix =  0.700 |ddv_scf|^2 =  5.454E-02

      iter #   3 total cpu time :   496.5 secs   av.it.:   6.4
      thresh= 1.000E-02 alpha_mix =  0.700 |ddv_scf|^2 =  1.010E-07

      iter #   4 total cpu time :   508.0 secs   av.it.:   9.0
      thresh= 3.179E-05 alpha_mix =  0.700 |ddv_scf|^2 =  6.172E-09

      iter #   5 total cpu time :   521.3 secs   av.it.:   9.0
      thresh= 7.856E-06 alpha_mix =  0.700 |ddv_scf|^2 =  9.998E-11

      iter #   6 total cpu time :   534.0 secs   av.it.:   8.7
      thresh= 9.999E-07 alpha_mix =  0.700 |ddv_scf|^2 =  3.993E-11

      iter #   7 total cpu time :   546.6 secs   av.it.:   6.0
      thresh= 6.319E-07 alpha_mix =  0.700 |ddv_scf|^2 =  1.991E-12

      iter #   8 total cpu time :   554.3 secs   av.it.:   8.4
      thresh= 1.411E-07 alpha_mix =  0.700 |ddv_scf|^2 =  4.383E-14

      iter #   9 total cpu time :   559.9 secs   av.it.:   8.9
      thresh= 2.094E-08 alpha_mix =  0.700 |ddv_scf|^2 =  4.231E-14

      iter #  10 total cpu time :   563.9 secs   av.it.:   7.3
      thresh= 2.057E-08 alpha_mix =  0.700 |ddv_scf|^2 =  2.896E-16

      iter #  11 total cpu time :   568.2 secs   av.it.:   8.7
      thresh= 1.702E-09 alpha_mix =  0.700 |ddv_scf|^2 =  1.601E-18

     End of self-consistent calculation

     Convergence has been achieved 


     Representation #  2 mode #   2

     Self-consistent Calculation

      iter #   1 total cpu time :   571.7 secs   av.it.:   6.2
      thresh= 1.000E-02 alpha_mix =  0.700 |ddv_scf|^2 =  1.780E-04

      iter #   2 total cpu time :   575.7 secs   av.it.:   7.9
      thresh= 1.334E-03 alpha_mix =  0.700 |ddv_scf|^2 =  8.223E-03

      iter #   3 total cpu time :   579.0 secs   av.it.:   5.6
      thresh= 9.068E-03 alpha_mix =  0.700 |ddv_scf|^2 =  5.414E-08

      iter #   4 total cpu time :   582.9 secs   av.it.:   9.2
      thresh= 2.327E-05 alpha_mix =  0.700 |ddv_scf|^2 =  2.994E-09

      iter #   5 total cpu time :   588.2 secs   av.it.:   9.0
      thresh= 5.472E-06 alpha_mix =  0.700 |ddv_scf|^2 =  5.359E-11

      iter #   6 total cpu time :   592.0 secs   av.it.:   8.8
      thresh= 7.321E-07 alpha_mix =  0.700 |ddv_scf|^2 =  9.162E-12

      iter #   7 total cpu time :   595.2 secs   av.it.:   6.8
      thresh= 3.027E-07 alpha_mix =  0.700 |ddv_scf|^2 =  1.485E-11

      iter #   8 total cpu time :   598.4 secs   av.it.:   6.9
      thresh= 3.853E-07 alpha_mix =  0.700 |ddv_scf|^2 =  1.612E-12

      iter #   9 total cpu time :   601.5 secs   av.it.:   6.5
      thresh= 1.270E-07 alpha_mix =  0.700 |ddv_scf|^2 =  4.160E-13

      iter #  10 total cpu time :   604.8 secs   av.it.:   7.6
      thresh= 6.449E-08 alpha_mix =  0.700 |ddv_scf|^2 =  1.714E-16

      iter #  11 total cpu time :   617.1 secs   av.it.:   9.1
      thresh= 1.309E-09 alpha_mix =  0.700 |ddv_scf|^2 =  1.048E-17

     End of self-consistent calculation

     Convergence has been achieved 


     Representation #  3 mode #   3

     Self-consistent Calculation

      iter #   1 total cpu time :   627.3 secs   av.it.:   5.5
      thresh= 1.000E-02 alpha_mix =  0.700 |ddv_scf|^2 =  1.096E-06

      iter #   2 total cpu time :   630.8 secs   av.it.:   8.6
      thresh= 1.047E-04 alpha_mix =  0.700 |ddv_scf|^2 =  6.558E-08

      iter #   3 total cpu time :   636.6 secs   av.it.:   8.9
      thresh= 2.561E-05 alpha_mix =  0.700 |ddv_scf|^2 =  8.571E-10

      iter #   4 total cpu time :   643.3 secs   av.it.:   8.2
      thresh= 2.928E-06 alpha_mix =  0.700 |ddv_scf|^2 =  9.876E-13

      iter #   5 total cpu time :   646.5 secs   av.it.:   8.4
      thresh= 9.938E-08 alpha_mix =  0.700 |ddv_scf|^2 =  1.789E-14

      iter #   6 total cpu time :   650.4 secs   av.it.:   7.7
      thresh= 1.337E-08 alpha_mix =  0.700 |ddv_scf|^2 =  2.002E-17

     End of self-consistent calculation

     Convergence has been achieved 
 
     Number of q in the star =   24
     List of q in the star:
          1  -0.125000000   0.375000000  -0.125000000
          2  -0.125000000   0.375000000   0.125000000
          3   0.125000000   0.375000000  -0.125000000
          4   0.125000000   0.375000000   0.125000000
          5   0.125000000  -0.375000000   0.125000000
          6   0.375000000  -0.125000000   0.125000000
          7   0.125000000  -0.125000000   0.375000000
          8  -0.125000000  -0.375000000  -0.125000000
          9   0.125000000  -0.375000000  -0.125000000
         10  -0.125000000  -0.375000000   0.125000000
         11   0.125000000  -0.125000000  -0.375000000
         12   0.375000000  -0.125000000  -0.125000000
         13  -0.375000000  -0.125000000   0.125000000
         14   0.375000000   0.125000000   0.125000000
         15  -0.125000000  -0.125000000   0.375000000
         16   0.125000000   0.125000000   0.375000000
         17  -0.375000000   0.125000000  -0.125000000
         18  -0.125000000   0.125000000  -0.375000000
         19  -0.375000000  -0.125000000  -0.125000000
         20   0.125000000   0.125000000  -0.375000000
         21   0.375000000   0.125000000  -0.125000000
         22  -0.125000000  -0.125000000  -0.375000000
         23  -0.375000000   0.125000000   0.125000000
         24  -0.125000000   0.125000000   0.375000000

     Diagonalizing the dynamical matrix

     q = (   -0.125000000   0.375000000  -0.125000000 ) 

 **************************************************************************
     freq (    1) =       3.462795 [THz] =     115.506415 [cm-1]
     freq (    2) =       3.583950 [THz] =     119.547688 [cm-1]
     freq (    3) =       6.191402 [THz] =     206.522937 [cm-1]
 **************************************************************************

     Mode symmetry, C_s (m)     point group:

     freq (  1 -  1) =        115.5  [cm-1]   --> A'                 
     freq (  2 -  2) =        119.5  [cm-1]   --> A''                
     freq (  3 -  3) =        206.5  [cm-1]   --> A'                 

     Calculation of q =   -0.2500000   0.5000000  -0.2500000
 
     G-vector sticks info
     --------------------
     sticks:   dense  smooth     PW     G-vecs:    dense   smooth      PW
     Sum        1069     547    199                23409     8363    1917
 


     bravais-lattice index     =            2
     lattice parameter (alat)  =       8.0861  a.u.
     unit-cell volume          =     132.1771 (a.u.)^3
     number of atoms/cell      =            1
     number of atomic types    =            1
     number of electrons       =         3.00
     number of Kohn-Sham states=            6
     kinetic-energy cutoff     =      60.0000  Ry
     charge density cutoff     =     480.0000  Ry
     Exchange-correlation      =  SLA  PW   PBX  PBC ( 1  4  3  4 0 0)

     celldm(1)=   8.086093  celldm(2)=   0.000000  celldm(3)=   0.000000
     celldm(4)=   0.000000  celldm(5)=   0.000000  celldm(6)=   0.000000

     crystal axes: (cart. coord. in units of alat)
               a(1) = (  -0.500000   0.000000   0.500000 )  
               a(2) = (   0.000000   0.500000   0.500000 )  
               a(3) = (  -0.500000   0.500000   0.000000 )  

     reciprocal axes: (cart. coord. in units 2 pi/alat)
               b(1) = ( -1.000000 -1.000000  1.000000 )  
               b(2) = (  1.000000  1.000000  1.000000 )  
               b(3) = ( -1.000000  1.000000 -1.000000 )  


     PseudoPot. # 1 for Li read from file:
     ../Li.pbe-s-gbrv14.UPF
     MD5 check sum: 7ca33c4f951f001da2db5c8738379802
     Pseudo is Ultrasoft, Zval =  3.0
     Generated by new atomic code, or converted to UPF format
     Using radial grid of  751 points,  5 beta functions with: 
                l(1) =   0
                l(2) =   0
                l(3) =   0
                l(4) =   1
                l(5) =   1
     Q(r) pseudized with 10 coefficients,  rinner =    1.150   1.150   1.150


     atomic species   valence    mass     pseudopotential
        Li             3.00     6.94100     Li( 1.00)

     48 Sym. Ops., with inversion, found



   Cartesian axes

     site n.     atom                  positions (alat units)
         1           Li  tau(   1) = (   0.0000000   0.0000000   0.0000000  )

     number of k points= 89376  Marzari-Vanderbilt smearing, width (Ry)=  0.0200

     Number of k-points >= 100: set verbosity='high' to print them.

     Dense  grid:    23409 G-vectors     FFT dimensions: (  40,  40,  40)

     Smooth grid:     8363 G-vectors     FFT dimensions: (  30,  30,  30)

     Largest allocated arrays     est. size (Mb)     dimensions
        Kohn-Sham Wavefunctions         0.10 Mb     (    1056,    6)
        NL pseudopotentials             0.15 Mb     (    1056,    9)
        Each V/rho on FFT grid          0.98 Mb     (   64000)
        Each G-vector array             0.18 Mb     (   23409)
        G-vector shells                 0.00 Mb     (     267)
     Largest temporary arrays     est. size (Mb)     dimensions
        Auxiliary wavefunctions         0.39 Mb     (    1056,   24)
        Each subspace H/S matrix        0.01 Mb     (      24,   24)
        Each <psi_i|beta_j> matrix      0.00 Mb     (       9,    6)

     The potential is recalculated from file :
     ./tmp/_ph0/li-fcc.save/charge-density.dat

     Starting wfc are    5 atomic +    1 random wfc

     Band Structure Calculation
     Davidson diagonalization with overlap

     ethr =  3.33E-10,  avg # of iterations = 15.4

     total cpu time spent up to now is      118.7 secs

     End of band structure calculation

     Number of k-points >= 100: set verbosity='high' to print the bands.

     the Fermi energy is     1.0451 ev

                                                                                

     bravais-lattice index     =            2
     lattice parameter (alat)  =       8.0861  a.u.
     unit-cell volume          =     132.1771 (a.u.)^3
     number of atoms/cell      =            1
     number of atomic types    =            1
     kinetic-energy cut-off    =      60.0000  Ry
     charge density cut-off    =     480.0000  Ry
     convergence threshold     =      1.0E-16
     beta                      =       0.7000
     number of iterations used =            4
     Exchange-correlation      =  SLA  PW   PBX  PBC ( 1  4  3  4 0 0)


     celldm(1)=    8.08609  celldm(2)=    0.00000  celldm(3)=    0.00000
     celldm(4)=    0.00000  celldm(5)=    0.00000  celldm(6)=    0.00000

     crystal axes: (cart. coord. in units of alat)
               a(1) = ( -0.5000  0.0000  0.5000 )  
               a(2) = (  0.0000  0.5000  0.5000 )  
               a(3) = ( -0.5000  0.5000  0.0000 )  

     reciprocal axes: (cart. coord. in units 2 pi/alat)
               b(1) = ( -1.0000 -1.0000  1.0000 )  
               b(2) = (  1.0000  1.0000  1.0000 )  
               b(3) = ( -1.0000  1.0000 -1.0000 )  


     Atoms inside the unit cell: 

     Cartesian axes

     site n.  atom      mass           positions (alat units)
        1     Li   6.9410   tau(    1) = (    0.00000    0.00000    0.00000  )

     Computing dynamical matrix for 
                    q = (  -0.2500000   0.5000000  -0.2500000 )
 
      2 Sym.Ops. (no q -> -q+G )


     G cutoff =  794.9851  (  23409 G-vectors)     FFT grid: ( 40, 40, 40)
     G cutoff =  397.4925  (   8363 G-vectors)  smooth grid: ( 30, 30, 30)

     number of k points= 89376  Marzari-Vanderbilt smearing, width (Ry)=  0.0200

     PseudoPot. # 1 for Li read from file:
     ../Li.pbe-s-gbrv14.UPF
     MD5 check sum: 7ca33c4f951f001da2db5c8738379802
     Pseudo is Ultrasoft, Zval =  3.0
     Generated by new atomic code, or converted to UPF format
     Using radial grid of  751 points,  5 beta functions with: 
                l(1) =   0
                l(2) =   0
                l(3) =   0
                l(4) =   1
                l(5) =   1
     Q(r) pseudized with 10 coefficients,  rinner =    1.150   1.150   1.150


     Mode symmetry, C_s (m)     point group:


     Atomic displacements:
     There are   3 irreducible representations

     Representation     1      1 modes -A'  To be done

     Representation     2      1 modes -A'  To be done

     Representation     3      1 modes -A''  To be done



     Alpha used in Ewald sum =   2.8000
     PHONON       : 10m11.06s CPU    11m37.77s WALL



     Representation #  1 mode #   1

     Self-consistent Calculation

      iter #   1 total cpu time :   701.2 secs   av.it.:   6.5
      thresh= 1.000E-02 alpha_mix =  0.700 |ddv_scf|^2 =  8.083E-05

      iter #   2 total cpu time :   705.5 secs   av.it.:   8.3
      thresh= 8.991E-04 alpha_mix =  0.700 |ddv_scf|^2 =  4.656E-04

      iter #   3 total cpu time :   713.8 secs   av.it.:   6.9
      thresh= 2.158E-03 alpha_mix =  0.700 |ddv_scf|^2 =  5.354E-08

      iter #   4 total cpu time :   718.6 secs   av.it.:   9.0
      thresh= 2.314E-05 alpha_mix =  0.700 |ddv_scf|^2 =  1.347E-09

      iter #   5 total cpu time :   729.7 secs   av.it.:   9.1
      thresh= 3.670E-06 alpha_mix =  0.700 |ddv_scf|^2 =  2.090E-11

      iter #   6 total cpu time :   741.8 secs   av.it.:   8.9
      thresh= 4.571E-07 alpha_mix =  0.700 |ddv_scf|^2 =  1.477E-13

      iter #   7 total cpu time :   746.5 secs   av.it.:   9.1
      thresh= 3.843E-08 alpha_mix =  0.700 |ddv_scf|^2 =  3.461E-13

      iter #   8 total cpu time :   750.0 secs   av.it.:   7.0
      thresh= 5.883E-08 alpha_mix =  0.700 |ddv_scf|^2 =  5.952E-15

      iter #   9 total cpu time :   760.7 secs   av.it.:   9.0
      thresh= 7.715E-09 alpha_mix =  0.700 |ddv_scf|^2 =  2.375E-16

      iter #  10 total cpu time :   764.5 secs   av.it.:   8.2
      thresh= 1.541E-09 alpha_mix =  0.700 |ddv_scf|^2 =  1.740E-17

     End of self-consistent calculation

     Convergence has been achieved 


     Representation #  2 mode #   2

     Self-consistent Calculation

      iter #   1 total cpu time :   768.1 secs   av.it.:   6.3
      thresh= 1.000E-02 alpha_mix =  0.700 |ddv_scf|^2 =  2.132E-05

      iter #   2 total cpu time :   776.9 secs   av.it.:   8.7
      thresh= 4.618E-04 alpha_mix =  0.700 |ddv_scf|^2 =  1.150E-04

      iter #   3 total cpu time :   780.3 secs   av.it.:   6.9
      thresh= 1.072E-03 alpha_mix =  0.700 |ddv_scf|^2 =  5.333E-08

      iter #   4 total cpu time :   783.9 secs   av.it.:   9.0
      thresh= 2.309E-05 alpha_mix =  0.700 |ddv_scf|^2 =  1.785E-09

      iter #   5 total cpu time :   787.4 secs   av.it.:   8.9
      thresh= 4.225E-06 alpha_mix =  0.700 |ddv_scf|^2 =  1.958E-11

      iter #   6 total cpu time :   791.0 secs   av.it.:   9.1
      thresh= 4.425E-07 alpha_mix =  0.700 |ddv_scf|^2 =  2.660E-13

      iter #   7 total cpu time :   795.0 secs   av.it.:   9.1
      thresh= 5.158E-08 alpha_mix =  0.700 |ddv_scf|^2 =  1.159E-12

      iter #   8 total cpu time :   798.2 secs   av.it.:   7.0
      thresh= 1.076E-07 alpha_mix =  0.700 |ddv_scf|^2 =  9.749E-15

      iter #   9 total cpu time :   809.1 secs   av.it.:   9.0
      thresh= 9.874E-09 alpha_mix =  0.700 |ddv_scf|^2 =  1.350E-14

      iter #  10 total cpu time :   815.6 secs   av.it.:   7.8
      thresh= 1.162E-08 alpha_mix =  0.700 |ddv_scf|^2 =  1.397E-17

     End of self-consistent calculation

     Convergence has been achieved 


     Representation #  3 mode #   3

     Self-consistent Calculation

      iter #   1 total cpu time :   819.0 secs   av.it.:   5.6
      thresh= 1.000E-02 alpha_mix =  0.700 |ddv_scf|^2 =  1.119E-06

      iter #   2 total cpu time :   822.4 secs   av.it.:   8.6
      thresh= 1.058E-04 alpha_mix =  0.700 |ddv_scf|^2 =  6.667E-08

      iter #   3 total cpu time :   828.4 secs   av.it.:   8.9
      thresh= 2.582E-05 alpha_mix =  0.700 |ddv_scf|^2 =  1.002E-09

      iter #   4 total cpu time :   837.1 secs   av.it.:   8.2
      thresh= 3.166E-06 alpha_mix =  0.700 |ddv_scf|^2 =  1.086E-12

      iter #   5 total cpu time :   842.2 secs   av.it.:   8.4
      thresh= 1.042E-07 alpha_mix =  0.700 |ddv_scf|^2 =  1.865E-14

      iter #   6 total cpu time :   847.0 secs   av.it.:   7.8
      thresh= 1.366E-08 alpha_mix =  0.700 |ddv_scf|^2 =  2.585E-17

     End of self-consistent calculation

     Convergence has been achieved 
 
     Number of q in the star =   24
     List of q in the star:
          1  -0.250000000   0.500000000  -0.250000000
          2  -0.250000000   0.500000000   0.250000000
          3   0.250000000   0.500000000  -0.250000000
          4   0.250000000   0.500000000   0.250000000
          5   0.250000000  -0.500000000   0.250000000
[...]
      thresh= 1.336E-04 alpha_mix =  0.700 |ddv_scf|^2 =  1.072E-07

      iter #   3 total cpu time :  3989.3 secs   av.it.:   8.8
      thresh= 3.274E-05 alpha_mix =  0.700 |ddv_scf|^2 =  6.588E-09

      iter #   4 total cpu time :  3993.0 secs   av.it.:   8.9
      thresh= 8.116E-06 alpha_mix =  0.700 |ddv_scf|^2 =  2.039E-10

      iter #   5 total cpu time :  3996.2 secs   av.it.:   8.3
      thresh= 1.428E-06 alpha_mix =  0.700 |ddv_scf|^2 =  2.117E-12

      iter #   6 total cpu time :  4000.6 secs   av.it.:   9.4
      thresh= 1.455E-07 alpha_mix =  0.700 |ddv_scf|^2 =  3.407E-15

      iter #   7 total cpu time :  4006.9 secs   av.it.:   9.5
      thresh= 5.837E-09 alpha_mix =  0.700 |ddv_scf|^2 =  2.819E-16

      iter #   8 total cpu time :  4013.0 secs   av.it.:   9.4
      thresh= 1.679E-09 alpha_mix =  0.700 |ddv_scf|^2 =  5.560E-19

     End of self-consistent calculation

     Convergence has been achieved 


     Representation #  2 mode #   2

     Self-consistent Calculation

      iter #   1 total cpu time :  4024.4 secs   av.it.:   6.1
      thresh= 1.000E-02 alpha_mix =  0.700 |ddv_scf|^2 =  1.741E-06

      iter #   2 total cpu time :  4028.6 secs   av.it.:   8.9
      thresh= 1.320E-04 alpha_mix =  0.700 |ddv_scf|^2 =  7.024E-08

      iter #   3 total cpu time :  4037.1 secs   av.it.:   8.8
      thresh= 2.650E-05 alpha_mix =  0.700 |ddv_scf|^2 =  3.838E-09

      iter #   4 total cpu time :  4040.3 secs   av.it.:   8.6
      thresh= 6.195E-06 alpha_mix =  0.700 |ddv_scf|^2 =  1.246E-11

      iter #   5 total cpu time :  4042.9 secs   av.it.:   8.7
      thresh= 3.531E-07 alpha_mix =  0.700 |ddv_scf|^2 =  9.888E-15

      iter #   6 total cpu time :  4045.5 secs   av.it.:   7.9
      thresh= 9.944E-09 alpha_mix =  0.700 |ddv_scf|^2 =  6.302E-16

      iter #   7 total cpu time :  4047.9 secs   av.it.:   8.0
      thresh= 2.510E-09 alpha_mix =  0.700 |ddv_scf|^2 =  2.132E-19

     End of self-consistent calculation

     Convergence has been achieved 


     Representation #  3 mode #   3

     Self-consistent Calculation

      iter #   1 total cpu time :  4051.0 secs   av.it.:   6.4
      thresh= 1.000E-02 alpha_mix =  0.700 |ddv_scf|^2 =  5.650E-06

      iter #   2 total cpu time :  4052.8 secs   av.it.:   8.8
      thresh= 2.377E-04 alpha_mix =  0.700 |ddv_scf|^2 =  4.949E-07

      iter #   3 total cpu time :  4065.7 secs   av.it.:   8.0
      thresh= 7.035E-05 alpha_mix =  0.700 |ddv_scf|^2 =  1.242E-08

      iter #   4 total cpu time :  4067.4 secs   av.it.:   8.7
      thresh= 1.115E-05 alpha_mix =  0.700 |ddv_scf|^2 =  5.400E-12

      iter #   5 total cpu time :  4069.2 secs   av.it.:   8.9
      thresh= 2.324E-07 alpha_mix =  0.700 |ddv_scf|^2 =  8.132E-14

      iter #   6 total cpu time :  4072.0 secs   av.it.:   8.6
      thresh= 2.852E-08 alpha_mix =  0.700 |ddv_scf|^2 =  1.464E-15

      iter #   7 total cpu time :  4074.1 secs   av.it.:   8.5
      thresh= 3.826E-09 alpha_mix =  0.700 |ddv_scf|^2 =  2.142E-18

     End of self-consistent calculation

     Convergence has been achieved 
 
     Number of q in the star =   12
     List of q in the star:
          1  -0.250000000  -1.000000000   0.000000000
          2   0.000000000  -1.000000000   0.250000000
          3   0.000000000  -1.000000000  -0.250000000
          4   0.250000000  -1.000000000   0.000000000
          5  -1.000000000   0.000000000  -0.250000000
          6   1.000000000   0.000000000   0.250000000
          7  -1.000000000  -0.250000000   0.000000000
          8   0.000000000  -0.250000000  -1.000000000
          9   0.000000000   0.250000000  -1.000000000
         10   1.000000000   0.250000000   0.000000000
         11  -0.250000000   0.000000000   1.000000000
         12   0.250000000   0.000000000   1.000000000

     Diagonalizing the dynamical matrix

     q = (   -0.250000000  -1.000000000   0.000000000 ) 

 **************************************************************************
     freq (    1) =       7.054486 [THz] =     235.312331 [cm-1]
     freq (    2) =       8.201863 [THz] =     273.584704 [cm-1]
     freq (    3) =      10.390114 [THz] =     346.576883 [cm-1]
 **************************************************************************

     Mode symmetry, C_2v (mm2)  point group:

     freq (  1 -  1) =        235.3  [cm-1]   --> A_1  D_1  S_1      
     freq (  2 -  2) =        273.6  [cm-1]   --> B_1  D_3  S_3      
     freq (  3 -  3) =        346.6  [cm-1]   --> B_2  D_4  S_4      

     Calculation of q =   -0.5000000  -1.0000000   0.0000000
 
     G-vector sticks info
     --------------------
     sticks:   dense  smooth     PW     G-vecs:    dense   smooth      PW
     Sum        1069     547    211                23409     8363    2085
 


     bravais-lattice index     =            2
     lattice parameter (alat)  =       8.0861  a.u.
     unit-cell volume          =     132.1771 (a.u.)^3
     number of atoms/cell      =            1
     number of atomic types    =            1
     number of electrons       =         3.00
     number of Kohn-Sham states=            6
     kinetic-energy cutoff     =      60.0000  Ry
     charge density cutoff     =     480.0000  Ry
     Exchange-correlation      =  SLA  PW   PBX  PBC ( 1  4  3  4 0 0)

     celldm(1)=   8.086093  celldm(2)=   0.000000  celldm(3)=   0.000000
     celldm(4)=   0.000000  celldm(5)=   0.000000  celldm(6)=   0.000000

     crystal axes: (cart. coord. in units of alat)
               a(1) = (  -0.500000   0.000000   0.500000 )  
               a(2) = (   0.000000   0.500000   0.500000 )  
               a(3) = (  -0.500000   0.500000   0.000000 )  

     reciprocal axes: (cart. coord. in units 2 pi/alat)
               b(1) = ( -1.000000 -1.000000  1.000000 )  
               b(2) = (  1.000000  1.000000  1.000000 )  
               b(3) = ( -1.000000  1.000000 -1.000000 )  


     PseudoPot. # 1 for Li read from file:
     ../Li.pbe-s-gbrv14.UPF
     MD5 check sum: 7ca33c4f951f001da2db5c8738379802
     Pseudo is Ultrasoft, Zval =  3.0
     Generated by new atomic code, or converted to UPF format
     Using radial grid of  751 points,  5 beta functions with: 
                l(1) =   0
                l(2) =   0
                l(3) =   0
                l(4) =   1
                l(5) =   1
     Q(r) pseudized with 10 coefficients,  rinner =    1.150   1.150   1.150


     atomic species   valence    mass     pseudopotential
        Li             3.00     6.94100     Li( 1.00)

     48 Sym. Ops., with inversion, found



   Cartesian axes

     site n.     atom                  positions (alat units)
         1           Li  tau(   1) = (   0.0000000   0.0000000   0.0000000  )

     number of k points= 21952  Marzari-Vanderbilt smearing, width (Ry)=  0.0200

     Number of k-points >= 100: set verbosity='high' to print them.

     Dense  grid:    23409 G-vectors     FFT dimensions: (  40,  40,  40)

     Smooth grid:     8363 G-vectors     FFT dimensions: (  30,  30,  30)

     Largest allocated arrays     est. size (Mb)     dimensions
        Kohn-Sham Wavefunctions         0.10 Mb     (    1056,    6)
        NL pseudopotentials             0.15 Mb     (    1056,    9)
        Each V/rho on FFT grid          0.98 Mb     (   64000)
        Each G-vector array             0.18 Mb     (   23409)
        G-vector shells                 0.00 Mb     (     267)
     Largest temporary arrays     est. size (Mb)     dimensions
        Auxiliary wavefunctions         0.39 Mb     (    1056,   24)
        Each subspace H/S matrix        0.01 Mb     (      24,   24)
        Each <psi_i|beta_j> matrix      0.00 Mb     (       9,    6)

     The potential is recalculated from file :
     ./tmp/_ph0/li-fcc.save/charge-density.dat

     Starting wfc are    5 atomic +    1 random wfc

     Band Structure Calculation
     Davidson diagonalization with overlap

     ethr =  3.33E-10,  avg # of iterations = 15.4

     total cpu time spent up to now is      670.2 secs

     End of band structure calculation

     Number of k-points >= 100: set verbosity='high' to print the bands.

     the Fermi energy is     1.0451 ev

                                                                                

     bravais-lattice index     =            2
     lattice parameter (alat)  =       8.0861  a.u.
     unit-cell volume          =     132.1771 (a.u.)^3
     number of atoms/cell      =            1
     number of atomic types    =            1
     kinetic-energy cut-off    =      60.0000  Ry
     charge density cut-off    =     480.0000  Ry
     convergence threshold     =      1.0E-16
     beta                      =       0.7000
     number of iterations used =            4
     Exchange-correlation      =  SLA  PW   PBX  PBC ( 1  4  3  4 0 0)


     celldm(1)=    8.08609  celldm(2)=    0.00000  celldm(3)=    0.00000
     celldm(4)=    0.00000  celldm(5)=    0.00000  celldm(6)=    0.00000

     crystal axes: (cart. coord. in units of alat)
               a(1) = ( -0.5000  0.0000  0.5000 )  
               a(2) = (  0.0000  0.5000  0.5000 )  
               a(3) = ( -0.5000  0.5000  0.0000 )  

     reciprocal axes: (cart. coord. in units 2 pi/alat)
               b(1) = ( -1.0000 -1.0000  1.0000 )  
               b(2) = (  1.0000  1.0000  1.0000 )  
               b(3) = ( -1.0000  1.0000 -1.0000 )  


     Atoms inside the unit cell: 

     Cartesian axes

     site n.  atom      mass           positions (alat units)
        1     Li   6.9410   tau(    1) = (    0.00000    0.00000    0.00000  )

     Computing dynamical matrix for 
                    q = (  -0.5000000  -1.0000000   0.0000000 )
 
      8 Sym.Ops. (no q -> -q+G )


     G cutoff =  794.9851  (  23409 G-vectors)     FFT grid: ( 40, 40, 40)
     G cutoff =  397.4925  (   8363 G-vectors)  smooth grid: ( 30, 30, 30)

     number of k points= 21952  Marzari-Vanderbilt smearing, width (Ry)=  0.0200

     PseudoPot. # 1 for Li read from file:
     ../Li.pbe-s-gbrv14.UPF
     MD5 check sum: 7ca33c4f951f001da2db5c8738379802
     Pseudo is Ultrasoft, Zval =  3.0
     Generated by new atomic code, or converted to UPF format
     Using radial grid of  751 points,  5 beta functions with: 
                l(1) =   0
                l(2) =   0
                l(3) =   0
                l(4) =   1
                l(5) =   1
     Q(r) pseudized with 10 coefficients,  rinner =    1.150   1.150   1.150


     Mode symmetry, D_2d (-42m) point group:


     Atomic displacements:
     There are   2 irreducible representations

     Representation     1      1 modes -B_2  X_3  W_2  To be done

     Representation     2      2 modes -E    X_5  W_3  To be done



     Alpha used in Ewald sum =   2.8000
     PHONON       :     1h 1m CPU        1h 8m WALL



     Representation #  1 mode #   1

     Self-consistent Calculation

      iter #   1 total cpu time :  4089.8 secs   av.it.:   6.1
      thresh= 1.000E-02 alpha_mix =  0.700 |ddv_scf|^2 =  2.134E-06

      iter #   2 total cpu time :  4093.3 secs   av.it.:   8.9
      thresh= 1.461E-04 alpha_mix =  0.700 |ddv_scf|^2 =  9.814E-08

      iter #   3 total cpu time :  4098.2 secs   av.it.:   8.7
      thresh= 3.133E-05 alpha_mix =  0.700 |ddv_scf|^2 =  5.446E-09

      iter #   4 total cpu time :  4100.7 secs   av.it.:   8.9
      thresh= 7.380E-06 alpha_mix =  0.700 |ddv_scf|^2 =  2.461E-11

      iter #   5 total cpu time :  4101.7 secs   av.it.:   8.9
      thresh= 4.960E-07 alpha_mix =  0.700 |ddv_scf|^2 =  5.561E-14

      iter #   6 total cpu time :  4103.1 secs   av.it.:   8.6
      thresh= 2.358E-08 alpha_mix =  0.700 |ddv_scf|^2 =  1.436E-15

      iter #   7 total cpu time :  4104.5 secs   av.it.:   8.2
      thresh= 3.790E-09 alpha_mix =  0.700 |ddv_scf|^2 =  9.397E-19

     End of self-consistent calculation

     Convergence has been achieved 


     Representation #  2 modes #   2  3

     Self-consistent Calculation

      iter #   1 total cpu time :  4108.6 secs   av.it.:   6.3
      thresh= 1.000E-02 alpha_mix =  0.700 |ddv_scf|^2 =  7.943E-07

      iter #   2 total cpu time :  4110.6 secs   av.it.:   9.4
      thresh= 8.912E-05 alpha_mix =  0.700 |ddv_scf|^2 =  3.391E-08

      iter #   3 total cpu time :  4112.6 secs   av.it.:   8.8
      thresh= 1.841E-05 alpha_mix =  0.700 |ddv_scf|^2 =  2.049E-09

      iter #   4 total cpu time :  4114.6 secs   av.it.:   9.3
      thresh= 4.527E-06 alpha_mix =  0.700 |ddv_scf|^2 =  1.925E-12

      iter #   5 total cpu time :  4116.6 secs   av.it.:   9.2
      thresh= 1.387E-07 alpha_mix =  0.700 |ddv_scf|^2 =  5.383E-15

      iter #   6 total cpu time :  4118.7 secs   av.it.:   9.0
      thresh= 7.337E-09 alpha_mix =  0.700 |ddv_scf|^2 =  2.875E-16

      iter #   7 total cpu time :  4122.6 secs   av.it.:   9.0
      thresh= 1.696E-09 alpha_mix =  0.700 |ddv_scf|^2 =  3.534E-19

     End of self-consistent calculation

     Convergence has been achieved 
 
     Number of q in the star =    6
     List of q in the star:
          1  -0.500000000  -1.000000000   0.000000000
          2   0.000000000   1.000000000   0.500000000
          3   0.500000000  -1.000000000   0.000000000
          4   0.000000000   1.000000000  -0.500000000
          5  -1.000000000  -0.500000000   0.000000000
          6   0.000000000  -0.500000000  -1.000000000

     Diagonalizing the dynamical matrix

     q = (   -0.500000000  -1.000000000   0.000000000 ) 

 **************************************************************************
     freq (    1) =       6.815811 [THz] =     227.350984 [cm-1]
     freq (    2) =       9.500752 [THz] =     316.910967 [cm-1]
     freq (    3) =       9.500752 [THz] =     316.910967 [cm-1]
 **************************************************************************

     Mode symmetry, D_2d (-42m) point group:

     freq (  1 -  1) =        227.4  [cm-1]   --> B_2  X_3  W_2      
     freq (  2 -  3) =        316.9  [cm-1]   --> E    X_5  W_3      
 
     init_run     :      8.52s CPU      8.96s WALL (      28 calls)
     electrons    :    597.91s CPU    603.32s WALL (      28 calls)

     Called by init_run:
     wfcinit      :      0.00s CPU      0.03s WALL (      28 calls)
     potinit      :      2.00s CPU      2.23s WALL (      28 calls)

     Called by electrons:
     c_bands      :    597.54s CPU    602.86s WALL (      28 calls)
     v_of_rho     :      1.17s CPU      1.21s WALL (      29 calls)
     newd         :      0.40s CPU      0.55s WALL (      29 calls)

     Called by c_bands:
     init_us_2    :     14.63s CPU     15.36s WALL (   80630 calls)
     cegterg      :    393.98s CPU    396.90s WALL (    6582 calls)

     Called by sum_band:

     Called by *egterg:
     h_psi        :    381.59s CPU    384.29s WALL (  104230 calls)
     s_psi        :     40.94s CPU     41.60s WALL ( 1287581 calls)
     g_psi        :      2.44s CPU      2.39s WALL (   92680 calls)
     cdiaghg      :     12.74s CPU     13.23s WALL (   97648 calls)

     Called by h_psi:
     add_vuspsi   :     27.18s CPU     27.70s WALL (  665760 calls)

     General routines
     calbec       :     27.85s CPU     29.02s WALL ( 1420064 calls)
     fft          :     18.42s CPU     18.72s WALL (   10708 calls)
     ffts         :      6.37s CPU      6.42s WALL (    9272 calls)
     fftw         :   1495.46s CPU   1510.53s WALL ( 3362546 calls)
     interpolate  :      4.05s CPU      3.99s WALL (    1475 calls)
     davcio       :      0.46s CPU      6.01s WALL (   14916 calls)
 
     Parallel routines
     fft_scatter  :     77.80s CPU     78.76s WALL ( 3382526 calls)
 
     PHONON       :     1h 1m CPU        1h 8m WALL

     INITIALIZATION: 
     phq_setup    :      3.13s CPU     10.96s WALL (      29 calls)
     phq_init     :     93.95s CPU    113.43s WALL (      29 calls)
 
     phq_init     :     93.95s CPU    113.43s WALL (      29 calls)
     init_vloc    :      0.04s CPU      0.04s WALL (      29 calls)
     init_us_1    :      4.53s CPU      4.53s WALL (      29 calls)
     newd         :      0.40s CPU      0.55s WALL (      29 calls)
     dvanqq       :      3.35s CPU      3.43s WALL (      29 calls)
     drho         :     83.33s CPU     83.78s WALL (      29 calls)
 
     DYNAMICAL MATRIX:
     dynmat0      :      1.93s CPU     14.36s WALL (      29 calls)
     phqscf       :   2894.06s CPU   3256.30s WALL (      29 calls)
     dynmatrix    :     21.90s CPU     22.52s WALL (      29 calls)
 
     phqscf       :   2894.06s CPU   3256.30s WALL (      29 calls)
     solve_linter :   2889.98s CPU   3221.55s WALL (      76 calls)
     drhodv       :      3.79s CPU      4.03s WALL (      76 calls)
 
     dynmat0      :      1.93s CPU     14.36s WALL (      29 calls)
     dynmat_us    :      1.77s CPU      1.87s WALL (      29 calls)
     d2ionq       :      0.09s CPU      0.09s WALL (      29 calls)
 
     dynmat_us    :      1.77s CPU      1.87s WALL (      29 calls)
     addusdynmat  :      0.00s CPU      0.00s WALL (      29 calls)
 
     phqscf       :   2894.06s CPU   3256.30s WALL (      29 calls)
     solve_linter :   2889.98s CPU   3221.55s WALL (      76 calls)
 
     solve_linter :   2889.98s CPU   3221.55s WALL (      76 calls)
     dvqpsi_us    :     51.16s CPU     51.88s WALL (    7470 calls)
     ortho        :      9.92s CPU      9.98s WALL (   60291 calls)
     cgsolve      :   1139.06s CPU   1151.28s WALL (   60291 calls)
     incdrhoscf   :    127.10s CPU    128.59s WALL (   60291 calls)
     addusddens   :     15.33s CPU     15.42s WALL (     674 calls)
     vpsifft      :    104.20s CPU    105.73s WALL (   52821 calls)
     dv_of_drho   :     25.76s CPU     26.06s WALL (     665 calls)
     mix_pot      :      3.44s CPU      3.43s WALL (     598 calls)
     ef_shift     :      0.08s CPU      0.08s WALL (       7 calls)
     localdos     :      0.04s CPU      0.04s WALL (       1 calls)
     psymdvscf    :     10.58s CPU     10.58s WALL (     546 calls)
     newdq        :     14.43s CPU     14.51s WALL (     598 calls)
     adddvscf     :      2.80s CPU      3.12s WALL (   52821 calls)
     drhodvus     :      0.14s CPU      0.17s WALL (      76 calls)
 
     dvqpsi_us    :     51.16s CPU     51.88s WALL (    7470 calls)
     dvqpsi_us_on :      2.50s CPU      2.41s WALL (    7470 calls)
 
     cgsolve      :   1139.06s CPU   1151.28s WALL (   60291 calls)
     ch_psi       :   1126.67s CPU   1138.54s WALL (  561530 calls)
 
     ch_psi       :   1126.67s CPU   1138.54s WALL (  561530 calls)
     h_psiq       :   1081.30s CPU   1092.80s WALL (  561530 calls)
     last         :     41.67s CPU     42.04s WALL (  561530 calls)
 
     h_psiq       :   1081.30s CPU   1092.80s WALL (  561530 calls)
     firstfft     :    525.00s CPU    530.67s WALL ( 1027288 calls)
     secondfft    :    462.10s CPU    466.30s WALL ( 1027288 calls)
     add_vuspsi   :     27.18s CPU     27.70s WALL (  665760 calls)
 
     incdrhoscf   :    127.10s CPU    128.59s WALL (   60291 calls)
     addusdbec    :      3.22s CPU      3.42s WALL (   67761 calls)
 
     drhodvus     :      0.14s CPU      0.17s WALL (      76 calls)
 
      General routines
     calbec       :     27.85s CPU     29.02s WALL ( 1420064 calls)
     fft          :     18.42s CPU     18.72s WALL (   10708 calls)
     ffts         :      6.37s CPU      6.42s WALL (    9272 calls)
     fftw         :   1495.46s CPU   1510.53s WALL ( 3362546 calls)
     davcio       :      0.46s CPU      6.01s WALL (   14916 calls)
     write_rec    :      1.69s CPU    342.68s WALL (     674 calls)
 
 
     PHONON       :     1h 1m CPU        1h 8m WALL

 
   This run was terminated on:   7:17:40   6Jun2016            

=------------------------------------------------------------------------------=
   JOB DONE.
=------------------------------------------------------------------------------=
Application 21950105 resources: utime ~1519035s, stime ~7230s, Rss ~196144, inblocks ~840221482, outblocks ~1418704251
