
     Program Q2R v.6.1 (svn rev. 13369) starts on 22Dec2017 at 10:26:45 

     This program is part of the open-source Quantum ESPRESSO suite
     for quantum simulation of materials; please cite
         "P. Giannozzi et al., J. Phys.:Condens. Matter 21 395502 (2009);
          URL http://www.quantum-espresso.org", 
     in publications or presentations arising from this work. More details at
     http://www.quantum-espresso.org/quote

     Parallel version (MPI), running on     4 processors
     R & G space division:  proc/nbgrp/npool/nimage =       4

     reading grid info from file na.bcc.dyn0    
  reading force constants from file na.bcc.dyn1
  Dielectric Tensor not found
  nqs=            1
 q=   0.00000000  0.00000000  0.00000000
  reading force constants from file na.bcc.dyn2
  nqs=           12
 q=   0.00000000 -0.12500000  0.12500000
 q=   0.12500000  0.00000000  0.12500000
 q=  -0.12500000  0.00000000  0.12500000
 q=   0.00000000  0.12500000  0.12500000
 q=   0.12500000 -0.12500000  0.00000000
 q=  -0.12500000  0.00000000 -0.12500000
 q=   0.12500000  0.00000000 -0.12500000
 q=   0.00000000 -0.12500000 -0.12500000
 q=  -0.12500000 -0.12500000  0.00000000
 q=  -0.12500000  0.12500000  0.00000000
 q=   0.12500000  0.12500000  0.00000000
 q=   0.00000000  0.12500000 -0.12500000
  reading force constants from file na.bcc.dyn3
  nqs=           12
 q=   0.00000000 -0.25000000  0.25000000
 q=   0.25000000  0.00000000  0.25000000
 q=  -0.25000000  0.00000000  0.25000000
 q=   0.00000000  0.25000000  0.25000000
 q=   0.25000000 -0.25000000  0.00000000
 q=  -0.25000000  0.00000000 -0.25000000
 q=   0.25000000  0.00000000 -0.25000000
 q=   0.00000000 -0.25000000 -0.25000000
 q=  -0.25000000 -0.25000000  0.00000000
 q=  -0.25000000  0.25000000  0.00000000
 q=   0.25000000  0.25000000  0.00000000
 q=   0.00000000  0.25000000 -0.25000000
  reading force constants from file na.bcc.dyn4
  nqs=           12
 q=   0.00000000 -0.37500000  0.37500000
 q=   0.37500000  0.00000000  0.37500000
 q=  -0.37500000  0.00000000  0.37500000
 q=   0.00000000  0.37500000  0.37500000
 q=   0.37500000 -0.37500000  0.00000000
 q=  -0.37500000  0.00000000 -0.37500000
 q=   0.37500000  0.00000000 -0.37500000
 q=   0.00000000 -0.37500000 -0.37500000
 q=  -0.37500000 -0.37500000  0.00000000
 q=  -0.37500000  0.37500000  0.00000000
 q=   0.37500000  0.37500000  0.00000000
 q=   0.00000000  0.37500000 -0.37500000
  reading force constants from file na.bcc.dyn5
  nqs=            6
 q=   0.00000000  0.50000000 -0.50000000
 q=  -0.50000000  0.50000000  0.00000000
 q=   0.50000000  0.00000000  0.50000000
 q=   0.50000000  0.00000000 -0.50000000
 q=   0.00000000  0.50000000  0.50000000
 q=   0.50000000  0.50000000  0.00000000
  reading force constants from file na.bcc.dyn6
  nqs=           24
 q=  -0.12500000 -0.12500000  0.25000000
 q=  -0.12500000 -0.25000000  0.12500000
 q=   0.12500000 -0.25000000  0.12500000
 q=  -0.12500000  0.12500000 -0.25000000
 q=  -0.12500000  0.25000000 -0.12500000
 q=   0.12500000  0.12500000 -0.25000000
 q=   0.12500000  0.25000000 -0.12500000
 q=   0.12500000 -0.25000000 -0.12500000
 q=  -0.25000000  0.12500000 -0.12500000
 q=   0.25000000  0.12500000  0.12500000
 q=   0.12500000  0.12500000  0.25000000
 q=  -0.25000000 -0.12500000  0.12500000
 q=   0.25000000 -0.12500000 -0.12500000
 q=   0.12500000 -0.12500000 -0.25000000
 q=   0.12500000 -0.12500000  0.25000000
 q=   0.12500000  0.25000000  0.12500000
 q=  -0.12500000 -0.12500000 -0.25000000
 q=  -0.12500000  0.12500000  0.25000000
 q=  -0.12500000  0.25000000  0.12500000
 q=  -0.12500000 -0.25000000 -0.12500000
 q=   0.25000000  0.12500000 -0.12500000
 q=  -0.25000000  0.12500000  0.12500000
 q=   0.25000000 -0.12500000  0.12500000
 q=  -0.25000000 -0.12500000 -0.12500000
  reading force constants from file na.bcc.dyn7
  nqs=           48
 q=  -0.12500000 -0.25000000  0.37500000
 q=  -0.25000000 -0.12500000  0.37500000
 q=  -0.12500000 -0.37500000  0.25000000
 q=   0.12500000 -0.37500000  0.25000000
 q=  -0.12500000  0.25000000 -0.37500000
 q=  -0.12500000  0.37500000 -0.25000000
 q=   0.12500000  0.25000000 -0.37500000
 q=   0.12500000  0.37500000 -0.25000000
 q=   0.25000000 -0.37500000 -0.12500000
 q=  -0.37500000  0.12500000 -0.25000000
 q=   0.37500000  0.12500000  0.25000000
 q=   0.25000000  0.12500000  0.37500000
 q=  -0.37500000 -0.12500000  0.25000000
 q=   0.37500000 -0.12500000 -0.25000000
 q=   0.12500000 -0.25000000 -0.37500000
 q=   0.25000000 -0.12500000 -0.37500000
 q=  -0.25000000  0.12500000 -0.37500000
 q=  -0.37500000 -0.25000000  0.12500000
 q=  -0.37500000  0.25000000 -0.12500000
 q=   0.37500000  0.25000000  0.12500000
 q=   0.25000000 -0.12500000  0.37500000
 q=  -0.25000000  0.37500000 -0.12500000
 q=   0.12500000 -0.37500000 -0.25000000
 q=   0.12500000  0.37500000  0.25000000
 q=   0.25000000  0.12500000 -0.37500000
 q=  -0.12500000 -0.25000000 -0.37500000
 q=  -0.25000000  0.12500000  0.37500000
 q=  -0.12500000  0.37500000  0.25000000
 q=  -0.12500000  0.25000000  0.37500000
 q=   0.12500000 -0.25000000  0.37500000
 q=  -0.12500000 -0.37500000 -0.25000000
 q=   0.12500000  0.25000000  0.37500000
 q=   0.37500000 -0.25000000 -0.12500000
 q=   0.25000000  0.37500000  0.12500000
 q=  -0.25000000 -0.37500000  0.12500000
 q=   0.37500000  0.25000000 -0.12500000
 q=  -0.37500000  0.25000000  0.12500000
 q=   0.37500000 -0.25000000  0.12500000
 q=  -0.37500000 -0.25000000 -0.12500000
 q=  -0.25000000 -0.12500000 -0.37500000
 q=   0.25000000 -0.37500000  0.12500000
 q=  -0.25000000 -0.37500000 -0.12500000
 q=   0.25000000  0.37500000 -0.12500000
 q=  -0.25000000  0.37500000  0.12500000
 q=  -0.37500000  0.12500000  0.25000000
 q=  -0.37500000 -0.12500000 -0.25000000
 q=   0.37500000 -0.12500000  0.25000000
 q=   0.37500000  0.12500000 -0.25000000
  reading force constants from file na.bcc.dyn8
  nqs=           48
 q=  -0.12500000  0.62500000 -0.50000000
 q=   0.62500000 -0.12500000 -0.50000000
 q=  -0.12500000  0.50000000 -0.62500000
 q=   0.12500000  0.50000000 -0.62500000
 q=  -0.12500000 -0.62500000  0.50000000
 q=  -0.12500000 -0.50000000  0.62500000
 q=   0.12500000 -0.62500000  0.50000000
 q=   0.12500000 -0.50000000  0.62500000
 q=  -0.62500000  0.50000000 -0.12500000
 q=   0.50000000  0.12500000  0.62500000
 q=  -0.50000000  0.12500000 -0.62500000
 q=  -0.62500000  0.12500000 -0.50000000
 q=   0.50000000 -0.12500000 -0.62500000
 q=  -0.50000000 -0.12500000  0.62500000
 q=   0.12500000  0.62500000  0.50000000
 q=  -0.62500000 -0.12500000  0.50000000
 q=   0.62500000  0.12500000  0.50000000
 q=   0.50000000  0.62500000  0.12500000
 q=   0.50000000 -0.62500000 -0.12500000
 q=  -0.50000000 -0.62500000  0.12500000
 q=  -0.62500000 -0.12500000 -0.50000000
 q=   0.62500000 -0.50000000 -0.12500000
 q=   0.12500000  0.50000000  0.62500000
 q=   0.12500000 -0.50000000 -0.62500000
 q=  -0.62500000  0.12500000  0.50000000
 q=  -0.12500000  0.62500000  0.50000000
 q=   0.62500000  0.12500000 -0.50000000
 q=  -0.12500000 -0.50000000 -0.62500000
 q=  -0.12500000 -0.62500000 -0.50000000
 q=   0.12500000  0.62500000 -0.50000000
 q=  -0.12500000  0.50000000  0.62500000
 q=   0.12500000 -0.62500000 -0.50000000
 q=  -0.50000000  0.62500000 -0.12500000
 q=  -0.62500000 -0.50000000  0.12500000
 q=   0.62500000  0.50000000  0.12500000
 q=  -0.50000000 -0.62500000 -0.12500000
 q=   0.50000000 -0.62500000  0.12500000
 q=  -0.50000000  0.62500000  0.12500000
 q=   0.50000000  0.62500000 -0.12500000
 q=   0.62500000 -0.12500000  0.50000000
 q=  -0.62500000  0.50000000  0.12500000
 q=   0.62500000  0.50000000 -0.12500000
 q=  -0.62500000 -0.50000000 -0.12500000
 q=   0.62500000 -0.50000000  0.12500000
 q=   0.50000000  0.12500000 -0.62500000
 q=   0.50000000 -0.12500000  0.62500000
 q=  -0.50000000 -0.12500000 -0.62500000
 q=  -0.50000000  0.12500000  0.62500000
  reading force constants from file na.bcc.dyn9
  nqs=           24
 q=  -0.25000000  0.75000000 -0.50000000
 q=  -0.25000000  0.50000000 -0.75000000
 q=   0.25000000  0.50000000 -0.75000000
 q=  -0.25000000 -0.75000000  0.50000000
 q=  -0.25000000 -0.50000000  0.75000000
 q=   0.25000000 -0.75000000  0.50000000
 q=   0.25000000 -0.50000000  0.75000000
 q=  -0.75000000  0.50000000 -0.25000000
 q=   0.50000000  0.25000000  0.75000000
 q=  -0.50000000  0.25000000 -0.75000000
 q=  -0.75000000  0.25000000 -0.50000000
 q=   0.50000000 -0.25000000 -0.75000000
 q=  -0.50000000 -0.25000000  0.75000000
 q=   0.25000000  0.75000000  0.50000000
 q=  -0.75000000 -0.25000000 -0.50000000
 q=   0.25000000 -0.50000000 -0.75000000
 q=  -0.25000000  0.75000000  0.50000000
 q=   0.75000000  0.25000000 -0.50000000
 q=  -0.25000000 -0.50000000 -0.75000000
 q=  -0.25000000  0.50000000  0.75000000
 q=  -0.50000000 -0.75000000 -0.25000000
 q=   0.50000000 -0.75000000  0.25000000
 q=  -0.50000000  0.75000000  0.25000000
 q=   0.50000000  0.75000000 -0.25000000
  reading force constants from file na.bcc.dyn10
  nqs=           24
 q=  -0.25000000  0.62500000 -0.37500000
 q=  -0.25000000  0.37500000 -0.62500000
 q=   0.25000000  0.37500000 -0.62500000
 q=   0.62500000 -0.25000000 -0.37500000
 q=   0.25000000 -0.37500000  0.62500000
 q=  -0.62500000  0.37500000 -0.25000000
 q=   0.37500000  0.25000000  0.62500000
 q=  -0.37500000  0.25000000 -0.62500000
 q=   0.37500000 -0.25000000 -0.62500000
 q=   0.25000000  0.62500000  0.37500000
 q=   0.37500000  0.62500000  0.25000000
 q=  -0.37500000 -0.62500000  0.25000000
 q=  -0.62500000 -0.25000000 -0.37500000
 q=   0.62500000 -0.37500000 -0.25000000
 q=   0.25000000  0.37500000  0.62500000
 q=  -0.62500000  0.25000000  0.37500000
 q=  -0.25000000  0.62500000  0.37500000
 q=   0.62500000  0.25000000 -0.37500000
 q=  -0.25000000 -0.62500000 -0.37500000
 q=  -0.37500000 -0.62500000 -0.25000000
 q=   0.37500000 -0.62500000  0.25000000
 q=  -0.37500000  0.62500000  0.25000000
 q=   0.37500000  0.62500000 -0.25000000
 q=   0.62500000 -0.25000000  0.37500000
  reading force constants from file na.bcc.dyn11
  nqs=            6
 q=   0.00000000  0.00000000  0.25000000
 q=   0.00000000 -0.25000000  0.00000000
 q=  -0.25000000  0.00000000  0.00000000
 q=   0.25000000  0.00000000  0.00000000
 q=   0.00000000  0.00000000 -0.25000000
 q=   0.00000000  0.25000000  0.00000000
  reading force constants from file na.bcc.dyn12
  nqs=           24
 q=   0.00000000 -0.12500000  0.37500000
 q=   0.12500000  0.00000000  0.37500000
 q=  -0.12500000  0.00000000  0.37500000
 q=   0.00000000  0.12500000  0.37500000
 q=   0.12500000 -0.37500000  0.00000000
 q=  -0.37500000  0.00000000 -0.12500000
 q=   0.37500000  0.00000000  0.12500000
 q=   0.00000000 -0.37500000  0.12500000
 q=  -0.37500000  0.00000000  0.12500000
 q=   0.37500000  0.00000000 -0.12500000
 q=   0.00000000 -0.12500000 -0.37500000
 q=   0.12500000  0.00000000 -0.37500000
 q=  -0.12500000  0.00000000 -0.37500000
 q=  -0.37500000 -0.12500000  0.00000000
 q=  -0.37500000  0.12500000  0.00000000
 q=   0.37500000  0.12500000  0.00000000
 q=  -0.12500000  0.37500000  0.00000000
 q=   0.00000000 -0.37500000 -0.12500000
 q=   0.00000000  0.37500000  0.12500000
 q=   0.00000000  0.12500000 -0.37500000
 q=   0.00000000  0.37500000 -0.12500000
 q=   0.37500000 -0.12500000  0.00000000
 q=   0.12500000  0.37500000  0.00000000
 q=  -0.12500000 -0.37500000  0.00000000
  reading force constants from file na.bcc.dyn13
  nqs=           24
 q=   0.00000000 -0.25000000  0.50000000
 q=   0.25000000  0.00000000  0.50000000
 q=  -0.25000000  0.00000000  0.50000000
 q=   0.00000000  0.25000000  0.50000000
 q=   0.25000000 -0.50000000  0.00000000
 q=  -0.50000000  0.00000000 -0.25000000
 q=   0.50000000  0.00000000  0.25000000
 q=   0.00000000 -0.50000000  0.25000000
 q=  -0.50000000  0.00000000  0.25000000
 q=   0.50000000  0.00000000 -0.25000000
 q=   0.00000000 -0.25000000 -0.50000000
 q=   0.25000000  0.00000000 -0.50000000
 q=  -0.25000000  0.00000000 -0.50000000
 q=  -0.50000000 -0.25000000  0.00000000
 q=  -0.50000000  0.25000000  0.00000000
 q=   0.50000000  0.25000000  0.00000000
 q=  -0.25000000  0.50000000  0.00000000
 q=   0.00000000 -0.50000000 -0.25000000
 q=   0.00000000  0.50000000  0.25000000
 q=   0.00000000  0.25000000 -0.50000000
 q=   0.00000000  0.50000000 -0.25000000
 q=   0.50000000 -0.25000000  0.00000000
 q=   0.25000000  0.50000000  0.00000000
 q=  -0.25000000 -0.50000000  0.00000000
  reading force constants from file na.bcc.dyn14
  nqs=           12
 q=   0.00000000  0.62500000 -0.37500000
 q=   0.62500000  0.00000000 -0.37500000
 q=   0.00000000 -0.62500000 -0.37500000
 q=  -0.62500000  0.37500000  0.00000000
 q=   0.37500000  0.00000000  0.62500000
 q=  -0.37500000  0.00000000 -0.62500000
 q=   0.00000000  0.37500000 -0.62500000
 q=   0.37500000  0.00000000 -0.62500000
 q=   0.00000000  0.62500000  0.37500000
 q=   0.37500000  0.62500000  0.00000000
 q=  -0.37500000 -0.62500000  0.00000000
 q=   0.62500000 -0.37500000  0.00000000
  reading force constants from file na.bcc.dyn15
  nqs=           24
 q=  -0.12500000 -0.12500000  0.50000000
 q=  -0.12500000  0.50000000 -0.12500000
 q=   0.12500000  0.50000000 -0.12500000
 q=  -0.12500000  0.12500000  0.50000000
 q=   0.12500000 -0.12500000  0.50000000
 q=   0.12500000  0.12500000  0.50000000
 q=   0.12500000 -0.50000000 -0.12500000
 q=  -0.50000000  0.12500000 -0.12500000
 q=   0.50000000  0.12500000  0.12500000
 q=  -0.12500000 -0.50000000  0.12500000
 q=  -0.50000000 -0.12500000  0.12500000
 q=   0.50000000 -0.12500000 -0.12500000
 q=   0.12500000 -0.12500000 -0.50000000
 q=  -0.12500000  0.12500000 -0.50000000
 q=   0.12500000 -0.50000000  0.12500000
 q=   0.12500000  0.50000000  0.12500000
 q=   0.12500000  0.12500000 -0.50000000
 q=  -0.12500000 -0.12500000 -0.50000000
 q=  -0.12500000  0.50000000  0.12500000
 q=  -0.12500000 -0.50000000 -0.12500000
 q=   0.50000000  0.12500000 -0.12500000
 q=  -0.50000000  0.12500000  0.12500000
 q=   0.50000000 -0.12500000  0.12500000
 q=  -0.50000000 -0.12500000 -0.12500000
  reading force constants from file na.bcc.dyn16
  nqs=           48
 q=  -0.12500000  0.75000000 -0.37500000
 q=   0.75000000 -0.12500000 -0.37500000
 q=  -0.12500000 -0.37500000  0.75000000
 q=   0.12500000 -0.37500000  0.75000000
 q=   0.75000000  0.12500000 -0.37500000
 q=  -0.12500000 -0.75000000 -0.37500000
 q=   0.12500000  0.75000000 -0.37500000
 q=   0.12500000 -0.75000000 -0.37500000
 q=  -0.75000000  0.37500000 -0.12500000
 q=   0.37500000  0.12500000  0.75000000
 q=  -0.37500000  0.12500000 -0.75000000
 q=  -0.12500000  0.37500000 -0.75000000
 q=   0.37500000 -0.12500000 -0.75000000
 q=  -0.37500000 -0.12500000  0.75000000
 q=   0.12500000  0.75000000  0.37500000
 q=  -0.75000000 -0.12500000  0.37500000
 q=   0.75000000  0.12500000  0.37500000
 q=   0.37500000  0.75000000  0.12500000
 q=   0.37500000 -0.75000000 -0.12500000
 q=  -0.37500000 -0.75000000  0.12500000
 q=   0.12500000  0.37500000 -0.75000000
 q=   0.75000000 -0.37500000 -0.12500000
 q=   0.12500000  0.37500000  0.75000000
 q=   0.12500000 -0.37500000 -0.75000000
 q=  -0.75000000  0.12500000  0.37500000
 q=  -0.12500000  0.75000000  0.37500000
 q=  -0.12500000 -0.75000000  0.37500000
 q=  -0.12500000 -0.37500000 -0.75000000
 q=  -0.75000000  0.12500000 -0.37500000
 q=   0.12500000 -0.75000000  0.37500000
 q=  -0.12500000  0.37500000  0.75000000
 q=  -0.75000000 -0.12500000 -0.37500000
 q=  -0.37500000  0.75000000 -0.12500000
 q=  -0.75000000 -0.37500000  0.12500000
 q=   0.75000000  0.37500000  0.12500000
 q=  -0.37500000 -0.75000000 -0.12500000
 q=   0.37500000 -0.75000000  0.12500000
 q=  -0.37500000  0.75000000  0.12500000
 q=   0.37500000  0.75000000 -0.12500000
 q=   0.75000000 -0.12500000  0.37500000
 q=  -0.75000000  0.37500000  0.12500000
 q=   0.75000000  0.37500000 -0.12500000
 q=  -0.75000000 -0.37500000 -0.12500000
 q=   0.75000000 -0.37500000  0.12500000
 q=   0.37500000  0.12500000 -0.75000000
 q=   0.37500000 -0.12500000  0.75000000
 q=  -0.37500000 -0.12500000 -0.75000000
 q=  -0.37500000  0.12500000  0.75000000
  reading force constants from file na.bcc.dyn17
  nqs=            8
 q=  -0.25000000  0.25000000  0.25000000
 q=   0.25000000  0.25000000  0.25000000
 q=   0.25000000 -0.25000000  0.25000000
 q=  -0.25000000 -0.25000000 -0.25000000
 q=   0.25000000  0.25000000 -0.25000000
 q=   0.25000000 -0.25000000 -0.25000000
 q=  -0.25000000  0.25000000 -0.25000000
 q=  -0.25000000 -0.25000000  0.25000000
  reading force constants from file na.bcc.dyn18
  nqs=            8
 q=  -0.25000000  0.75000000 -0.25000000
 q=   0.25000000  0.75000000 -0.25000000
 q=   0.25000000 -0.75000000 -0.25000000
 q=  -0.25000000  0.25000000 -0.75000000
 q=   0.25000000 -0.25000000 -0.75000000
 q=   0.25000000  0.25000000 -0.75000000
 q=  -0.25000000  0.75000000  0.25000000
 q=   0.75000000  0.25000000 -0.25000000
  reading force constants from file na.bcc.dyn19
  nqs=           24
 q=   0.62500000 -0.62500000  0.25000000
 q=  -0.62500000  0.62500000  0.25000000
 q=   0.25000000  0.62500000 -0.62500000
 q=  -0.62500000  0.25000000  0.62500000
 q=   0.25000000 -0.62500000  0.62500000
 q=  -0.62500000 -0.62500000  0.25000000
 q=   0.62500000 -0.25000000  0.62500000
 q=  -0.25000000 -0.62500000 -0.62500000
 q=  -0.25000000  0.62500000  0.62500000
 q=  -0.62500000 -0.62500000 -0.25000000
 q=   0.62500000  0.62500000 -0.25000000
 q=  -0.62500000  0.25000000 -0.62500000
 q=  -0.62500000 -0.25000000  0.62500000
 q=   0.62500000  0.25000000 -0.62500000
 q=  -0.62500000 -0.25000000 -0.62500000
 q=   0.62500000 -0.62500000 -0.25000000
 q=   0.62500000  0.25000000  0.62500000
 q=  -0.62500000  0.62500000 -0.25000000
 q=   0.62500000 -0.25000000 -0.62500000
 q=   0.62500000  0.62500000  0.25000000
 q=   0.25000000  0.62500000  0.62500000
 q=  -0.25000000  0.62500000 -0.62500000
 q=   0.25000000 -0.62500000 -0.62500000
 q=  -0.25000000 -0.62500000  0.62500000
  reading force constants from file na.bcc.dyn20
  nqs=           12
 q=   0.50000000 -0.50000000  0.25000000
 q=  -0.50000000  0.25000000  0.50000000
 q=   0.25000000 -0.50000000  0.50000000
 q=  -0.50000000 -0.50000000  0.25000000
 q=   0.50000000 -0.25000000  0.50000000
 q=  -0.25000000 -0.50000000 -0.50000000
 q=  -0.50000000 -0.50000000 -0.25000000
 q=  -0.50000000  0.25000000 -0.50000000
 q=  -0.50000000 -0.25000000  0.50000000
 q=   0.50000000 -0.50000000 -0.25000000
 q=   0.25000000  0.50000000  0.50000000
 q=  -0.25000000  0.50000000 -0.50000000
  reading force constants from file na.bcc.dyn21
  nqs=           24
 q=   0.50000000 -0.62500000  0.37500000
 q=  -0.62500000  0.50000000  0.37500000
 q=  -0.50000000  0.62500000  0.37500000
 q=  -0.62500000  0.37500000  0.50000000
 q=  -0.50000000 -0.62500000  0.37500000
 q=   0.62500000 -0.37500000  0.50000000
 q=  -0.37500000 -0.50000000 -0.62500000
 q=   0.37500000 -0.50000000  0.62500000
 q=   0.50000000 -0.37500000  0.62500000
 q=  -0.37500000  0.50000000  0.62500000
 q=  -0.37500000 -0.62500000 -0.50000000
 q=  -0.50000000 -0.62500000 -0.37500000
 q=   0.37500000  0.62500000 -0.50000000
 q=  -0.50000000 -0.37500000  0.62500000
 q=   0.62500000 -0.50000000 -0.37500000
 q=   0.50000000 -0.62500000 -0.37500000
 q=  -0.62500000 -0.50000000  0.37500000
 q=   0.50000000 -0.37500000 -0.62500000
 q=   0.62500000  0.50000000  0.37500000
 q=   0.37500000  0.62500000  0.50000000
 q=  -0.37500000  0.62500000 -0.50000000
 q=   0.37500000 -0.62500000 -0.50000000
 q=  -0.37500000 -0.62500000  0.50000000
 q=  -0.62500000  0.50000000 -0.37500000
  reading force constants from file na.bcc.dyn22
  nqs=            6
 q=   0.00000000  0.00000000  0.50000000
 q=   0.00000000 -0.50000000  0.00000000
 q=  -0.50000000  0.00000000  0.00000000
 q=   0.50000000  0.00000000  0.00000000
 q=   0.00000000  0.00000000 -0.50000000
 q=   0.00000000  0.50000000  0.00000000
  reading force constants from file na.bcc.dyn23
  nqs=           24
 q=   0.00000000 -0.12500000  0.62500000
 q=   0.00000000  0.12500000  0.62500000
 q=  -0.12500000  0.00000000  0.62500000
 q=   0.12500000  0.00000000  0.62500000
 q=   0.12500000 -0.62500000  0.00000000
 q=  -0.62500000  0.00000000 -0.12500000
 q=   0.62500000  0.00000000  0.12500000
 q=   0.00000000 -0.62500000  0.12500000
 q=  -0.62500000  0.00000000  0.12500000
 q=  -0.62500000 -0.12500000  0.00000000
 q=   0.00000000 -0.12500000 -0.62500000
 q=   0.12500000  0.00000000 -0.62500000
 q=  -0.12500000  0.00000000 -0.62500000
 q=   0.00000000  0.62500000 -0.12500000
 q=  -0.62500000  0.12500000  0.00000000
 q=   0.62500000  0.12500000  0.00000000
 q=  -0.12500000  0.62500000  0.00000000
 q=   0.00000000 -0.62500000 -0.12500000
 q=   0.00000000  0.62500000  0.12500000
 q=   0.00000000  0.12500000 -0.62500000
 q=   0.62500000 -0.12500000  0.00000000
 q=   0.12500000  0.62500000  0.00000000
 q=   0.62500000  0.00000000 -0.12500000
 q=  -0.12500000 -0.62500000  0.00000000
  reading force constants from file na.bcc.dyn24
  nqs=           12
 q=   0.00000000  0.75000000 -0.25000000
 q=  -0.75000000  0.00000000 -0.25000000
 q=   0.75000000  0.00000000 -0.25000000
 q=   0.00000000 -0.75000000 -0.25000000
 q=  -0.75000000  0.25000000  0.00000000
 q=  -0.25000000  0.00000000 -0.75000000
 q=   0.00000000  0.25000000 -0.75000000
 q=   0.25000000  0.00000000 -0.75000000
 q=   0.25000000  0.75000000  0.00000000
 q=   0.00000000  0.75000000  0.25000000
 q=  -0.25000000 -0.75000000  0.00000000
 q=   0.75000000 -0.25000000  0.00000000
  reading force constants from file na.bcc.dyn25
  nqs=           24
 q=  -0.12500000  0.87500000 -0.25000000
 q=   0.12500000 -0.25000000  0.87500000
 q=  -0.12500000 -0.25000000  0.87500000
 q=  -0.87500000  0.12500000 -0.25000000
 q=   0.87500000  0.12500000 -0.25000000
 q=  -0.87500000 -0.12500000 -0.25000000
 q=  -0.87500000  0.25000000 -0.12500000
 q=   0.25000000  0.12500000  0.87500000
 q=  -0.25000000  0.12500000 -0.87500000
 q=  -0.12500000  0.25000000 -0.87500000
 q=   0.25000000 -0.12500000 -0.87500000
 q=   0.12500000  0.87500000  0.25000000
 q=   0.87500000  0.12500000  0.25000000
 q=   0.12500000  0.25000000 -0.87500000
 q=   0.12500000 -0.25000000 -0.87500000
 q=  -0.87500000  0.12500000  0.25000000
 q=  -0.12500000  0.87500000  0.25000000
 q=  -0.12500000 -0.25000000 -0.87500000
 q=  -0.25000000  0.87500000 -0.12500000
 q=  -0.12500000  0.25000000  0.87500000
 q=  -0.25000000 -0.87500000 -0.12500000
 q=   0.25000000 -0.87500000  0.12500000
 q=  -0.25000000  0.87500000  0.12500000
 q=   0.25000000  0.87500000 -0.12500000
  reading force constants from file na.bcc.dyn26
  nqs=            2
 q=   0.50000000 -0.50000000  0.50000000
 q=   0.50000000 -0.50000000 -0.50000000
  reading force constants from file na.bcc.dyn27
  nqs=            6
 q=   0.00000000  0.00000000  0.75000000
 q=  -0.75000000  0.00000000  0.00000000
 q=   0.00000000  0.00000000 -0.75000000
 q=   0.00000000  0.75000000  0.00000000
 q=   0.75000000  0.00000000  0.00000000
 q=   0.00000000 -0.75000000  0.00000000
  reading force constants from file na.bcc.dyn28
  nqs=           12
 q=   0.00000000  0.87500000 -0.12500000
 q=   0.00000000 -0.87500000 -0.12500000
 q=   0.87500000  0.00000000 -0.12500000
 q=  -0.87500000  0.00000000 -0.12500000
 q=   0.12500000  0.00000000 -0.87500000
 q=   0.12500000  0.87500000  0.00000000
 q=   0.00000000  0.87500000  0.12500000
 q=   0.87500000  0.00000000  0.12500000
 q=   0.12500000 -0.87500000  0.00000000
 q=  -0.12500000 -0.87500000  0.00000000
 q=   0.87500000 -0.12500000  0.00000000
 q=   0.00000000 -0.87500000  0.12500000
  reading force constants from file na.bcc.dyn29
  nqs=            1
 q=   0.00000000  0.00000000 -1.00000000

      q-space grid ok, #points =  512

      fft-check success (sum of imaginary terms < 10^-12)

     Q2R          :     0.07s CPU         0.31s WALL


   This run was terminated on:  10:26:46  22Dec2017            

=------------------------------------------------------------------------------=
   JOB DONE.
=------------------------------------------------------------------------------=
