
     Program PHONON v.6.1 (svn rev. 13369) starts on 21Dec2017 at 12:20:32 

     This program is part of the open-source Quantum ESPRESSO suite
     for quantum simulation of materials; please cite
         "P. Giannozzi et al., J. Phys.:Condens. Matter 21 395502 (2009);
          URL http://www.quantum-espresso.org", 
     in publications or presentations arising from this work. More details at
     http://www.quantum-espresso.org/quote

     Parallel version (MPI), running on     4 processors
     R & G space division:  proc/nbgrp/npool/nimage =       4

     Reading data from directory:
     ./na.fcc.save

   Info: using nr1, nr2, nr3 values from input

   Info: using nr1, nr2, nr3 values from input

     IMPORTANT: XC functional enforced from input :
     Exchange-correlation      = SLA  PW   PBE  PBE ( 1  4  3  4 0 0)
     Any further DFT definition will be discarded
     Please, verify this is what you really want


     Parallelization info
     --------------------
     sticks:   dense  smooth     PW     G-vecs:    dense   smooth      PW
     Min         238     118     40                 4933     1718     340
     Max         239     119     41                 4938     1721     342
     Sum         955     475    163                19747     6879    1363



     Dynamical matrices for ( 8, 8, 8)  uniform grid of q-points
     (  29q-points):
       N         xq(1)         xq(2)         xq(3) 
       1   0.000000000   0.000000000   0.000000000
       2  -0.125000000   0.125000000  -0.125000000
       3  -0.250000000   0.250000000  -0.250000000
       4  -0.375000000   0.375000000  -0.375000000
       5   0.500000000  -0.500000000   0.500000000
       6   0.000000000   0.250000000   0.000000000
       7  -0.125000000   0.375000000  -0.125000000
       8  -0.250000000   0.500000000  -0.250000000
       9   0.625000000  -0.375000000   0.625000000
      10   0.500000000  -0.250000000   0.500000000
      11   0.375000000  -0.125000000   0.375000000
      12   0.250000000   0.000000000   0.250000000
      13   0.000000000   0.500000000   0.000000000
      14  -0.125000000   0.625000000  -0.125000000
      15   0.750000000  -0.250000000   0.750000000
      16   0.625000000  -0.125000000   0.625000000
      17   0.500000000   0.000000000   0.500000000
      18   0.000000000   0.750000000   0.000000000
      19   0.875000000  -0.125000000   0.875000000
      20   0.750000000   0.000000000   0.750000000
      21   0.000000000  -1.000000000   0.000000000
      22  -0.250000000   0.500000000   0.000000000
      23   0.625000000  -0.375000000   0.875000000
      24   0.500000000  -0.250000000   0.750000000
      25   0.750000000  -0.250000000   1.000000000
      26   0.625000000  -0.125000000   0.875000000
      27   0.500000000   0.000000000   0.750000000
      28  -0.250000000  -1.000000000   0.000000000
      29  -0.500000000  -1.000000000   0.000000000

     Calculation of q =    0.0000000   0.0000000   0.0000000

                                                                                

     bravais-lattice index     =            2
     lattice parameter (alat)  =       9.3458  a.u.
     unit-cell volume          =     204.0763 (a.u.)^3
     number of atoms/cell      =            1
     number of atomic types    =            1
     kinetic-energy cut-off    =      40.0000  Ry
     charge density cut-off    =     320.0000  Ry
     convergence threshold     =      1.0E-12
     beta                      =       0.7000
     number of iterations used =            4
     Exchange-correlation      = SLA  PW   PBE  PBE ( 1  4  3  4 0 0)


     celldm(1)=    9.34582  celldm(2)=    0.00000  celldm(3)=    0.00000
     celldm(4)=    0.00000  celldm(5)=    0.00000  celldm(6)=    0.00000

     crystal axes: (cart. coord. in units of alat)
               a(1) = ( -0.5000  0.0000  0.5000 )  
               a(2) = (  0.0000  0.5000  0.5000 )  
               a(3) = ( -0.5000  0.5000  0.0000 )  

     reciprocal axes: (cart. coord. in units 2 pi/alat)
               b(1) = ( -1.0000 -1.0000  1.0000 )  
               b(2) = (  1.0000  1.0000  1.0000 )  
               b(3) = ( -1.0000  1.0000 -1.0000 )  


     Atoms inside the unit cell: 

     Cartesian axes

     site n.  atom      mass           positions (alat units)
        1     Na  22.9900   tau(    1) = (    0.00000    0.00000    0.00000  )

     Computing dynamical matrix for 
                    q = (   0.0000000   0.0000000   0.0000000 )

     49 Sym.Ops. (with q -> -q+G )


     G cutoff =  707.9870  (   4938 G-vectors)     FFT grid: ( 40, 40, 40)
     G cutoff =  353.9935  (   1720 G-vectors)  smooth grid: ( 27, 27, 27)

     number of k points=   280  Marzari-Vanderbilt smearing, width (Ry)=  0.0200

     PseudoPot. # 1 for Na read from file:
     /home/s1333534/quantum_espresso/qe-6.1/pseudo/Na_pbe_v1.uspp.F.UPF
     MD5 check sum: 76a99c7e9422403d3e93cbc85ab7bccb
     Pseudo is Ultrasoft, Zval =  9.0
     Generated by new atomic code, or converted to UPF format
     Using radial grid of  819 points,  5 beta functions with: 
                l(1) =   0
                l(2) =   0
                l(3) =   1
                l(4) =   1
                l(5) =   2
     Q(r) pseudized with  8 coefficients,  rinner =    1.250   1.250   1.250
                                                       1.250   1.250

     Mode symmetry, O_h (m-3m)  point group:


     Atomic displacements:
     There are   1 irreducible representations

     Representation     1      3 modes -T_1u G_15  G_4-  To be done



     Alpha used in Ewald sum =   2.8000
     PHONON       :     2.09s CPU         2.19s WALL



     Representation #  1 modes #   1  2  3

     Self-consistent Calculation

     Pert. #  1: Fermi energy shift (Ry) =    -2.7573E-24    -3.4481E-37
     Pert. #  2: Fermi energy shift (Ry) =    -4.8942E-24     3.1347E-37
     Pert. #  3: Fermi energy shift (Ry) =     0.0000E+00     0.0000E+00

      iter #   1 total cpu time :    10.0 secs   av.it.:   5.4
      thresh= 1.000E-02 alpha_mix =  0.700 |ddv_scf|^2 =  1.638E-06

     Pert. #  1: Fermi energy shift (Ry) =    -3.1019E-25     4.4387E-39
     Pert. #  2: Fermi energy shift (Ry) =    -4.9114E-25     1.8367E-40
     Pert. #  3: Fermi energy shift (Ry) =     6.5485E-25     1.2245E-40

      iter #   2 total cpu time :    19.7 secs   av.it.:   8.4
      thresh= 1.280E-04 alpha_mix =  0.700 |ddv_scf|^2 =  3.113E-08

     Pert. #  1: Fermi energy shift (Ry) =     3.9980E-24     3.0612E-41
     Pert. #  2: Fermi energy shift (Ry) =    -1.6199E-24    -3.0612E-41
     Pert. #  3: Fermi energy shift (Ry) =     2.2058E-24     2.7551E-40

      iter #   3 total cpu time :    29.4 secs   av.it.:   8.5
      thresh= 1.764E-05 alpha_mix =  0.700 |ddv_scf|^2 =  4.627E-10

     Pert. #  1: Fermi energy shift (Ry) =     3.7223E-24    -4.2857E-40
     Pert. #  2: Fermi energy shift (Ry) =    -3.4466E-26    -2.4489E-40
     Pert. #  3: Fermi energy shift (Ry) =     2.7573E-25     1.2245E-40

      iter #   4 total cpu time :    38.3 secs   av.it.:   8.0
      thresh= 2.151E-06 alpha_mix =  0.700 |ddv_scf|^2 =  1.768E-12

     Pert. #  1: Fermi energy shift (Ry) =     1.3786E-24    -6.1224E-41
     Pert. #  2: Fermi energy shift (Ry) =    -3.6189E-25    -2.1428E-40
     Pert. #  3: Fermi energy shift (Ry) =     1.6544E-24    -1.2245E-40

      iter #   5 total cpu time :    47.4 secs   av.it.:   8.3
      thresh= 1.330E-07 alpha_mix =  0.700 |ddv_scf|^2 =  4.486E-15

     End of self-consistent calculation

     Convergence has been achieved 

     Number of q in the star =    1
     List of q in the star:
          1   0.000000000   0.000000000   0.000000000

     Diagonalizing the dynamical matrix

     q = (    0.000000000   0.000000000   0.000000000 ) 

 **************************************************************************
     freq (    1) =      -0.756198 [THz] =     -25.224056 [cm-1]
     freq (    2) =      -0.756198 [THz] =     -25.224056 [cm-1]
     freq (    3) =      -0.756198 [THz] =     -25.224056 [cm-1]
 **************************************************************************

     Mode symmetry, O_h (m-3m)  point group:

     freq (  1 -  3) =        -25.2  [cm-1]   --> T_1u G_15  G_4- I  

     Calculation of q =   -0.1250000   0.1250000  -0.1250000

   Info: using nr1, nr2, nr3 values from input

   Info: using nr1, nr2, nr3 values from input

     Parallelization info
     --------------------
     sticks:   dense  smooth     PW     G-vecs:    dense   smooth      PW
     Min         238     118     40                 4935     1718     362
     Max         239     119     41                 4940     1721     366
     Sum         955     475    163                19747     6879    1459



     bravais-lattice index     =            2
     lattice parameter (alat)  =       9.3458  a.u.
     unit-cell volume          =     204.0763 (a.u.)^3
     number of atoms/cell      =            1
     number of atomic types    =            1
     number of electrons       =         9.00
     number of Kohn-Sham states=            9
     kinetic-energy cutoff     =      40.0000  Ry
     charge density cutoff     =     320.0000  Ry
     Exchange-correlation      = SLA  PW   PBE  PBE ( 1  4  3  4 0 0)

     celldm(1)=   9.345822  celldm(2)=   0.000000  celldm(3)=   0.000000
     celldm(4)=   0.000000  celldm(5)=   0.000000  celldm(6)=   0.000000

     crystal axes: (cart. coord. in units of alat)
               a(1) = (  -0.500000   0.000000   0.500000 )  
               a(2) = (   0.000000   0.500000   0.500000 )  
               a(3) = (  -0.500000   0.500000   0.000000 )  

     reciprocal axes: (cart. coord. in units 2 pi/alat)
               b(1) = ( -1.000000 -1.000000  1.000000 )  
               b(2) = (  1.000000  1.000000  1.000000 )  
               b(3) = ( -1.000000  1.000000 -1.000000 )  


     PseudoPot. # 1 for Na read from file:
     /home/s1333534/quantum_espresso/qe-6.1/pseudo/Na_pbe_v1.uspp.F.UPF
     MD5 check sum: 76a99c7e9422403d3e93cbc85ab7bccb
     Pseudo is Ultrasoft, Zval =  9.0
     Generated by new atomic code, or converted to UPF format
     Using radial grid of  819 points,  5 beta functions with: 
                l(1) =   0
                l(2) =   0
                l(3) =   1
                l(4) =   1
                l(5) =   2
     Q(r) pseudized with  8 coefficients,  rinner =    1.250   1.250   1.250
                                                       1.250   1.250

     atomic species   valence    mass     pseudopotential
        Na             9.00    22.99000     Na( 1.00)

     48 Sym. Ops., with inversion, found



   Cartesian axes

     site n.     atom                  positions (alat units)
         1           Na  tau(   1) = (   0.0000000   0.0000000   0.0000000  )

     number of k points=  4060  Marzari-Vanderbilt smearing, width (Ry)=  0.0200

     Number of k-points >= 100: set verbosity='high' to print them.

     Dense  grid:    19747 G-vectors     FFT dimensions: (  40,  40,  40)

     Smooth grid:     6879 G-vectors     FFT dimensions: (  27,  27,  27)

     Estimated max dynamical RAM per process >       2.00MB

     Estimated total allocated dynamical RAM >       8.01MB

     The potential is recalculated from file :
     ./_ph0/na.fcc.save/charge-density.dat

     Starting wfc are    5 atomic +    4 random wfc

     Band Structure Calculation
     Davidson diagonalization with overlap

     ethr =  1.11E-10,  avg # of iterations = 18.4

     total cpu time spent up to now is      106.8 secs

     End of band structure calculation

     Number of k-points >= 100: set verbosity='high' to print the bands.

     the Fermi energy is     2.5487 ev

     Writing output data file na.fcc.save

                                                                                

     bravais-lattice index     =            2
     lattice parameter (alat)  =       9.3458  a.u.
     unit-cell volume          =     204.0763 (a.u.)^3
     number of atoms/cell      =            1
     number of atomic types    =            1
     kinetic-energy cut-off    =      40.0000  Ry
     charge density cut-off    =     320.0000  Ry
     convergence threshold     =      1.0E-12
     beta                      =       0.7000
     number of iterations used =            4
     Exchange-correlation      = SLA  PW   PBE  PBE ( 1  4  3  4 0 0)


     celldm(1)=    9.34582  celldm(2)=    0.00000  celldm(3)=    0.00000
     celldm(4)=    0.00000  celldm(5)=    0.00000  celldm(6)=    0.00000

     crystal axes: (cart. coord. in units of alat)
               a(1) = ( -0.5000  0.0000  0.5000 )  
               a(2) = (  0.0000  0.5000  0.5000 )  
               a(3) = ( -0.5000  0.5000  0.0000 )  

     reciprocal axes: (cart. coord. in units 2 pi/alat)
               b(1) = ( -1.0000 -1.0000  1.0000 )  
               b(2) = (  1.0000  1.0000  1.0000 )  
               b(3) = ( -1.0000  1.0000 -1.0000 )  


     Atoms inside the unit cell: 

     Cartesian axes

     site n.  atom      mass           positions (alat units)
        1     Na  22.9900   tau(    1) = (    0.00000    0.00000    0.00000  )

     Computing dynamical matrix for 
                    q = (  -0.1250000   0.1250000  -0.1250000 )

      6 Sym.Ops. (no q -> -q+G )


     G cutoff =  707.9870  (   4940 G-vectors)     FFT grid: ( 40, 40, 40)
     G cutoff =  353.9935  (   1720 G-vectors)  smooth grid: ( 27, 27, 27)

     number of k points=  4060  Marzari-Vanderbilt smearing, width (Ry)=  0.0200

     PseudoPot. # 1 for Na read from file:
     /home/s1333534/quantum_espresso/qe-6.1/pseudo/Na_pbe_v1.uspp.F.UPF
     MD5 check sum: 76a99c7e9422403d3e93cbc85ab7bccb
     Pseudo is Ultrasoft, Zval =  9.0
     Generated by new atomic code, or converted to UPF format
     Using radial grid of  819 points,  5 beta functions with: 
                l(1) =   0
                l(2) =   0
                l(3) =   1
                l(4) =   1
                l(5) =   2
     Q(r) pseudized with  8 coefficients,  rinner =    1.250   1.250   1.250
                                                       1.250   1.250

     Mode symmetry, C_3v (3m)   point group:


     Atomic displacements:
     There are   2 irreducible representations

     Representation     1      1 modes -A_1  L_1  To be done

     Representation     2      2 modes -E    L_3  To be done



     Alpha used in Ewald sum =   2.8000
     PHONON       :  2m35.93s CPU     2m45.21s WALL



     Representation #  1 mode #   1

     Self-consistent Calculation

      iter #   1 total cpu time :   183.6 secs   av.it.:   5.7
      thresh= 1.000E-02 alpha_mix =  0.700 |ddv_scf|^2 =  2.583E-01

      iter #   2 total cpu time :   203.1 secs   av.it.:   7.0
      thresh= 1.000E-02 alpha_mix =  0.700 |ddv_scf|^2 =  1.323E+02

      iter #   3 total cpu time :   222.1 secs   av.it.:   7.0
      thresh= 1.000E-02 alpha_mix =  0.700 |ddv_scf|^2 =  4.304E-04

      iter #   4 total cpu time :   237.2 secs   av.it.:   5.0
      thresh= 2.075E-03 alpha_mix =  0.700 |ddv_scf|^2 =  2.518E-07

      iter #   5 total cpu time :   256.3 secs   av.it.:   7.2
      thresh= 5.018E-05 alpha_mix =  0.700 |ddv_scf|^2 =  1.092E-08

      iter #   6 total cpu time :   274.5 secs   av.it.:   6.5
      thresh= 1.045E-05 alpha_mix =  0.700 |ddv_scf|^2 =  8.500E-07

      iter #   7 total cpu time :   288.5 secs   av.it.:   4.6
      thresh= 9.219E-05 alpha_mix =  0.700 |ddv_scf|^2 =  8.442E-11

      iter #   8 total cpu time :   308.4 secs   av.it.:   7.6
      thresh= 9.188E-07 alpha_mix =  0.700 |ddv_scf|^2 =  3.950E-12

      iter #   9 total cpu time :   328.6 secs   av.it.:   7.8
      thresh= 1.987E-07 alpha_mix =  0.700 |ddv_scf|^2 =  1.873E-13

     End of self-consistent calculation

     Convergence has been achieved 


     Representation #  2 modes #   2  3

     Self-consistent Calculation

      iter #   1 total cpu time :   366.5 secs   av.it.:   5.5
      thresh= 1.000E-02 alpha_mix =  0.700 |ddv_scf|^2 =  3.723E-06

      iter #   2 total cpu time :   408.6 secs   av.it.:   8.3
      thresh= 1.930E-04 alpha_mix =  0.700 |ddv_scf|^2 =  6.971E-08

      iter #   3 total cpu time :   452.1 secs   av.it.:   8.5
      thresh= 2.640E-05 alpha_mix =  0.700 |ddv_scf|^2 =  1.139E-09

      iter #   4 total cpu time :   494.0 secs   av.it.:   8.2
      thresh= 3.375E-06 alpha_mix =  0.700 |ddv_scf|^2 =  4.301E-12

      iter #   5 total cpu time :   537.5 secs   av.it.:   8.5
      thresh= 2.074E-07 alpha_mix =  0.700 |ddv_scf|^2 =  9.939E-15

     End of self-consistent calculation

     Convergence has been achieved 

     Number of q in the star =    8
     List of q in the star:
          1  -0.125000000   0.125000000  -0.125000000
          2   0.125000000  -0.125000000  -0.125000000
          3   0.125000000  -0.125000000   0.125000000
          4  -0.125000000   0.125000000   0.125000000
          5   0.125000000   0.125000000  -0.125000000
          6  -0.125000000  -0.125000000  -0.125000000
          7  -0.125000000  -0.125000000   0.125000000
          8   0.125000000   0.125000000   0.125000000

     Diagonalizing the dynamical matrix

     q = (   -0.125000000   0.125000000  -0.125000000 ) 

 **************************************************************************
     freq (    1) =       1.003531 [THz] =      33.474180 [cm-1]
     freq (    2) =       1.003531 [THz] =      33.474180 [cm-1]
     freq (    3) =       2.476246 [THz] =      82.598679 [cm-1]
 **************************************************************************

     Mode symmetry, C_3v (3m)   point group:

     freq (  1 -  2) =         33.5  [cm-1]   --> E    L_3           
     freq (  3 -  3) =         82.6  [cm-1]   --> A_1  L_1           

     Calculation of q =   -0.2500000   0.2500000  -0.2500000

   Info: using nr1, nr2, nr3 values from input

   Info: using nr1, nr2, nr3 values from input

     Parallelization info
     --------------------
     sticks:   dense  smooth     PW     G-vecs:    dense   smooth      PW
     Min         238     118     42                 4933     1718     367
     Max         239     119     43                 4938     1721     368
     Sum         955     475    169                19747     6879    1471



     bravais-lattice index     =            2
     lattice parameter (alat)  =       9.3458  a.u.
     unit-cell volume          =     204.0763 (a.u.)^3
     number of atoms/cell      =            1
     number of atomic types    =            1
     number of electrons       =         9.00
     number of Kohn-Sham states=            9
     kinetic-energy cutoff     =      40.0000  Ry
     charge density cutoff     =     320.0000  Ry
     Exchange-correlation      = SLA  PW   PBE  PBE ( 1  4  3  4 0 0)

     celldm(1)=   9.345822  celldm(2)=   0.000000  celldm(3)=   0.000000
     celldm(4)=   0.000000  celldm(5)=   0.000000  celldm(6)=   0.000000

     crystal axes: (cart. coord. in units of alat)
               a(1) = (  -0.500000   0.000000   0.500000 )  
               a(2) = (   0.000000   0.500000   0.500000 )  
               a(3) = (  -0.500000   0.500000   0.000000 )  

     reciprocal axes: (cart. coord. in units 2 pi/alat)
               b(1) = ( -1.000000 -1.000000  1.000000 )  
               b(2) = (  1.000000  1.000000  1.000000 )  
               b(3) = ( -1.000000  1.000000 -1.000000 )  


     PseudoPot. # 1 for Na read from file:
     /home/s1333534/quantum_espresso/qe-6.1/pseudo/Na_pbe_v1.uspp.F.UPF
     MD5 check sum: 76a99c7e9422403d3e93cbc85ab7bccb
     Pseudo is Ultrasoft, Zval =  9.0
     Generated by new atomic code, or converted to UPF format
     Using radial grid of  819 points,  5 beta functions with: 
                l(1) =   0
                l(2) =   0
                l(3) =   1
                l(4) =   1
                l(5) =   2
     Q(r) pseudized with  8 coefficients,  rinner =    1.250   1.250   1.250
                                                       1.250   1.250

     atomic species   valence    mass     pseudopotential
        Na             9.00    22.99000     Na( 1.00)

     48 Sym. Ops., with inversion, found



   Cartesian axes

     site n.     atom                  positions (alat units)
         1           Na  tau(   1) = (   0.0000000   0.0000000   0.0000000  )

     number of k points=  4060  Marzari-Vanderbilt smearing, width (Ry)=  0.0200

     Number of k-points >= 100: set verbosity='high' to print them.

     Dense  grid:    19747 G-vectors     FFT dimensions: (  40,  40,  40)

     Smooth grid:     6879 G-vectors     FFT dimensions: (  27,  27,  27)

     Estimated max dynamical RAM per process >       2.00MB

     Estimated total allocated dynamical RAM >       8.01MB

     The potential is recalculated from file :
     ./_ph0/na.fcc.save/charge-density.dat

     Starting wfc are    5 atomic +    4 random wfc

     Band Structure Calculation
     Davidson diagonalization with overlap

     ethr =  1.11E-10,  avg # of iterations = 18.5

     total cpu time spent up to now is      216.7 secs

     End of band structure calculation

     Number of k-points >= 100: set verbosity='high' to print the bands.

     the Fermi energy is     2.5487 ev

     Writing output data file na.fcc.save

                                                                                

     bravais-lattice index     =            2
     lattice parameter (alat)  =       9.3458  a.u.
     unit-cell volume          =     204.0763 (a.u.)^3
     number of atoms/cell      =            1
     number of atomic types    =            1
     kinetic-energy cut-off    =      40.0000  Ry
     charge density cut-off    =     320.0000  Ry
     convergence threshold     =      1.0E-12
     beta                      =       0.7000
     number of iterations used =            4
     Exchange-correlation      = SLA  PW   PBE  PBE ( 1  4  3  4 0 0)


     celldm(1)=    9.34582  celldm(2)=    0.00000  celldm(3)=    0.00000
     celldm(4)=    0.00000  celldm(5)=    0.00000  celldm(6)=    0.00000

     crystal axes: (cart. coord. in units of alat)
               a(1) = ( -0.5000  0.0000  0.5000 )  
               a(2) = (  0.0000  0.5000  0.5000 )  
               a(3) = ( -0.5000  0.5000  0.0000 )  

     reciprocal axes: (cart. coord. in units 2 pi/alat)
               b(1) = ( -1.0000 -1.0000  1.0000 )  
               b(2) = (  1.0000  1.0000  1.0000 )  
               b(3) = ( -1.0000  1.0000 -1.0000 )  


     Atoms inside the unit cell: 

     Cartesian axes

     site n.  atom      mass           positions (alat units)
        1     Na  22.9900   tau(    1) = (    0.00000    0.00000    0.00000  )

     Computing dynamical matrix for 
                    q = (  -0.2500000   0.2500000  -0.2500000 )

      6 Sym.Ops. (no q -> -q+G )


     G cutoff =  707.9870  (   4938 G-vectors)     FFT grid: ( 40, 40, 40)
     G cutoff =  353.9935  (   1721 G-vectors)  smooth grid: ( 27, 27, 27)

     number of k points=  4060  Marzari-Vanderbilt smearing, width (Ry)=  0.0200

     PseudoPot. # 1 for Na read from file:
     /home/s1333534/quantum_espresso/qe-6.1/pseudo/Na_pbe_v1.uspp.F.UPF
     MD5 check sum: 76a99c7e9422403d3e93cbc85ab7bccb
     Pseudo is Ultrasoft, Zval =  9.0
     Generated by new atomic code, or converted to UPF format
     Using radial grid of  819 points,  5 beta functions with: 
                l(1) =   0
                l(2) =   0
                l(3) =   1
                l(4) =   1
                l(5) =   2
     Q(r) pseudized with  8 coefficients,  rinner =    1.250   1.250   1.250
                                                       1.250   1.250

     Mode symmetry, C_3v (3m)   point group:


     Atomic displacements:
     There are   2 irreducible representations

     Representation     1      1 modes -A_1  L_1  To be done

     Representation     2      2 modes -E    L_3  To be done



     Alpha used in Ewald sum =   2.8000
     PHONON       : 10m13.86s CPU    10m56.07s WALL



     Representation #  1 mode #   1

     Self-consistent Calculation

      iter #   1 total cpu time :   674.5 secs   av.it.:   5.7
      thresh= 1.000E-02 alpha_mix =  0.700 |ddv_scf|^2 =  4.126E-03

      iter #   2 total cpu time :   692.1 secs   av.it.:   6.2
      thresh= 6.424E-03 alpha_mix =  0.700 |ddv_scf|^2 =  1.031E-01

      iter #   3 total cpu time :   708.6 secs   av.it.:   5.8
      thresh= 1.000E-02 alpha_mix =  0.700 |ddv_scf|^2 =  3.117E-06

      iter #   4 total cpu time :   728.1 secs   av.it.:   7.3
      thresh= 1.765E-04 alpha_mix =  0.700 |ddv_scf|^2 =  1.286E-08

      iter #   5 total cpu time :   749.1 secs   av.it.:   8.1
      thresh= 1.134E-05 alpha_mix =  0.700 |ddv_scf|^2 =  1.693E-09

      iter #   6 total cpu time :   769.9 secs   av.it.:   7.8
      thresh= 4.114E-06 alpha_mix =  0.700 |ddv_scf|^2 =  2.682E-11

      iter #   7 total cpu time :   790.8 secs   av.it.:   8.1
      thresh= 5.179E-07 alpha_mix =  0.700 |ddv_scf|^2 =  7.204E-11

      iter #   8 total cpu time :   807.2 secs   av.it.:   5.8
      thresh= 8.487E-07 alpha_mix =  0.700 |ddv_scf|^2 =  1.590E-11

      iter #   9 total cpu time :   826.0 secs   av.it.:   6.8
      thresh= 3.987E-07 alpha_mix =  0.700 |ddv_scf|^2 =  2.005E-12

      iter #  10 total cpu time :   844.7 secs   av.it.:   6.9
      thresh= 1.416E-07 alpha_mix =  0.700 |ddv_scf|^2 =  7.643E-14

     End of self-consistent calculation

     Convergence has been achieved 


     Representation #  2 modes #   2  3

     Self-consistent Calculation

      iter #   1 total cpu time :   882.1 secs   av.it.:   5.6
      thresh= 1.000E-02 alpha_mix =  0.700 |ddv_scf|^2 =  3.811E-06

      iter #   2 total cpu time :   925.2 secs   av.it.:   8.3
      thresh= 1.952E-04 alpha_mix =  0.700 |ddv_scf|^2 =  6.912E-08

      iter #   3 total cpu time :   968.9 secs   av.it.:   8.6
      thresh= 2.629E-05 alpha_mix =  0.700 |ddv_scf|^2 =  1.365E-09

      iter #   4 total cpu time :  1011.2 secs   av.it.:   8.2
      thresh= 3.695E-06 alpha_mix =  0.700 |ddv_scf|^2 =  5.063E-12

      iter #   5 total cpu time :  1054.8 secs   av.it.:   8.6
      thresh= 2.250E-07 alpha_mix =  0.700 |ddv_scf|^2 =  9.975E-15

     End of self-consistent calculation

     Convergence has been achieved 

     Number of q in the star =    8
     List of q in the star:
          1  -0.250000000   0.250000000  -0.250000000
          2   0.250000000  -0.250000000  -0.250000000
          3   0.250000000  -0.250000000   0.250000000
          4  -0.250000000   0.250000000   0.250000000
          5   0.250000000   0.250000000  -0.250000000
          6  -0.250000000  -0.250000000  -0.250000000
          7  -0.250000000  -0.250000000   0.250000000
          8   0.250000000   0.250000000   0.250000000

     Diagonalizing the dynamical matrix

     q = (   -0.250000000   0.250000000  -0.250000000 ) 

 **************************************************************************
     freq (    1) =       1.470559 [THz] =      49.052570 [cm-1]
     freq (    2) =       1.470559 [THz] =      49.052570 [cm-1]
     freq (    3) =       3.833368 [THz] =     127.867403 [cm-1]
 **************************************************************************

     Mode symmetry, C_3v (3m)   point group:

     freq (  1 -  2) =         49.1  [cm-1]   --> E    L_3           
     freq (  3 -  3) =        127.9  [cm-1]   --> A_1  L_1           

     Calculation of q =   -0.3750000   0.3750000  -0.3750000

   Info: using nr1, nr2, nr3 values from input

   Info: using nr1, nr2, nr3 values from input

     Parallelization info
     --------------------
     sticks:   dense  smooth     PW     G-vecs:    dense   smooth      PW
     Min         238     118     46                 4933     1718     409
     Max         239     119     47                 4938     1721     411
     Sum         955     475    187                19747     6879    1639



     bravais-lattice index     =            2
     lattice parameter (alat)  =       9.3458  a.u.
     unit-cell volume          =     204.0763 (a.u.)^3
     number of atoms/cell      =            1
     number of atomic types    =            1
     number of electrons       =         9.00
     number of Kohn-Sham states=            9
     kinetic-energy cutoff     =      40.0000  Ry
     charge density cutoff     =     320.0000  Ry
     Exchange-correlation      = SLA  PW   PBE  PBE ( 1  4  3  4 0 0)

     celldm(1)=   9.345822  celldm(2)=   0.000000  celldm(3)=   0.000000
     celldm(4)=   0.000000  celldm(5)=   0.000000  celldm(6)=   0.000000

     crystal axes: (cart. coord. in units of alat)
               a(1) = (  -0.500000   0.000000   0.500000 )  
               a(2) = (   0.000000   0.500000   0.500000 )  
               a(3) = (  -0.500000   0.500000   0.000000 )  

     reciprocal axes: (cart. coord. in units 2 pi/alat)
               b(1) = ( -1.000000 -1.000000  1.000000 )  
               b(2) = (  1.000000  1.000000  1.000000 )  
               b(3) = ( -1.000000  1.000000 -1.000000 )  


     PseudoPot. # 1 for Na read from file:
     /home/s1333534/quantum_espresso/qe-6.1/pseudo/Na_pbe_v1.uspp.F.UPF
     MD5 check sum: 76a99c7e9422403d3e93cbc85ab7bccb
     Pseudo is Ultrasoft, Zval =  9.0
     Generated by new atomic code, or converted to UPF format
     Using radial grid of  819 points,  5 beta functions with: 
                l(1) =   0
                l(2) =   0
                l(3) =   1
                l(4) =   1
                l(5) =   2
     Q(r) pseudized with  8 coefficients,  rinner =    1.250   1.250   1.250
                                                       1.250   1.250

     atomic species   valence    mass     pseudopotential
        Na             9.00    22.99000     Na( 1.00)

     48 Sym. Ops., with inversion, found



   Cartesian axes

     site n.     atom                  positions (alat units)
         1           Na  tau(   1) = (   0.0000000   0.0000000   0.0000000  )

     number of k points=  4060  Marzari-Vanderbilt smearing, width (Ry)=  0.0200

     Number of k-points >= 100: set verbosity='high' to print them.

     Dense  grid:    19747 G-vectors     FFT dimensions: (  40,  40,  40)

     Smooth grid:     6879 G-vectors     FFT dimensions: (  27,  27,  27)

     Estimated max dynamical RAM per process >       2.00MB

     Estimated total allocated dynamical RAM >       8.01MB

     The potential is recalculated from file :
     ./_ph0/na.fcc.save/charge-density.dat

     Starting wfc are    5 atomic +    4 random wfc

     Band Structure Calculation
     Davidson diagonalization with overlap

     ethr =  1.11E-10,  avg # of iterations = 18.5

     total cpu time spent up to now is      328.0 secs

     End of band structure calculation

     Number of k-points >= 100: set verbosity='high' to print the bands.

     the Fermi energy is     2.5487 ev

     Writing output data file na.fcc.save

                                                                                

     bravais-lattice index     =            2
     lattice parameter (alat)  =       9.3458  a.u.
     unit-cell volume          =     204.0763 (a.u.)^3
     number of atoms/cell      =            1
     number of atomic types    =            1
     kinetic-energy cut-off    =      40.0000  Ry
     charge density cut-off    =     320.0000  Ry
     convergence threshold     =      1.0E-12
     beta                      =       0.7000
     number of iterations used =            4
     Exchange-correlation      = SLA  PW   PBE  PBE ( 1  4  3  4 0 0)


     celldm(1)=    9.34582  celldm(2)=    0.00000  celldm(3)=    0.00000
     celldm(4)=    0.00000  celldm(5)=    0.00000  celldm(6)=    0.00000

     crystal axes: (cart. coord. in units of alat)
               a(1) = ( -0.5000  0.0000  0.5000 )  
               a(2) = (  0.0000  0.5000  0.5000 )  
               a(3) = ( -0.5000  0.5000  0.0000 )  

     reciprocal axes: (cart. coord. in units 2 pi/alat)
               b(1) = ( -1.0000 -1.0000  1.0000 )  
               b(2) = (  1.0000  1.0000  1.0000 )  
               b(3) = ( -1.0000  1.0000 -1.0000 )  


     Atoms inside the unit cell: 

     Cartesian axes

     site n.  atom      mass           positions (alat units)
        1     Na  22.9900   tau(    1) = (    0.00000    0.00000    0.00000  )

     Computing dynamical matrix for 
                    q = (  -0.3750000   0.3750000  -0.3750000 )

      6 Sym.Ops. (no q -> -q+G )


     G cutoff =  707.9870  (   4938 G-vectors)     FFT grid: ( 40, 40, 40)
     G cutoff =  353.9935  (   1720 G-vectors)  smooth grid: ( 27, 27, 27)

     number of k points=  4060  Marzari-Vanderbilt smearing, width (Ry)=  0.0200

     PseudoPot. # 1 for Na read from file:
     /home/s1333534/quantum_espresso/qe-6.1/pseudo/Na_pbe_v1.uspp.F.UPF
     MD5 check sum: 76a99c7e9422403d3e93cbc85ab7bccb
     Pseudo is Ultrasoft, Zval =  9.0
     Generated by new atomic code, or converted to UPF format
     Using radial grid of  819 points,  5 beta functions with: 
                l(1) =   0
                l(2) =   0
                l(3) =   1
                l(4) =   1
                l(5) =   2
     Q(r) pseudized with  8 coefficients,  rinner =    1.250   1.250   1.250
                                                       1.250   1.250

     Mode symmetry, C_3v (3m)   point group:


     Atomic displacements:
     There are   2 irreducible representations

     Representation     1      1 modes -A_1  L_1  To be done

     Representation     2      2 modes -E    L_3  To be done



     Alpha used in Ewald sum =   2.8000
     PHONON       : 18m16.44s CPU    19m34.91s WALL



     Representation #  1 mode #   1

     Self-consistent Calculation

      iter #   1 total cpu time :  1193.6 secs   av.it.:   5.7
      thresh= 1.000E-02 alpha_mix =  0.700 |ddv_scf|^2 =  4.172E-04

      iter #   2 total cpu time :  1213.0 secs   av.it.:   6.7
      thresh= 2.043E-03 alpha_mix =  0.700 |ddv_scf|^2 =  1.322E-03

      iter #   3 total cpu time :  1230.0 secs   av.it.:   6.0
      thresh= 3.636E-03 alpha_mix =  0.700 |ddv_scf|^2 =  5.993E-07

      iter #   4 total cpu time :  1250.5 secs   av.it.:   7.7
      thresh= 7.742E-05 alpha_mix =  0.700 |ddv_scf|^2 =  1.519E-08

      iter #   5 total cpu time :  1271.8 secs   av.it.:   8.1
      thresh= 1.232E-05 alpha_mix =  0.700 |ddv_scf|^2 =  4.623E-10

      iter #   6 total cpu time :  1293.0 secs   av.it.:   8.0
      thresh= 2.150E-06 alpha_mix =  0.700 |ddv_scf|^2 =  2.564E-11

      iter #   7 total cpu time :  1313.1 secs   av.it.:   7.6
      thresh= 5.064E-07 alpha_mix =  0.700 |ddv_scf|^2 =  1.480E-12

      iter #   8 total cpu time :  1334.1 secs   av.it.:   8.0
      thresh= 1.216E-07 alpha_mix =  0.700 |ddv_scf|^2 =  2.498E-14

     End of self-consistent calculation

     Convergence has been achieved 


     Representation #  2 modes #   2  3

     Self-consistent Calculation

      iter #   1 total cpu time :  1371.7 secs   av.it.:   5.6
      thresh= 1.000E-02 alpha_mix =  0.700 |ddv_scf|^2 =  3.895E-06

      iter #   2 total cpu time :  1415.0 secs   av.it.:   8.3
      thresh= 1.974E-04 alpha_mix =  0.700 |ddv_scf|^2 =  6.867E-08

      iter #   3 total cpu time :  1459.2 secs   av.it.:   8.6
      thresh= 2.620E-05 alpha_mix =  0.700 |ddv_scf|^2 =  1.566E-09

      iter #   4 total cpu time :  1501.6 secs   av.it.:   8.2
      thresh= 3.957E-06 alpha_mix =  0.700 |ddv_scf|^2 =  5.724E-12

      iter #   5 total cpu time :  1547.0 secs   av.it.:   8.6
      thresh= 2.392E-07 alpha_mix =  0.700 |ddv_scf|^2 =  1.015E-14

     End of self-consistent calculation

     Convergence has been achieved 

     Number of q in the star =    8
     List of q in the star:
          1  -0.375000000   0.375000000  -0.375000000
          2   0.375000000  -0.375000000  -0.375000000
          3   0.375000000  -0.375000000   0.375000000
          4  -0.375000000   0.375000000   0.375000000
          5   0.375000000   0.375000000  -0.375000000
          6  -0.375000000  -0.375000000  -0.375000000
          7  -0.375000000  -0.375000000   0.375000000
          8   0.375000000   0.375000000   0.375000000

     Diagonalizing the dynamical matrix

     q = (   -0.375000000   0.375000000  -0.375000000 ) 

 **************************************************************************
     freq (    1) =       1.850467 [THz] =      61.724935 [cm-1]
     freq (    2) =       1.850467 [THz] =      61.724935 [cm-1]
     freq (    3) =       4.903031 [THz] =     163.547509 [cm-1]
 **************************************************************************

     Mode symmetry, C_3v (3m)   point group:

     freq (  1 -  2) =         61.7  [cm-1]   --> E    L_3           
     freq (  3 -  3) =        163.5  [cm-1]   --> A_1  L_1           

     Calculation of q =    0.5000000  -0.5000000   0.5000000

   Info: using nr1, nr2, nr3 values from input

   Info: using nr1, nr2, nr3 values from input

     Parallelization info
     --------------------
     sticks:   dense  smooth     PW     G-vecs:    dense   smooth      PW
     Min         238     118     46                 4933     1718     420
     Max         239     119     47                 4938     1721     423
     Sum         955     475    187                19747     6879    1687



     bravais-lattice index     =            2
     lattice parameter (alat)  =       9.3458  a.u.
     unit-cell volume          =     204.0763 (a.u.)^3
     number of atoms/cell      =            1
     number of atomic types    =            1
     number of electrons       =         9.00
     number of Kohn-Sham states=            9
     kinetic-energy cutoff     =      40.0000  Ry
     charge density cutoff     =     320.0000  Ry
     Exchange-correlation      = SLA  PW   PBE  PBE ( 1  4  3  4 0 0)

     celldm(1)=   9.345822  celldm(2)=   0.000000  celldm(3)=   0.000000
     celldm(4)=   0.000000  celldm(5)=   0.000000  celldm(6)=   0.000000

     crystal axes: (cart. coord. in units of alat)
               a(1) = (  -0.500000   0.000000   0.500000 )  
               a(2) = (   0.000000   0.500000   0.500000 )  
               a(3) = (  -0.500000   0.500000   0.000000 )  

     reciprocal axes: (cart. coord. in units 2 pi/alat)
               b(1) = ( -1.000000 -1.000000  1.000000 )  
               b(2) = (  1.000000  1.000000  1.000000 )  
               b(3) = ( -1.000000  1.000000 -1.000000 )  


     PseudoPot. # 1 for Na read from file:
     /home/s1333534/quantum_espresso/qe-6.1/pseudo/Na_pbe_v1.uspp.F.UPF
     MD5 check sum: 76a99c7e9422403d3e93cbc85ab7bccb
     Pseudo is Ultrasoft, Zval =  9.0
     Generated by new atomic code, or converted to UPF format
     Using radial grid of  819 points,  5 beta functions with: 
                l(1) =   0
                l(2) =   0
                l(3) =   1
                l(4) =   1
                l(5) =   2
     Q(r) pseudized with  8 coefficients,  rinner =    1.250   1.250   1.250
                                                       1.250   1.250

     atomic species   valence    mass     pseudopotential
        Na             9.00    22.99000     Na( 1.00)

     48 Sym. Ops., with inversion, found



   Cartesian axes

     site n.     atom                  positions (alat units)
         1           Na  tau(   1) = (   0.0000000   0.0000000   0.0000000  )

     number of k points=  2030  Marzari-Vanderbilt smearing, width (Ry)=  0.0200

     Number of k-points >= 100: set verbosity='high' to print them.

     Dense  grid:    19747 G-vectors     FFT dimensions: (  40,  40,  40)

     Smooth grid:     6879 G-vectors     FFT dimensions: (  27,  27,  27)

     Estimated max dynamical RAM per process >       2.00MB

     Estimated total allocated dynamical RAM >       8.01MB

     The potential is recalculated from file :
     ./_ph0/na.fcc.save/charge-density.dat

     Starting wfc are    5 atomic +    4 random wfc

     Band Structure Calculation
     Davidson diagonalization with overlap

     ethr =  1.11E-10,  avg # of iterations = 18.4

     total cpu time spent up to now is      384.9 secs

     End of band structure calculation

     Number of k-points >= 100: set verbosity='high' to print the bands.

     the Fermi energy is     2.5487 ev

     Writing output data file na.fcc.save

                                                                                

     bravais-lattice index     =            2
     lattice parameter (alat)  =       9.3458  a.u.
     unit-cell volume          =     204.0763 (a.u.)^3
     number of atoms/cell      =            1
     number of atomic types    =            1
     kinetic-energy cut-off    =      40.0000  Ry
     charge density cut-off    =     320.0000  Ry
     convergence threshold     =      1.0E-12
     beta                      =       0.7000
     number of iterations used =            4
     Exchange-correlation      = SLA  PW   PBE  PBE ( 1  4  3  4 0 0)


     celldm(1)=    9.34582  celldm(2)=    0.00000  celldm(3)=    0.00000
     celldm(4)=    0.00000  celldm(5)=    0.00000  celldm(6)=    0.00000

     crystal axes: (cart. coord. in units of alat)
               a(1) = ( -0.5000  0.0000  0.5000 )  
               a(2) = (  0.0000  0.5000  0.5000 )  
               a(3) = ( -0.5000  0.5000  0.0000 )  

     reciprocal axes: (cart. coord. in units 2 pi/alat)
               b(1) = ( -1.0000 -1.0000  1.0000 )  
               b(2) = (  1.0000  1.0000  1.0000 )  
               b(3) = ( -1.0000  1.0000 -1.0000 )  


     Atoms inside the unit cell: 

     Cartesian axes

     site n.  atom      mass           positions (alat units)
        1     Na  22.9900   tau(    1) = (    0.00000    0.00000    0.00000  )

     Computing dynamical matrix for 
                    q = (   0.5000000  -0.5000000   0.5000000 )

     13 Sym.Ops. (with q -> -q+G )


     G cutoff =  707.9870  (   4938 G-vectors)     FFT grid: ( 40, 40, 40)
     G cutoff =  353.9935  (   1720 G-vectors)  smooth grid: ( 27, 27, 27)

     number of k points=  2030  Marzari-Vanderbilt smearing, width (Ry)=  0.0200

     PseudoPot. # 1 for Na read from file:
     /home/s1333534/quantum_espresso/qe-6.1/pseudo/Na_pbe_v1.uspp.F.UPF
     MD5 check sum: 76a99c7e9422403d3e93cbc85ab7bccb
     Pseudo is Ultrasoft, Zval =  9.0
     Generated by new atomic code, or converted to UPF format
     Using radial grid of  819 points,  5 beta functions with: 
                l(1) =   0
                l(2) =   0
                l(3) =   1
                l(4) =   1
                l(5) =   2
     Q(r) pseudized with  8 coefficients,  rinner =    1.250   1.250   1.250
                                                       1.250   1.250

     Mode symmetry, D_3d (-3m)  point group:


     Atomic displacements:
     There are   2 irreducible representations

     Representation     1      1 modes -A_2u L_2'  To be done

     Representation     2      2 modes -E_u  L_3'  To be done



     Alpha used in Ewald sum =   2.8000
     PHONON       : 24m57.73s CPU    26m47.37s WALL



     Representation #  1 mode #   1

     Self-consistent Calculation

      iter #   1 total cpu time :  1616.9 secs   av.it.:   5.7
      thresh= 1.000E-02 alpha_mix =  0.700 |ddv_scf|^2 =  1.590E-04

      iter #   2 total cpu time :  1626.2 secs   av.it.:   6.8
      thresh= 1.261E-03 alpha_mix =  0.700 |ddv_scf|^2 =  9.467E-05

      iter #   3 total cpu time :  1635.4 secs   av.it.:   6.6
      thresh= 9.730E-04 alpha_mix =  0.700 |ddv_scf|^2 =  1.088E-07

      iter #   4 total cpu time :  1645.9 secs   av.it.:   7.8
      thresh= 3.298E-05 alpha_mix =  0.700 |ddv_scf|^2 =  4.148E-10

      iter #   5 total cpu time :  1655.2 secs   av.it.:   6.8
      thresh= 2.037E-06 alpha_mix =  0.700 |ddv_scf|^2 =  9.495E-12

      iter #   6 total cpu time :  1664.2 secs   av.it.:   6.4
      thresh= 3.081E-07 alpha_mix =  0.700 |ddv_scf|^2 =  2.363E-14

     End of self-consistent calculation

     Convergence has been achieved 


     Representation #  2 modes #   2  3

     Self-consistent Calculation

      iter #   1 total cpu time :  1682.9 secs   av.it.:   5.5
      thresh= 1.000E-02 alpha_mix =  0.700 |ddv_scf|^2 =  3.928E-06

      iter #   2 total cpu time :  1704.3 secs   av.it.:   8.2
      thresh= 1.982E-04 alpha_mix =  0.700 |ddv_scf|^2 =  6.861E-08

      iter #   3 total cpu time :  1726.4 secs   av.it.:   8.5
      thresh= 2.619E-05 alpha_mix =  0.700 |ddv_scf|^2 =  1.640E-09

      iter #   4 total cpu time :  1747.4 secs   av.it.:   7.8
      thresh= 4.049E-06 alpha_mix =  0.700 |ddv_scf|^2 =  6.009E-12

      iter #   5 total cpu time :  1768.8 secs   av.it.:   8.1
      thresh= 2.451E-07 alpha_mix =  0.700 |ddv_scf|^2 =  1.035E-14

     End of self-consistent calculation

     Convergence has been achieved 

     Number of q in the star =    4
     List of q in the star:
          1   0.500000000  -0.500000000   0.500000000
          2   0.500000000   0.500000000   0.500000000
          3  -0.500000000   0.500000000   0.500000000
          4   0.500000000   0.500000000  -0.500000000

     Diagonalizing the dynamical matrix

     q = (    0.500000000  -0.500000000   0.500000000 ) 

 **************************************************************************
     freq (    1) =       2.035609 [THz] =      67.900618 [cm-1]
     freq (    2) =       2.035609 [THz] =      67.900618 [cm-1]
     freq (    3) =       5.315183 [THz] =     177.295425 [cm-1]
 **************************************************************************

     Mode symmetry, D_3d (-3m)  point group:

     freq (  1 -  2) =         67.9  [cm-1]   --> E_u  L_3'          
     freq (  3 -  3) =        177.3  [cm-1]   --> A_2u L_2'          

     Calculation of q =    0.0000000   0.2500000   0.0000000

   Info: using nr1, nr2, nr3 values from input

   Info: using nr1, nr2, nr3 values from input

     Parallelization info
     --------------------
     sticks:   dense  smooth     PW     G-vecs:    dense   smooth      PW
     Min         238     118     40                 4935     1718     362
     Max         239     119     41                 4940     1721     366
     Sum         955     475    163                19747     6879    1459



     bravais-lattice index     =            2
     lattice parameter (alat)  =       9.3458  a.u.
     unit-cell volume          =     204.0763 (a.u.)^3
     number of atoms/cell      =            1
     number of atomic types    =            1
     number of electrons       =         9.00
     number of Kohn-Sham states=            9
     kinetic-energy cutoff     =      40.0000  Ry
     charge density cutoff     =     320.0000  Ry
     Exchange-correlation      = SLA  PW   PBE  PBE ( 1  4  3  4 0 0)

     celldm(1)=   9.345822  celldm(2)=   0.000000  celldm(3)=   0.000000
     celldm(4)=   0.000000  celldm(5)=   0.000000  celldm(6)=   0.000000

     crystal axes: (cart. coord. in units of alat)
               a(1) = (  -0.500000   0.000000   0.500000 )  
               a(2) = (   0.000000   0.500000   0.500000 )  
               a(3) = (  -0.500000   0.500000   0.000000 )  

     reciprocal axes: (cart. coord. in units 2 pi/alat)
               b(1) = ( -1.000000 -1.000000  1.000000 )  
               b(2) = (  1.000000  1.000000  1.000000 )  
               b(3) = ( -1.000000  1.000000 -1.000000 )  


     PseudoPot. # 1 for Na read from file:
     /home/s1333534/quantum_espresso/qe-6.1/pseudo/Na_pbe_v1.uspp.F.UPF
     MD5 check sum: 76a99c7e9422403d3e93cbc85ab7bccb
     Pseudo is Ultrasoft, Zval =  9.0
     Generated by new atomic code, or converted to UPF format
     Using radial grid of  819 points,  5 beta functions with: 
                l(1) =   0
                l(2) =   0
                l(3) =   1
                l(4) =   1
                l(5) =   2
     Q(r) pseudized with  8 coefficients,  rinner =    1.250   1.250   1.250
                                                       1.250   1.250

     atomic species   valence    mass     pseudopotential
        Na             9.00    22.99000     Na( 1.00)

     48 Sym. Ops., with inversion, found



   Cartesian axes

     site n.     atom                  positions (alat units)
         1           Na  tau(   1) = (   0.0000000   0.0000000   0.0000000  )

     number of k points=  2940  Marzari-Vanderbilt smearing, width (Ry)=  0.0200

     Number of k-points >= 100: set verbosity='high' to print them.

     Dense  grid:    19747 G-vectors     FFT dimensions: (  40,  40,  40)

     Smooth grid:     6879 G-vectors     FFT dimensions: (  27,  27,  27)

     Estimated max dynamical RAM per process >       2.00MB

     Estimated total allocated dynamical RAM >       8.01MB

     The potential is recalculated from file :
     ./_ph0/na.fcc.save/charge-density.dat

     Starting wfc are    5 atomic +    4 random wfc

     Band Structure Calculation
     Davidson diagonalization with overlap

     ethr =  1.11E-10,  avg # of iterations = 18.4

     total cpu time spent up to now is      463.0 secs

     End of band structure calculation

     Number of k-points >= 100: set verbosity='high' to print the bands.

     the Fermi energy is     2.5487 ev

     Writing output data file na.fcc.save

                                                                                

     bravais-lattice index     =            2
     lattice parameter (alat)  =       9.3458  a.u.
     unit-cell volume          =     204.0763 (a.u.)^3
     number of atoms/cell      =            1
     number of atomic types    =            1
     kinetic-energy cut-off    =      40.0000  Ry
     charge density cut-off    =     320.0000  Ry
     convergence threshold     =      1.0E-12
     beta                      =       0.7000
     number of iterations used =            4
     Exchange-correlation      = SLA  PW   PBE  PBE ( 1  4  3  4 0 0)


     celldm(1)=    9.34582  celldm(2)=    0.00000  celldm(3)=    0.00000
     celldm(4)=    0.00000  celldm(5)=    0.00000  celldm(6)=    0.00000

     crystal axes: (cart. coord. in units of alat)
               a(1) = ( -0.5000  0.0000  0.5000 )  
               a(2) = (  0.0000  0.5000  0.5000 )  
               a(3) = ( -0.5000  0.5000  0.0000 )  

     reciprocal axes: (cart. coord. in units 2 pi/alat)
               b(1) = ( -1.0000 -1.0000  1.0000 )  
               b(2) = (  1.0000  1.0000  1.0000 )  
               b(3) = ( -1.0000  1.0000 -1.0000 )  


     Atoms inside the unit cell: 

     Cartesian axes

     site n.  atom      mass           positions (alat units)
        1     Na  22.9900   tau(    1) = (    0.00000    0.00000    0.00000  )

     Computing dynamical matrix for 
                    q = (   0.0000000   0.2500000   0.0000000 )

      8 Sym.Ops. (no q -> -q+G )


     G cutoff =  707.9870  (   4940 G-vectors)     FFT grid: ( 40, 40, 40)
     G cutoff =  353.9935  (   1720 G-vectors)  smooth grid: ( 27, 27, 27)

     number of k points=  2940  Marzari-Vanderbilt smearing, width (Ry)=  0.0200

     PseudoPot. # 1 for Na read from file:
     /home/s1333534/quantum_espresso/qe-6.1/pseudo/Na_pbe_v1.uspp.F.UPF
     MD5 check sum: 76a99c7e9422403d3e93cbc85ab7bccb
     Pseudo is Ultrasoft, Zval =  9.0
     Generated by new atomic code, or converted to UPF format
     Using radial grid of  819 points,  5 beta functions with: 
                l(1) =   0
                l(2) =   0
                l(3) =   1
                l(4) =   1
                l(5) =   2
     Q(r) pseudized with  8 coefficients,  rinner =    1.250   1.250   1.250
                                                       1.250   1.250

     Mode symmetry, C_4v (4mm)  point group:


     Atomic displacements:
     There are   2 irreducible representations

     Representation     1      1 modes -A_1  G_1 D_1  To be done

     Representation     2      2 modes -E    G_5 D_5  To be done



     Alpha used in Ewald sum =   2.8000
     PHONON       : 28m48.46s CPU    30m54.40s WALL



     Representation #  1 mode #   1

     Self-consistent Calculation

      iter #   1 total cpu time :  1867.5 secs   av.it.:   5.7
      thresh= 1.000E-02 alpha_mix =  0.700 |ddv_scf|^2 =  1.141E-01

      iter #   2 total cpu time :  1880.9 secs   av.it.:   6.8
      thresh= 1.000E-02 alpha_mix =  0.700 |ddv_scf|^2 =  3.357E+01

      iter #   3 total cpu time :  1894.9 secs   av.it.:   6.9
      thresh= 1.000E-02 alpha_mix =  0.700 |ddv_scf|^2 =  3.387E-05

      iter #   4 total cpu time :  1907.3 secs   av.it.:   6.3
      thresh= 5.820E-04 alpha_mix =  0.700 |ddv_scf|^2 =  2.021E-07

      iter #   5 total cpu time :  1921.6 secs   av.it.:   7.2
      thresh= 4.496E-05 alpha_mix =  0.700 |ddv_scf|^2 =  5.466E-09

      iter #   6 total cpu time :  1935.1 secs   av.it.:   7.0
      thresh= 7.393E-06 alpha_mix =  0.700 |ddv_scf|^2 =  2.702E-07

      iter #   7 total cpu time :  1945.3 secs   av.it.:   4.7
      thresh= 5.198E-05 alpha_mix =  0.700 |ddv_scf|^2 =  8.266E-11

      iter #   8 total cpu time :  1959.8 secs   av.it.:   7.7
      thresh= 9.092E-07 alpha_mix =  0.700 |ddv_scf|^2 =  2.575E-12

      iter #   9 total cpu time :  1974.4 secs   av.it.:   7.8
      thresh= 1.605E-07 alpha_mix =  0.700 |ddv_scf|^2 =  2.237E-13

     End of self-consistent calculation

     Convergence has been achieved 


     Representation #  2 modes #   2  3

     Self-consistent Calculation

      iter #   1 total cpu time :  2000.9 secs   av.it.:   5.6
      thresh= 1.000E-02 alpha_mix =  0.700 |ddv_scf|^2 =  3.841E-06

      iter #   2 total cpu time :  2032.0 secs   av.it.:   8.3
      thresh= 1.960E-04 alpha_mix =  0.700 |ddv_scf|^2 =  6.812E-08

      iter #   3 total cpu time :  2063.1 secs   av.it.:   8.5
      thresh= 2.610E-05 alpha_mix =  0.700 |ddv_scf|^2 =  1.512E-09

      iter #   4 total cpu time :  2093.8 secs   av.it.:   8.2
      thresh= 3.888E-06 alpha_mix =  0.700 |ddv_scf|^2 =  5.359E-12

      iter #   5 total cpu time :  2125.0 secs   av.it.:   8.5
      thresh= 2.315E-07 alpha_mix =  0.700 |ddv_scf|^2 =  9.076E-15

     End of self-consistent calculation

     Convergence has been achieved 

     Number of q in the star =    6
     List of q in the star:
          1   0.000000000   0.250000000   0.000000000
          2   0.000000000  -0.250000000   0.000000000
          3   0.250000000   0.000000000   0.000000000
          4   0.000000000   0.000000000   0.250000000
          5   0.000000000   0.000000000  -0.250000000
          6  -0.250000000   0.000000000   0.000000000

     Diagonalizing the dynamical matrix

     q = (    0.000000000   0.250000000   0.000000000 ) 

 **************************************************************************
     freq (    1) =       1.450661 [THz] =      48.388848 [cm-1]
     freq (    2) =       1.450661 [THz] =      48.388848 [cm-1]
     freq (    3) =       2.333041 [THz] =      77.821879 [cm-1]
 **************************************************************************

     Mode symmetry, C_4v (4mm)  point group:

     freq (  1 -  2) =         48.4  [cm-1]   --> E    G_5 D_5       
     freq (  3 -  3) =         77.8  [cm-1]   --> A_1  G_1 D_1       

     Calculation of q =   -0.1250000   0.3750000  -0.1250000

   Info: using nr1, nr2, nr3 values from input

   Info: using nr1, nr2, nr3 values from input

     Parallelization info
     --------------------
     sticks:   dense  smooth     PW     G-vecs:    dense   smooth      PW
     Min         238     118     42                 4933     1718     367
     Max         239     119     43                 4938     1721     368
     Sum         955     475    169                19747     6879    1471



     bravais-lattice index     =            2
     lattice parameter (alat)  =       9.3458  a.u.
     unit-cell volume          =     204.0763 (a.u.)^3
     number of atoms/cell      =            1
     number of atomic types    =            1
     number of electrons       =         9.00
     number of Kohn-Sham states=            9
     kinetic-energy cutoff     =      40.0000  Ry
     charge density cutoff     =     320.0000  Ry
     Exchange-correlation      = SLA  PW   PBE  PBE ( 1  4  3  4 0 0)

     celldm(1)=   9.345822  celldm(2)=   0.000000  celldm(3)=   0.000000
     celldm(4)=   0.000000  celldm(5)=   0.000000  celldm(6)=   0.000000

     crystal axes: (cart. coord. in units of alat)
               a(1) = (  -0.500000   0.000000   0.500000 )  
               a(2) = (   0.000000   0.500000   0.500000 )  
               a(3) = (  -0.500000   0.500000   0.000000 )  

     reciprocal axes: (cart. coord. in units 2 pi/alat)
               b(1) = ( -1.000000 -1.000000  1.000000 )  
               b(2) = (  1.000000  1.000000  1.000000 )  
               b(3) = ( -1.000000  1.000000 -1.000000 )  


     PseudoPot. # 1 for Na read from file:
     /home/s1333534/quantum_espresso/qe-6.1/pseudo/Na_pbe_v1.uspp.F.UPF
     MD5 check sum: 76a99c7e9422403d3e93cbc85ab7bccb
     Pseudo is Ultrasoft, Zval =  9.0
     Generated by new atomic code, or converted to UPF format
     Using radial grid of  819 points,  5 beta functions with: 
                l(1) =   0
                l(2) =   0
                l(3) =   1
                l(4) =   1
                l(5) =   2
     Q(r) pseudized with  8 coefficients,  rinner =    1.250   1.250   1.250
                                                       1.250   1.250

     atomic species   valence    mass     pseudopotential
        Na             9.00    22.99000     Na( 1.00)

     48 Sym. Ops., with inversion, found



   Cartesian axes

     site n.     atom                  positions (alat units)
         1           Na  tau(   1) = (   0.0000000   0.0000000   0.0000000  )

     number of k points= 11368  Marzari-Vanderbilt smearing, width (Ry)=  0.0200

     Number of k-points >= 100: set verbosity='high' to print them.

     Dense  grid:    19747 G-vectors     FFT dimensions: (  40,  40,  40)

     Smooth grid:     6879 G-vectors     FFT dimensions: (  27,  27,  27)

     Estimated max dynamical RAM per process >       2.00MB

     Estimated total allocated dynamical RAM >       8.01MB

     The potential is recalculated from file :
     ./_ph0/na.fcc.save/charge-density.dat

     Starting wfc are    5 atomic +    4 random wfc

     Band Structure Calculation
     Davidson diagonalization with overlap

     ethr =  1.11E-10,  avg # of iterations = 18.3

     total cpu time spent up to now is      762.5 secs

     End of band structure calculation

     Number of k-points >= 100: set verbosity='high' to print the bands.

     the Fermi energy is     2.5487 ev

     Writing output data file na.fcc.save

                                                                                

     bravais-lattice index     =            2
     lattice parameter (alat)  =       9.3458  a.u.
     unit-cell volume          =     204.0763 (a.u.)^3
     number of atoms/cell      =            1
     number of atomic types    =            1
     kinetic-energy cut-off    =      40.0000  Ry
     charge density cut-off    =     320.0000  Ry
     convergence threshold     =      1.0E-12
     beta                      =       0.7000
     number of iterations used =            4
     Exchange-correlation      = SLA  PW   PBE  PBE ( 1  4  3  4 0 0)


     celldm(1)=    9.34582  celldm(2)=    0.00000  celldm(3)=    0.00000
     celldm(4)=    0.00000  celldm(5)=    0.00000  celldm(6)=    0.00000

     crystal axes: (cart. coord. in units of alat)
               a(1) = ( -0.5000  0.0000  0.5000 )  
               a(2) = (  0.0000  0.5000  0.5000 )  
               a(3) = ( -0.5000  0.5000  0.0000 )  

     reciprocal axes: (cart. coord. in units 2 pi/alat)
               b(1) = ( -1.0000 -1.0000  1.0000 )  
               b(2) = (  1.0000  1.0000  1.0000 )  
               b(3) = ( -1.0000  1.0000 -1.0000 )  


     Atoms inside the unit cell: 

     Cartesian axes

     site n.  atom      mass           positions (alat units)
        1     Na  22.9900   tau(    1) = (    0.00000    0.00000    0.00000  )

     Computing dynamical matrix for 
                    q = (  -0.1250000   0.3750000  -0.1250000 )

      2 Sym.Ops. (no q -> -q+G )


     G cutoff =  707.9870  (   4938 G-vectors)     FFT grid: ( 40, 40, 40)
     G cutoff =  353.9935  (   1721 G-vectors)  smooth grid: ( 27, 27, 27)

     number of k points= 11368  Marzari-Vanderbilt smearing, width (Ry)=  0.0200

     PseudoPot. # 1 for Na read from file:
     /home/s1333534/quantum_espresso/qe-6.1/pseudo/Na_pbe_v1.uspp.F.UPF
     MD5 check sum: 76a99c7e9422403d3e93cbc85ab7bccb
     Pseudo is Ultrasoft, Zval =  9.0
     Generated by new atomic code, or converted to UPF format
     Using radial grid of  819 points,  5 beta functions with: 
                l(1) =   0
                l(2) =   0
                l(3) =   1
                l(4) =   1
                l(5) =   2
     Q(r) pseudized with  8 coefficients,  rinner =    1.250   1.250   1.250
                                                       1.250   1.250

     Mode symmetry, C_s (m)     point group:


     Atomic displacements:
     There are   3 irreducible representations

     Representation     1      1 modes -A'  To be done

     Representation     2      1 modes -A'  To be done

     Representation     3      1 modes -A''  To be done



     Alpha used in Ewald sum =   2.8000
     PHONON       : 38m 9.36s CPU    40m52.72s WALL



     Representation #  1 mode #   1

     Self-consistent Calculation

      iter #   1 total cpu time :  2505.8 secs   av.it.:   5.8
      thresh= 1.000E-02 alpha_mix =  0.700 |ddv_scf|^2 =  4.679E-03

      iter #   2 total cpu time :  2555.6 secs   av.it.:   6.3
      thresh= 6.841E-03 alpha_mix =  0.700 |ddv_scf|^2 =  1.446E-01

      iter #   3 total cpu time :  2602.7 secs   av.it.:   5.9
      thresh= 1.000E-02 alpha_mix =  0.700 |ddv_scf|^2 =  2.883E-06

      iter #   4 total cpu time :  2657.3 secs   av.it.:   7.4
      thresh= 1.698E-04 alpha_mix =  0.700 |ddv_scf|^2 =  2.085E-08

      iter #   5 total cpu time :  2715.6 secs   av.it.:   7.9
      thresh= 1.444E-05 alpha_mix =  0.700 |ddv_scf|^2 =  1.758E-09

      iter #   6 total cpu time :  2772.6 secs   av.it.:   7.7
      thresh= 4.192E-06 alpha_mix =  0.700 |ddv_scf|^2 =  4.966E-11

      iter #   7 total cpu time :  2831.0 secs   av.it.:   8.0
      thresh= 7.047E-07 alpha_mix =  0.700 |ddv_scf|^2 =  3.226E-10

      iter #   8 total cpu time :  2873.7 secs   av.it.:   5.2
      thresh= 1.796E-06 alpha_mix =  0.700 |ddv_scf|^2 =  1.394E-12

      iter #   9 total cpu time :  2928.9 secs   av.it.:   7.5
      thresh= 1.181E-07 alpha_mix =  0.700 |ddv_scf|^2 =  8.858E-14

     End of self-consistent calculation

     Convergence has been achieved 


     Representation #  2 mode #   2

     Self-consistent Calculation

      iter #   1 total cpu time :  2982.5 secs   av.it.:   5.7
      thresh= 1.000E-02 alpha_mix =  0.700 |ddv_scf|^2 =  7.214E-04

      iter #   2 total cpu time :  3034.5 secs   av.it.:   6.9
      thresh= 2.686E-03 alpha_mix =  0.700 |ddv_scf|^2 =  2.187E-02

      iter #   3 total cpu time :  3076.5 secs   av.it.:   5.0
      thresh= 1.000E-02 alpha_mix =  0.700 |ddv_scf|^2 =  3.153E-07

      iter #   4 total cpu time :  3135.3 secs   av.it.:   8.1
      thresh= 5.615E-05 alpha_mix =  0.700 |ddv_scf|^2 =  9.365E-09

      iter #   5 total cpu time :  3193.8 secs   av.it.:   7.9
      thresh= 9.677E-06 alpha_mix =  0.700 |ddv_scf|^2 =  4.356E-10

      iter #   6 total cpu time :  3252.0 secs   av.it.:   7.9
      thresh= 2.087E-06 alpha_mix =  0.700 |ddv_scf|^2 =  2.133E-11

      iter #   7 total cpu time :  3310.6 secs   av.it.:   8.1
      thresh= 4.618E-07 alpha_mix =  0.700 |ddv_scf|^2 =  2.628E-12

      iter #   8 total cpu time :  3365.6 secs   av.it.:   7.5
      thresh= 1.621E-07 alpha_mix =  0.700 |ddv_scf|^2 =  4.946E-11

      iter #   9 total cpu time :  3412.2 secs   av.it.:   5.8
      thresh= 7.033E-07 alpha_mix =  0.700 |ddv_scf|^2 =  1.435E-12

      iter #  10 total cpu time :  3464.0 secs   av.it.:   6.9
      thresh= 1.198E-07 alpha_mix =  0.700 |ddv_scf|^2 =  3.645E-13

     End of self-consistent calculation

     Convergence has been achieved 


     Representation #  3 mode #   3

     Self-consistent Calculation

      iter #   1 total cpu time :  3516.2 secs   av.it.:   5.4
      thresh= 1.000E-02 alpha_mix =  0.700 |ddv_scf|^2 =  1.602E-05

      iter #   2 total cpu time :  3572.8 secs   av.it.:   7.6
      thresh= 4.003E-04 alpha_mix =  0.700 |ddv_scf|^2 =  2.659E-07

      iter #   3 total cpu time :  3630.6 secs   av.it.:   7.9
      thresh= 5.157E-05 alpha_mix =  0.700 |ddv_scf|^2 =  8.284E-09

      iter #   4 total cpu time :  3687.3 secs   av.it.:   7.5
      thresh= 9.102E-06 alpha_mix =  0.700 |ddv_scf|^2 =  2.836E-11

      iter #   5 total cpu time :  3744.5 secs   av.it.:   7.8
      thresh= 5.326E-07 alpha_mix =  0.700 |ddv_scf|^2 =  3.578E-14

     End of self-consistent calculation

     Convergence has been achieved 

     Number of q in the star =   24
     List of q in the star:
          1  -0.125000000   0.375000000  -0.125000000
          2  -0.125000000   0.375000000   0.125000000
          3   0.125000000   0.375000000  -0.125000000
          4   0.125000000   0.375000000   0.125000000
          5   0.125000000  -0.375000000   0.125000000
          6   0.375000000  -0.125000000   0.125000000
          7   0.125000000  -0.125000000   0.375000000
          8  -0.125000000  -0.375000000  -0.125000000
          9   0.125000000  -0.375000000  -0.125000000
         10  -0.125000000  -0.375000000   0.125000000
         11   0.125000000  -0.125000000  -0.375000000
         12   0.375000000  -0.125000000  -0.125000000
         13  -0.375000000  -0.125000000   0.125000000
         14   0.375000000   0.125000000   0.125000000
         15  -0.125000000  -0.125000000   0.375000000
         16   0.125000000   0.125000000   0.375000000
         17  -0.375000000   0.125000000  -0.125000000
         18  -0.125000000   0.125000000  -0.375000000
         19  -0.375000000  -0.125000000  -0.125000000
         20   0.125000000   0.125000000  -0.375000000
         21   0.375000000   0.125000000  -0.125000000
         22  -0.125000000  -0.125000000  -0.375000000
         23  -0.375000000   0.125000000   0.125000000
         24  -0.125000000   0.125000000   0.375000000

     Diagonalizing the dynamical matrix

     q = (   -0.125000000   0.375000000  -0.125000000 ) 

 **************************************************************************
     freq (    1) =       1.954329 [THz] =      65.189382 [cm-1]
     freq (    2) =       1.967490 [THz] =      65.628417 [cm-1]
     freq (    3) =       3.510868 [THz] =     117.109966 [cm-1]
 **************************************************************************

     Mode symmetry, C_s (m)     point group:

     freq (  1 -  1) =         65.2  [cm-1]   --> A'                 
     freq (  2 -  2) =         65.6  [cm-1]   --> A''                
     freq (  3 -  3) =        117.1  [cm-1]   --> A'                 

     Calculation of q =   -0.2500000   0.5000000  -0.2500000

   Info: using nr1, nr2, nr3 values from input

   Info: using nr1, nr2, nr3 values from input

     Parallelization info
     --------------------
     sticks:   dense  smooth     PW     G-vecs:    dense   smooth      PW
     Min         238     118     46                 4933     1718     409
     Max         239     119     47                 4938     1721     411
     Sum         955     475    187                19747     6879    1639



     bravais-lattice index     =            2
     lattice parameter (alat)  =       9.3458  a.u.
     unit-cell volume          =     204.0763 (a.u.)^3
     number of atoms/cell      =            1
     number of atomic types    =            1
     number of electrons       =         9.00
     number of Kohn-Sham states=            9
     kinetic-energy cutoff     =      40.0000  Ry
     charge density cutoff     =     320.0000  Ry
     Exchange-correlation      = SLA  PW   PBE  PBE ( 1  4  3  4 0 0)

     celldm(1)=   9.345822  celldm(2)=   0.000000  celldm(3)=   0.000000
     celldm(4)=   0.000000  celldm(5)=   0.000000  celldm(6)=   0.000000

     crystal axes: (cart. coord. in units of alat)
               a(1) = (  -0.500000   0.000000   0.500000 )  
               a(2) = (   0.000000   0.500000   0.500000 )  
               a(3) = (  -0.500000   0.500000   0.000000 )  

     reciprocal axes: (cart. coord. in units 2 pi/alat)
               b(1) = ( -1.000000 -1.000000  1.000000 )  
               b(2) = (  1.000000  1.000000  1.000000 )  
               b(3) = ( -1.000000  1.000000 -1.000000 )  


     PseudoPot. # 1 for Na read from file:
     /home/s1333534/quantum_espresso/qe-6.1/pseudo/Na_pbe_v1.uspp.F.UPF
     MD5 check sum: 76a99c7e9422403d3e93cbc85ab7bccb
     Pseudo is Ultrasoft, Zval =  9.0
     Generated by new atomic code, or converted to UPF format
     Using radial grid of  819 points,  5 beta functions with: 
                l(1) =   0
                l(2) =   0
                l(3) =   1
                l(4) =   1
                l(5) =   2
     Q(r) pseudized with  8 coefficients,  rinner =    1.250   1.250   1.250
                                                       1.250   1.250

     atomic species   valence    mass     pseudopotential
        Na             9.00    22.99000     Na( 1.00)

     48 Sym. Ops., with inversion, found



   Cartesian axes

     site n.     atom                  positions (alat units)
         1           Na  tau(   1) = (   0.0000000   0.0000000   0.0000000  )

     number of k points= 11368  Marzari-Vanderbilt smearing, width (Ry)=  0.0200

     Number of k-points >= 100: set verbosity='high' to print them.

     Dense  grid:    19747 G-vectors     FFT dimensions: (  40,  40,  40)

     Smooth grid:     6879 G-vectors     FFT dimensions: (  27,  27,  27)

     Estimated max dynamical RAM per process >       2.00MB

     Estimated total allocated dynamical RAM >       8.01MB

     The potential is recalculated from file :
     ./_ph0/na.fcc.save/charge-density.dat

     Starting wfc are    5 atomic +    4 random wfc

     Band Structure Calculation
     Davidson diagonalization with overlap

     ethr =  1.11E-10,  avg # of iterations = 18.3

     total cpu time spent up to now is     1070.0 secs

     End of band structure calculation

     Number of k-points >= 100: set verbosity='high' to print the bands.

     the Fermi energy is     2.5487 ev

     Writing output data file na.fcc.save

                                                                                

     bravais-lattice index     =            2
     lattice parameter (alat)  =       9.3458  a.u.
     unit-cell volume          =     204.0763 (a.u.)^3
     number of atoms/cell      =            1
     number of atomic types    =            1
     kinetic-energy cut-off    =      40.0000  Ry
     charge density cut-off    =     320.0000  Ry
     convergence threshold     =      1.0E-12
     beta                      =       0.7000
     number of iterations used =            4
     Exchange-correlation      = SLA  PW   PBE  PBE ( 1  4  3  4 0 0)


     celldm(1)=    9.34582  celldm(2)=    0.00000  celldm(3)=    0.00000
     celldm(4)=    0.00000  celldm(5)=    0.00000  celldm(6)=    0.00000

     crystal axes: (cart. coord. in units of alat)
               a(1) = ( -0.5000  0.0000  0.5000 )  
               a(2) = (  0.0000  0.5000  0.5000 )  
               a(3) = ( -0.5000  0.5000  0.0000 )  

     reciprocal axes: (cart. coord. in units 2 pi/alat)
               b(1) = ( -1.0000 -1.0000  1.0000 )  
               b(2) = (  1.0000  1.0000  1.0000 )  
               b(3) = ( -1.0000  1.0000 -1.0000 )  


     Atoms inside the unit cell: 

     Cartesian axes

     site n.  atom      mass           positions (alat units)
        1     Na  22.9900   tau(    1) = (    0.00000    0.00000    0.00000  )

     Computing dynamical matrix for 
                    q = (  -0.2500000   0.5000000  -0.2500000 )

      2 Sym.Ops. (no q -> -q+G )


     G cutoff =  707.9870  (   4938 G-vectors)     FFT grid: ( 40, 40, 40)
     G cutoff =  353.9935  (   1720 G-vectors)  smooth grid: ( 27, 27, 27)

     number of k points= 11368  Marzari-Vanderbilt smearing, width (Ry)=  0.0200

     PseudoPot. # 1 for Na read from file:
     /home/s1333534/quantum_espresso/qe-6.1/pseudo/Na_pbe_v1.uspp.F.UPF
     MD5 check sum: 76a99c7e9422403d3e93cbc85ab7bccb
     Pseudo is Ultrasoft, Zval =  9.0
     Generated by new atomic code, or converted to UPF format
     Using radial grid of  819 points,  5 beta functions with: 
                l(1) =   0
                l(2) =   0
                l(3) =   1
                l(4) =   1
                l(5) =   2
     Q(r) pseudized with  8 coefficients,  rinner =    1.250   1.250   1.250
                                                       1.250   1.250

     Mode symmetry, C_s (m)     point group:


     Atomic displacements:
     There are   3 irreducible representations

     Representation     1      1 modes -A'  To be done

     Representation     2      1 modes -A'  To be done

     Representation     3      1 modes -A''  To be done



     Alpha used in Ewald sum =   2.8000
     PHONON       :     1h 3m CPU        1h 7m WALL



     Representation #  1 mode #   1

     Self-consistent Calculation

      iter #   1 total cpu time :  4129.7 secs   av.it.:   5.8
      thresh= 1.000E-02 alpha_mix =  0.700 |ddv_scf|^2 =  4.525E-04

      iter #   2 total cpu time :  4183.3 secs   av.it.:   6.9
      thresh= 2.127E-03 alpha_mix =  0.700 |ddv_scf|^2 =  2.028E-03

      iter #   3 total cpu time :  4230.7 secs   av.it.:   5.9
      thresh= 4.503E-03 alpha_mix =  0.700 |ddv_scf|^2 =  4.612E-07

      iter #   4 total cpu time :  4289.5 secs   av.it.:   7.9
      thresh= 6.791E-05 alpha_mix =  0.700 |ddv_scf|^2 =  6.709E-09

      iter #   5 total cpu time :  4350.3 secs   av.it.:   8.3
      thresh= 8.191E-06 alpha_mix =  0.700 |ddv_scf|^2 =  7.602E-10

      iter #   6 total cpu time :  4410.1 secs   av.it.:   8.1
      thresh= 2.757E-06 alpha_mix =  0.700 |ddv_scf|^2 =  3.803E-11

      iter #   7 total cpu time :  4470.0 secs   av.it.:   8.0
      thresh= 6.167E-07 alpha_mix =  0.700 |ddv_scf|^2 =  7.787E-12

      iter #   8 total cpu time :  4524.4 secs   av.it.:   7.1
      thresh= 2.791E-07 alpha_mix =  0.700 |ddv_scf|^2 =  1.288E-11

      iter #   9 total cpu time :  4575.4 secs   av.it.:   6.5
      thresh= 3.588E-07 alpha_mix =  0.700 |ddv_scf|^2 =  5.273E-13

     End of self-consistent calculation

     Convergence has been achieved 


     Representation #  2 mode #   2

     Self-consistent Calculation

      iter #   1 total cpu time :  4630.1 secs   av.it.:   5.7
      thresh= 1.000E-02 alpha_mix =  0.700 |ddv_scf|^2 =  1.312E-04

      iter #   2 total cpu time :  4685.9 secs   av.it.:   7.3
      thresh= 1.146E-03 alpha_mix =  0.700 |ddv_scf|^2 =  5.178E-04

      iter #   3 total cpu time :  4734.3 secs   av.it.:   5.9
      thresh= 2.275E-03 alpha_mix =  0.700 |ddv_scf|^2 =  3.956E-07

      iter #   4 total cpu time :  4793.0 secs   av.it.:   7.8
      thresh= 6.290E-05 alpha_mix =  0.700 |ddv_scf|^2 =  9.597E-09

      iter #   5 total cpu time :  4853.4 secs   av.it.:   8.3
      thresh= 9.796E-06 alpha_mix =  0.700 |ddv_scf|^2 =  4.622E-10

      iter #   6 total cpu time :  4913.8 secs   av.it.:   8.2
      thresh= 2.150E-06 alpha_mix =  0.700 |ddv_scf|^2 =  4.098E-11

      iter #   7 total cpu time :  4973.4 secs   av.it.:   8.0
      thresh= 6.401E-07 alpha_mix =  0.700 |ddv_scf|^2 =  1.187E-12

      iter #   8 total cpu time :  5031.1 secs   av.it.:   7.6
      thresh= 1.089E-07 alpha_mix =  0.700 |ddv_scf|^2 =  1.878E-12

      iter #   9 total cpu time :  5083.4 secs   av.it.:   6.8
      thresh= 1.370E-07 alpha_mix =  0.700 |ddv_scf|^2 =  1.007E-13

     End of self-consistent calculation

     Convergence has been achieved 


     Representation #  3 mode #   3

     Self-consistent Calculation

      iter #   1 total cpu time :  5137.7 secs   av.it.:   5.4
      thresh= 1.000E-02 alpha_mix =  0.700 |ddv_scf|^2 =  1.643E-05

      iter #   2 total cpu time :  5195.6 secs   av.it.:   7.6
      thresh= 4.053E-04 alpha_mix =  0.700 |ddv_scf|^2 =  2.633E-07

      iter #   3 total cpu time :  5254.7 secs   av.it.:   7.9
      thresh= 5.131E-05 alpha_mix =  0.700 |ddv_scf|^2 =  9.556E-09

      iter #   4 total cpu time :  5311.2 secs   av.it.:   7.5
      thresh= 9.776E-06 alpha_mix =  0.700 |ddv_scf|^2 =  3.316E-11

      iter #   5 total cpu time :  5370.2 secs   av.it.:   7.8
      thresh= 5.758E-07 alpha_mix =  0.700 |ddv_scf|^2 =  3.786E-14

     End of self-consistent calculation

     Convergence has been achieved 

     Number of q in the star =   24
     List of q in the star:
          1  -0.250000000   0.500000000  -0.250000000
          2  -0.250000000   0.500000000   0.250000000
          3   0.250000000   0.500000000  -0.250000000
          4   0.250000000   0.500000000   0.250000000
          5   0.250000000  -0.500000000   0.250000000
          6   0.500000000  -0.250000000   0.250000000
          7   0.250000000  -0.250000000   0.500000000
          8  -0.250000000  -0.500000000  -0.250000000
          9   0.250000000  -0.500000000  -0.250000000
         10  -0.250000000  -0.500000000   0.250000000
         11   0.250000000  -0.250000000  -0.500000000
         12   0.500000000  -0.250000000  -0.250000000
         13  -0.500000000  -0.250000000   0.250000000
         14   0.500000000   0.250000000   0.250000000
         15  -0.250000000  -0.250000000   0.500000000
         16   0.250000000   0.250000000   0.500000000
         17  -0.500000000   0.250000000  -0.250000000
         18  -0.250000000   0.250000000  -0.500000000
         19  -0.500000000  -0.250000000  -0.250000000
         20   0.250000000   0.250000000  -0.500000000
         21   0.500000000   0.250000000  -0.250000000
         22  -0.250000000  -0.250000000  -0.500000000
         23  -0.500000000   0.250000000   0.250000000
         24  -0.250000000   0.250000000   0.500000000

     Diagonalizing the dynamical matrix

     q = (   -0.250000000   0.500000000  -0.250000000 ) 

 **************************************************************************
     freq (    1) =       2.247257 [THz] =      74.960408 [cm-1]
     freq (    2) =       2.383936 [THz] =      79.519548 [cm-1]
     freq (    3) =       4.725824 [THz] =     157.636517 [cm-1]
 **************************************************************************

     Mode symmetry, C_s (m)     point group:

     freq (  1 -  1) =         75.0  [cm-1]   --> A''                
     freq (  2 -  2) =         79.5  [cm-1]   --> A'                 
     freq (  3 -  3) =        157.6  [cm-1]   --> A'                 

     Calculation of q =    0.6250000  -0.3750000   0.6250000

   Info: using nr1, nr2, nr3 values from input

   Info: using nr1, nr2, nr3 values from input

     Parallelization info
     --------------------
     sticks:   dense  smooth     PW     G-vecs:    dense   smooth      PW
     Min         238     118     49                 4933     1718     451
     Max         239     119     50                 4938     1721     453
     Sum         955     475    199                19747     6879    1807



     bravais-lattice index     =            2
     lattice parameter (alat)  =       9.3458  a.u.
     unit-cell volume          =     204.0763 (a.u.)^3
     number of atoms/cell      =            1
     number of atomic types    =            1
     number of electrons       =         9.00
     number of Kohn-Sham states=            9
     kinetic-energy cutoff     =      40.0000  Ry
     charge density cutoff     =     320.0000  Ry
     Exchange-correlation      = SLA  PW   PBE  PBE ( 1  4  3  4 0 0)

[...]

     PseudoPot. # 1 for Na read from file:
     /home/s1333534/quantum_espresso/qe-6.1/pseudo/Na_pbe_v1.uspp.F.UPF
     MD5 check sum: 76a99c7e9422403d3e93cbc85ab7bccb
     Pseudo is Ultrasoft, Zval =  9.0
     Generated by new atomic code, or converted to UPF format
     Using radial grid of  819 points,  5 beta functions with: 
                l(1) =   0
                l(2) =   0
                l(3) =   1
                l(4) =   1
                l(5) =   2
     Q(r) pseudized with  8 coefficients,  rinner =    1.250   1.250   1.250
                                                       1.250   1.250

     Mode symmetry, C_2v (mm2)  point group:


     Atomic displacements:
     There are   3 irreducible representations

     Representation     1      1 modes -A_1  D_1  S_1  To be done

     Representation     2      1 modes -B_1  D_3  S_3  To be done

     Representation     3      1 modes -B_2  D_4  S_4  To be done



     Alpha used in Ewald sum =   2.8000
     PHONON       :     7h55m CPU        8h31m WALL



     Representation #  1 mode #   1

     Self-consistent Calculation

      iter #   1 total cpu time : 30711.0 secs   av.it.:   5.6
      thresh= 1.000E-02 alpha_mix =  0.700 |ddv_scf|^2 =  2.353E-05

      iter #   2 total cpu time : 30740.0 secs   av.it.:   7.8
      thresh= 4.851E-04 alpha_mix =  0.700 |ddv_scf|^2 =  6.730E-07

      iter #   3 total cpu time : 30767.9 secs   av.it.:   7.7
      thresh= 8.204E-05 alpha_mix =  0.700 |ddv_scf|^2 =  3.036E-08

      iter #   4 total cpu time : 30796.7 secs   av.it.:   7.9
      thresh= 1.742E-05 alpha_mix =  0.700 |ddv_scf|^2 =  1.891E-09

      iter #   5 total cpu time : 30825.0 secs   av.it.:   7.9
      thresh= 4.348E-06 alpha_mix =  0.700 |ddv_scf|^2 =  6.762E-11

      iter #   6 total cpu time : 30854.6 secs   av.it.:   8.1
      thresh= 8.223E-07 alpha_mix =  0.700 |ddv_scf|^2 =  6.026E-12

      iter #   7 total cpu time : 30883.3 secs   av.it.:   8.0
      thresh= 2.455E-07 alpha_mix =  0.700 |ddv_scf|^2 =  1.251E-13

     End of self-consistent calculation

     Convergence has been achieved 


     Representation #  2 mode #   2

     Self-consistent Calculation

      iter #   1 total cpu time : 30908.8 secs   av.it.:   5.6
      thresh= 1.000E-02 alpha_mix =  0.700 |ddv_scf|^2 =  2.439E-05

      iter #   2 total cpu time : 30937.3 secs   av.it.:   7.7
      thresh= 4.938E-04 alpha_mix =  0.700 |ddv_scf|^2 =  3.454E-07

      iter #   3 total cpu time : 30965.9 secs   av.it.:   7.8
      thresh= 5.877E-05 alpha_mix =  0.700 |ddv_scf|^2 =  2.365E-08

      iter #   4 total cpu time : 30994.3 secs   av.it.:   7.8
      thresh= 1.538E-05 alpha_mix =  0.700 |ddv_scf|^2 =  2.877E-10

      iter #   5 total cpu time : 31020.7 secs   av.it.:   7.1
      thresh= 1.696E-06 alpha_mix =  0.700 |ddv_scf|^2 =  2.637E-13

     End of self-consistent calculation

     Convergence has been achieved 


     Representation #  3 mode #   3

     Self-consistent Calculation

      iter #   1 total cpu time : 31046.4 secs   av.it.:   5.6
      thresh= 1.000E-02 alpha_mix =  0.700 |ddv_scf|^2 =  6.250E-05

      iter #   2 total cpu time : 31074.0 secs   av.it.:   7.3
      thresh= 7.905E-04 alpha_mix =  0.700 |ddv_scf|^2 =  7.881E-06

      iter #   3 total cpu time : 31100.7 secs   av.it.:   7.2
      thresh= 2.807E-04 alpha_mix =  0.700 |ddv_scf|^2 =  6.140E-08

      iter #   4 total cpu time : 31129.4 secs   av.it.:   7.9
      thresh= 2.478E-05 alpha_mix =  0.700 |ddv_scf|^2 =  2.276E-10

      iter #   5 total cpu time : 31155.7 secs   av.it.:   7.0
      thresh= 1.509E-06 alpha_mix =  0.700 |ddv_scf|^2 =  4.049E-13

     End of self-consistent calculation

     Convergence has been achieved 

     Number of q in the star =   12
     List of q in the star:
          1  -0.250000000  -1.000000000   0.000000000
          2   0.000000000  -1.000000000   0.250000000
          3   0.000000000  -1.000000000  -0.250000000
          4   0.250000000  -1.000000000   0.000000000
          5  -1.000000000   0.000000000  -0.250000000
          6   1.000000000   0.000000000   0.250000000
          7  -1.000000000  -0.250000000   0.000000000
          8   0.000000000  -0.250000000  -1.000000000
          9   0.000000000   0.250000000  -1.000000000
         10   1.000000000   0.250000000   0.000000000
         11  -0.250000000   0.000000000   1.000000000
         12   0.250000000   0.000000000   1.000000000

     Diagonalizing the dynamical matrix

     q = (   -0.250000000  -1.000000000   0.000000000 ) 

 **************************************************************************
     freq (    1) =       3.536904 [THz] =     117.978407 [cm-1]
     freq (    2) =       4.080880 [THz] =     136.123492 [cm-1]
     freq (    3) =       5.445841 [THz] =     181.653693 [cm-1]
 **************************************************************************

     Mode symmetry, C_2v (mm2)  point group:

     freq (  1 -  1) =        118.0  [cm-1]   --> A_1  D_1  S_1      
     freq (  2 -  2) =        136.1  [cm-1]   --> B_1  D_3  S_3      
     freq (  3 -  3) =        181.7  [cm-1]   --> B_2  D_4  S_4      

     Calculation of q =   -0.5000000  -1.0000000   0.0000000

   Info: using nr1, nr2, nr3 values from input

   Info: using nr1, nr2, nr3 values from input

     Parallelization info
     --------------------
     sticks:   dense  smooth     PW     G-vecs:    dense   smooth      PW
     Min         238     118     49                 4933     1718     451
     Max         239     119     50                 4938     1721     453
     Sum         955     475    199                19747     6879    1807



     bravais-lattice index     =            2
     lattice parameter (alat)  =       9.3458  a.u.
     unit-cell volume          =     204.0763 (a.u.)^3
     number of atoms/cell      =            1
     number of atomic types    =            1
     number of electrons       =         9.00
     number of Kohn-Sham states=            9
     kinetic-energy cutoff     =      40.0000  Ry
     charge density cutoff     =     320.0000  Ry
     Exchange-correlation      = SLA  PW   PBE  PBE ( 1  4  3  4 0 0)

     celldm(1)=   9.345822  celldm(2)=   0.000000  celldm(3)=   0.000000
     celldm(4)=   0.000000  celldm(5)=   0.000000  celldm(6)=   0.000000

     crystal axes: (cart. coord. in units of alat)
               a(1) = (  -0.500000   0.000000   0.500000 )  
               a(2) = (   0.000000   0.500000   0.500000 )  
               a(3) = (  -0.500000   0.500000   0.000000 )  

     reciprocal axes: (cart. coord. in units 2 pi/alat)
               b(1) = ( -1.000000 -1.000000  1.000000 )  
               b(2) = (  1.000000  1.000000  1.000000 )  
               b(3) = ( -1.000000  1.000000 -1.000000 )  


     PseudoPot. # 1 for Na read from file:
     /home/s1333534/quantum_espresso/qe-6.1/pseudo/Na_pbe_v1.uspp.F.UPF
     MD5 check sum: 76a99c7e9422403d3e93cbc85ab7bccb
     Pseudo is Ultrasoft, Zval =  9.0
     Generated by new atomic code, or converted to UPF format
     Using radial grid of  819 points,  5 beta functions with: 
                l(1) =   0
                l(2) =   0
                l(3) =   1
                l(4) =   1
                l(5) =   2
     Q(r) pseudized with  8 coefficients,  rinner =    1.250   1.250   1.250
                                                       1.250   1.250

     atomic species   valence    mass     pseudopotential
        Na             9.00    22.99000     Na( 1.00)

     48 Sym. Ops., with inversion, found



   Cartesian axes

     site n.     atom                  positions (alat units)
         1           Na  tau(   1) = (   0.0000000   0.0000000   0.0000000  )

     number of k points=  2744  Marzari-Vanderbilt smearing, width (Ry)=  0.0200

     Number of k-points >= 100: set verbosity='high' to print them.

     Dense  grid:    19747 G-vectors     FFT dimensions: (  40,  40,  40)

     Smooth grid:     6879 G-vectors     FFT dimensions: (  27,  27,  27)

     Estimated max dynamical RAM per process >       2.00MB

     Estimated total allocated dynamical RAM >       8.01MB

     The potential is recalculated from file :
     ./_ph0/na.fcc.save/charge-density.dat

     Starting wfc are    5 atomic +    4 random wfc

     Band Structure Calculation
     Davidson diagonalization with overlap

     ethr =  1.11E-10,  avg # of iterations = 18.3

     total cpu time spent up to now is     6519.0 secs

     End of band structure calculation

     Number of k-points >= 100: set verbosity='high' to print the bands.

     the Fermi energy is     2.5487 ev

     Writing output data file na.fcc.save

                                                                                

     bravais-lattice index     =            2
     lattice parameter (alat)  =       9.3458  a.u.
     unit-cell volume          =     204.0763 (a.u.)^3
     number of atoms/cell      =            1
     number of atomic types    =            1
     kinetic-energy cut-off    =      40.0000  Ry
     charge density cut-off    =     320.0000  Ry
     convergence threshold     =      1.0E-12
     beta                      =       0.7000
     number of iterations used =            4
     Exchange-correlation      = SLA  PW   PBE  PBE ( 1  4  3  4 0 0)


     celldm(1)=    9.34582  celldm(2)=    0.00000  celldm(3)=    0.00000
     celldm(4)=    0.00000  celldm(5)=    0.00000  celldm(6)=    0.00000

     crystal axes: (cart. coord. in units of alat)
               a(1) = ( -0.5000  0.0000  0.5000 )  
               a(2) = (  0.0000  0.5000  0.5000 )  
               a(3) = ( -0.5000  0.5000  0.0000 )  

     reciprocal axes: (cart. coord. in units 2 pi/alat)
               b(1) = ( -1.0000 -1.0000  1.0000 )  
               b(2) = (  1.0000  1.0000  1.0000 )  
               b(3) = ( -1.0000  1.0000 -1.0000 )  


     Atoms inside the unit cell: 

     Cartesian axes

     site n.  atom      mass           positions (alat units)
        1     Na  22.9900   tau(    1) = (    0.00000    0.00000    0.00000  )

     Computing dynamical matrix for 
                    q = (  -0.5000000  -1.0000000   0.0000000 )

      8 Sym.Ops. (no q -> -q+G )


     G cutoff =  707.9870  (   4938 G-vectors)     FFT grid: ( 40, 40, 40)
     G cutoff =  353.9935  (   1720 G-vectors)  smooth grid: ( 27, 27, 27)

     number of k points=  2744  Marzari-Vanderbilt smearing, width (Ry)=  0.0200

     PseudoPot. # 1 for Na read from file:
     /home/s1333534/quantum_espresso/qe-6.1/pseudo/Na_pbe_v1.uspp.F.UPF
     MD5 check sum: 76a99c7e9422403d3e93cbc85ab7bccb
     Pseudo is Ultrasoft, Zval =  9.0
     Generated by new atomic code, or converted to UPF format
     Using radial grid of  819 points,  5 beta functions with: 
                l(1) =   0
                l(2) =   0
                l(3) =   1
                l(4) =   1
                l(5) =   2
     Q(r) pseudized with  8 coefficients,  rinner =    1.250   1.250   1.250
                                                       1.250   1.250

     Mode symmetry, D_2d (-42m) point group:


     Atomic displacements:
     There are   2 irreducible representations

     Representation     1      1 modes -B_2  X_3  W_2  To be done

     Representation     2      2 modes -E    X_5  W_3  To be done



     Alpha used in Ewald sum =   2.8000
     PHONON       :     8h 3m CPU        8h40m WALL



     Representation #  1 mode #   1

     Self-consistent Calculation

      iter #   1 total cpu time : 31249.2 secs   av.it.:   5.6
      thresh= 1.000E-02 alpha_mix =  0.700 |ddv_scf|^2 =  2.683E-05

      iter #   2 total cpu time : 31263.3 secs   av.it.:   7.7
      thresh= 5.180E-04 alpha_mix =  0.700 |ddv_scf|^2 =  8.941E-07

      iter #   3 total cpu time : 31277.6 secs   av.it.:   7.6
      thresh= 9.456E-05 alpha_mix =  0.700 |ddv_scf|^2 =  2.202E-08

      iter #   4 total cpu time : 31292.0 secs   av.it.:   8.1
      thresh= 1.484E-05 alpha_mix =  0.700 |ddv_scf|^2 =  4.862E-10

      iter #   5 total cpu time : 31305.6 secs   av.it.:   7.4
      thresh= 2.205E-06 alpha_mix =  0.700 |ddv_scf|^2 =  7.469E-13

     End of self-consistent calculation

     Convergence has been achieved 


     Representation #  2 modes #   2  3

     Self-consistent Calculation

      iter #   1 total cpu time : 31331.1 secs   av.it.:   5.7
      thresh= 1.000E-02 alpha_mix =  0.700 |ddv_scf|^2 =  9.768E-06

      iter #   2 total cpu time : 31360.7 secs   av.it.:   8.2
      thresh= 3.125E-04 alpha_mix =  0.700 |ddv_scf|^2 =  4.619E-07

      iter #   3 total cpu time : 31389.1 secs   av.it.:   7.9
      thresh= 6.796E-05 alpha_mix =  0.700 |ddv_scf|^2 =  1.014E-08

      iter #   4 total cpu time : 31419.5 secs   av.it.:   8.5
      thresh= 1.007E-05 alpha_mix =  0.700 |ddv_scf|^2 =  6.463E-11

      iter #   5 total cpu time : 31447.0 secs   av.it.:   7.6
      thresh= 8.039E-07 alpha_mix =  0.700 |ddv_scf|^2 =  5.003E-14

     End of self-consistent calculation

     Convergence has been achieved 

     Number of q in the star =    6
     List of q in the star:
          1  -0.500000000  -1.000000000   0.000000000
          2   0.000000000   1.000000000   0.500000000
          3   0.500000000  -1.000000000   0.000000000
          4   0.000000000   1.000000000  -0.500000000
          5  -1.000000000  -0.500000000   0.000000000
          6   0.000000000  -0.500000000  -1.000000000

     Diagonalizing the dynamical matrix

     q = (   -0.500000000  -1.000000000   0.000000000 ) 

 **************************************************************************
     freq (    1) =       3.960015 [THz] =     132.091871 [cm-1]
     freq (    2) =       4.668990 [THz] =     155.740755 [cm-1]
     freq (    3) =       4.668990 [THz] =     155.740755 [cm-1]
 **************************************************************************

     Mode symmetry, D_2d (-42m) point group:

     freq (  1 -  1) =        132.1  [cm-1]   --> B_2  X_3  W_2      
     freq (  2 -  3) =        155.7  [cm-1]   --> E    X_5  W_3      

     init_run     :      8.57s CPU      8.65s WALL (      28 calls)
     electrons    :   5996.88s CPU   6344.33s WALL (      28 calls)

     Called by init_run:
     wfcinit      :      0.00s CPU      0.00s WALL (      28 calls)
     potinit      :      0.41s CPU      0.42s WALL (      28 calls)

     Called by electrons:
     c_bands      :   5995.73s CPU   6343.16s WALL (      28 calls)
     v_of_rho     :      0.33s CPU      0.33s WALL (      29 calls)
     newd         :      0.37s CPU      0.39s WALL (      29 calls)

     Called by c_bands:
     init_us_2    :    329.40s CPU    317.10s WALL ( 3430637 calls)
     cegterg      :   5496.31s CPU   5798.81s WALL (  287845 calls)

     Called by sum_band:

     Called by *egterg:
     h_psi        :  20466.97s CPU  21769.73s WALL (28708554 calls)
     s_psi        :    453.04s CPU    535.24s WALL (54930490 calls)
     g_psi        :     26.72s CPU     38.55s WALL ( 4393070 calls)
     cdiaghg      :   1000.67s CPU    948.11s WALL ( 4632974 calls)

     Called by h_psi:
     h_psi:pot    :  20381.51s CPU  21664.18s WALL (28708554 calls)
     h_psi:calbec :    367.09s CPU    444.17s WALL (28708554 calls)
     vloc_psi     :  19636.71s CPU  20813.62s WALL (28708554 calls)
     add_vuspsi   :    313.75s CPU    322.05s WALL (28708554 calls)

     General routines
     calbec       :    808.15s CPU    870.17s WALL (60850579 calls)
     fft          :      3.19s CPU      3.37s WALL (    9082 calls)
     ffts         :     35.73s CPU     36.78s WALL (  363593 calls)
     fftw         :  22241.99s CPU  22840.16s WALL (******** calls)
     interpolate  :      0.59s CPU      0.67s WALL (    1259 calls)
     davcio       :    144.30s CPU    382.22s WALL (12994793 calls)

     Parallel routines
     fft_scatter  :   3664.35s CPU   4432.66s WALL (******** calls)

     PHONON       :     8h 7m CPU        8h44m WALL

     INITIALIZATION: 
     phq_setup    :      1.09s CPU      1.11s WALL (      29 calls)
     phq_init     :    447.94s CPU    471.75s WALL (      29 calls)

     phq_init     :    447.94s CPU    471.75s WALL (      29 calls)
     init_vloc    :      0.09s CPU      0.09s WALL (      29 calls)
     init_us_1    :      3.31s CPU      3.32s WALL (      29 calls)
     newd         :      0.37s CPU      0.39s WALL (      29 calls)
     dvanqq       :      1.44s CPU      1.46s WALL (      29 calls)
     drho         :    374.90s CPU    394.78s WALL (      29 calls)

     DYNAMICAL MATRIX:
     dynmat0      :     46.15s CPU     47.76s WALL (      29 calls)
     phqscf       :  22599.05s CPU  24449.05s WALL (      29 calls)
     dynmatrix    :      0.03s CPU      0.03s WALL (      29 calls)

     phqscf       :  22599.05s CPU  24449.05s WALL (      29 calls)
     solve_linter :  22521.07s CPU  24367.30s WALL (      76 calls)
     drhodv       :     77.89s CPU     81.52s WALL (      76 calls)

     dynmat0      :     46.15s CPU     47.76s WALL (      29 calls)
     dynmat_us    :     46.11s CPU     47.72s WALL (      29 calls)
     d2ionq       :      0.03s CPU      0.03s WALL (      29 calls)

     dynmat_us    :     46.11s CPU     47.72s WALL (      29 calls)
     addusdynmat  :      0.00s CPU      0.00s WALL (      29 calls)

     phqscf       :  22599.05s CPU  24449.05s WALL (      29 calls)
     solve_linter :  22521.07s CPU  24367.30s WALL (      76 calls)

     solve_linter :  22521.07s CPU  24367.30s WALL (      76 calls)
     dvqpsi_us    :    659.43s CPU    696.51s WALL (  360696 calls)
     ortho        :    152.86s CPU    182.60s WALL ( 2434201 calls)
     cgsolve      :  17587.33s CPU  18807.28s WALL ( 2434201 calls)
     incdrhoscf   :   1983.46s CPU   2161.57s WALL ( 2434201 calls)
     addusddens   :     10.94s CPU     11.02s WALL (     578 calls)
     vpsifft      :   1621.78s CPU   1762.24s WALL ( 2073505 calls)
     dv_of_drho   :      3.88s CPU      4.00s WALL (     557 calls)
     mix_pot      :      0.53s CPU      1.02s WALL (     502 calls)
     ef_shift     :      0.01s CPU      0.03s WALL (       6 calls)
     localdos     :      0.19s CPU      0.20s WALL (       1 calls)
     psymdvscf    :      7.08s CPU      7.23s WALL (     460 calls)
     newdq        :      9.88s CPU      9.93s WALL (     502 calls)
     adddvscf     :     62.70s CPU     60.54s WALL ( 2073505 calls)
     drhodvus     :      0.02s CPU      0.03s WALL (      76 calls)

     dvqpsi_us    :    659.43s CPU    696.51s WALL (  360696 calls)
     dvqpsi_us_on :     89.14s CPU     82.95s WALL (  360696 calls)

     cgsolve      :  17587.33s CPU  18807.28s WALL ( 2434201 calls)
     ch_psi       :  17316.41s CPU  18506.30s WALL (23787735 calls)

     ch_psi       :  17316.41s CPU  18506.30s WALL (23787735 calls)
     h_psi        :  20466.97s CPU  21769.73s WALL (28708554 calls)
     last         :    890.37s CPU    994.74s WALL (23787735 calls)

     h_psi        :  20466.97s CPU  21769.73s WALL (28708554 calls)
     add_vuspsi   :    313.75s CPU    322.05s WALL (28708554 calls)

     incdrhoscf   :   1983.46s CPU   2161.57s WALL ( 2434201 calls)
     addusdbec    :     67.64s CPU     79.36s WALL ( 2794897 calls)

     drhodvus     :      0.02s CPU      0.03s WALL (      76 calls)

      General routines
     calbec       :    808.15s CPU    870.17s WALL (60850579 calls)
     fft          :      3.19s CPU      3.37s WALL (    9082 calls)
     ffts         :     35.73s CPU     36.78s WALL (  363593 calls)
     fftw         :  22241.99s CPU  22840.16s WALL (******** calls)
     davcio       :    144.30s CPU    382.22s WALL (12994793 calls)
     write_rec    :      0.43s CPU      1.14s WALL (     578 calls)


     PHONON       :     8h 7m CPU        8h44m WALL


   This run was terminated on:  21: 4:40  21Dec2017            

=------------------------------------------------------------------------------=
   JOB DONE.
=------------------------------------------------------------------------------=
