
     Program PWSCF v.6.1 (svn rev. 13369) starts on 31Jan2018 at 22: 4:49 

     This program is part of the open-source Quantum ESPRESSO suite
     for quantum simulation of materials; please cite
         "P. Giannozzi et al., J. Phys.:Condens. Matter 21 395502 (2009);
          URL http://www.quantum-espresso.org", 
     in publications or presentations arising from this work. More details at
     http://www.quantum-espresso.org/quote

     Parallel version (MPI), running on    64 processors
     K-points division:     npool     =       4
     R & G space division:  proc/nbgrp/npool/nimage =      16
     Waiting for input...
     Reading input from standard input

     Current dimensions of program PWSCF are:
     Max number of different atomic species (ntypx) = 10
     Max number of k-points (npk) =  80000
     Max angular momentum in pseudopotentials (lmaxx) =  3

     Subspace diagonalization in iterative solution of the eigenvalue problem:
     a serial algorithm will be used


     Parallelization info
     --------------------
     sticks:   dense  smooth     PW     G-vecs:    dense   smooth      PW
     Min          51      26      9                  973      348      70
     Max          52      27     10                  977      350      72
     Sum         823     421    151                15593     5577    1139



     bravais-lattice index     =            2
     lattice parameter (alat)  =       8.6500  a.u.
     unit-cell volume          =     161.8037 (a.u.)^3
     number of atoms/cell      =            1
     number of atomic types    =            1
     number of electrons       =         9.00
     number of Kohn-Sham states=            9
     kinetic-energy cutoff     =      40.0000  Ry
     charge density cutoff     =     320.0000  Ry
     convergence threshold     =      1.0E-10
     mixing beta               =       0.7000
     number of iterations used =            8  plain     mixing
     Exchange-correlation      = SLA  PW   PBE  PBE ( 1  4  3  4 0 0)

     celldm(1)=   8.650000  celldm(2)=   0.000000  celldm(3)=   0.000000
     celldm(4)=   0.000000  celldm(5)=   0.000000  celldm(6)=   0.000000

     crystal axes: (cart. coord. in units of alat)
               a(1) = (  -0.500000   0.000000   0.500000 )  
               a(2) = (   0.000000   0.500000   0.500000 )  
               a(3) = (  -0.500000   0.500000   0.000000 )  

     reciprocal axes: (cart. coord. in units 2 pi/alat)
               b(1) = ( -1.000000 -1.000000  1.000000 )  
               b(2) = (  1.000000  1.000000  1.000000 )  
               b(3) = ( -1.000000  1.000000 -1.000000 )  


     PseudoPot. # 1 for Na read from file:
     /home/s1333534/quantum_espresso/qe-6.1/pseudo/Na_pbe_v1.uspp.F.UPF
     MD5 check sum: 76a99c7e9422403d3e93cbc85ab7bccb
     Pseudo is Ultrasoft, Zval =  9.0
     Generated by new atomic code, or converted to UPF format
     Using radial grid of  819 points,  5 beta functions with: 
                l(1) =   0
                l(2) =   0
                l(3) =   1
                l(4) =   1
                l(5) =   2
     Q(r) pseudized with  8 coefficients,  rinner =    1.250   1.250   1.250
                                                       1.250   1.250

     atomic species   valence    mass     pseudopotential
        Na             9.00    22.99000     Na( 1.00)

     48 Sym. Ops., with inversion, found



   Cartesian axes

     site n.     atom                  positions (alat units)
         1           Na  tau(   1) = (   0.0000000   0.0000000   0.0000000  )

     number of k points=   770  Marzari-Vanderbilt smearing, width (Ry)=  0.0200

     Number of k-points >= 100: set verbosity='high' to print them.

     Dense  grid:    15593 G-vectors     FFT dimensions: (  36,  36,  36)

     Smooth grid:     5577 G-vectors     FFT dimensions: (  25,  25,  25)

     Estimated max dynamical RAM per process >       1.90MB

     Estimated total allocated dynamical RAM >     121.28MB

     Initial potential from superposition of free atoms

     starting charge    8.99371, renormalised to    9.00000
     Starting wfc are    5 randomized atomic wfcs +    4 random wfc

     total cpu time spent up to now is        0.8 secs

     per-process dynamical memory:     7.9 Mb

     Self-consistent Calculation

     iteration #  1     ecut=    40.00 Ry     beta=0.70
     Davidson diagonalization with overlap
     ethr =  1.00E-02,  avg # of iterations =  5.3

     Threshold (ethr) on eigenvalues was too large:
     Diagonalizing with lowered threshold

     Davidson diagonalization with overlap
     ethr =  1.59E-05,  avg # of iterations =  3.1

     total cpu time spent up to now is        6.0 secs

     total energy              =     -95.09038630 Ry
     Harris-Foulkes estimate   =     -95.09091046 Ry
     estimated scf accuracy    <       0.00142826 Ry

     iteration #  2     ecut=    40.00 Ry     beta=0.70
     Davidson diagonalization with overlap
     ethr =  1.59E-05,  avg # of iterations =  2.0

     total cpu time spent up to now is        7.9 secs

     total energy              =     -95.09057061 Ry
     Harris-Foulkes estimate   =     -95.09061308 Ry
     estimated scf accuracy    <       0.00016049 Ry

     iteration #  3     ecut=    40.00 Ry     beta=0.70
     Davidson diagonalization with overlap
     ethr =  1.78E-06,  avg # of iterations =  2.1

     total cpu time spent up to now is        9.7 secs

     total energy              =     -95.09059093 Ry
     Harris-Foulkes estimate   =     -95.09059225 Ry
     estimated scf accuracy    <       0.00000929 Ry

     iteration #  4     ecut=    40.00 Ry     beta=0.70
     Davidson diagonalization with overlap
     ethr =  1.03E-07,  avg # of iterations =  1.0

     total cpu time spent up to now is       11.0 secs

     total energy              =     -95.09059178 Ry
     Harris-Foulkes estimate   =     -95.09059172 Ry
     estimated scf accuracy    <       0.00000001 Ry

     iteration #  5     ecut=    40.00 Ry     beta=0.70
     Davidson diagonalization with overlap
     ethr =  1.43E-10,  avg # of iterations =  3.0

     total cpu time spent up to now is       13.1 secs

     total energy              =     -95.09059182 Ry
     Harris-Foulkes estimate   =     -95.09059181 Ry
     estimated scf accuracy    <          2.0E-09 Ry

     iteration #  6     ecut=    40.00 Ry     beta=0.70
     Davidson diagonalization with overlap
     ethr =  2.18E-11,  avg # of iterations =  1.6

     total cpu time spent up to now is       14.5 secs

     End of self-consistent calculation

     Number of k-points >= 100: set verbosity='high' to print the bands.

     the Fermi energy is     3.9205 ev

!    total energy              =     -95.09059182 Ry
     Harris-Foulkes estimate   =     -95.09059182 Ry
     estimated scf accuracy    <          9.3E-11 Ry

     The total energy is the sum of the following terms:

     one-electron contribution =     -78.02673400 Ry
     hartree contribution      =      40.20289088 Ry
     xc contribution           =     -14.33332428 Ry
     ewald contribution        =     -42.93339052 Ry
     smearing contrib. (-TS)   =      -0.00003390 Ry

     convergence has been achieved in   6 iterations


     Computing stress (Cartesian axis) and pressure

          total   stress  (Ry/bohr**3)                   (kbar)     P=   71.42
   0.00048550   0.00000000   0.00000000         71.42      0.00      0.00
   0.00000000   0.00048550  -0.00000000          0.00     71.42     -0.00
   0.00000000  -0.00000000   0.00048550          0.00     -0.00     71.42


     Writing output data file na.fcc.save

     init_run     :      0.53s CPU      0.59s WALL (       1 calls)
     electrons    :     12.59s CPU     13.76s WALL (       1 calls)
     stress       :      0.29s CPU      0.30s WALL (       1 calls)

     Called by init_run:
     wfcinit      :      0.38s CPU      0.42s WALL (       1 calls)
     potinit      :      0.02s CPU      0.02s WALL (       1 calls)

     Called by electrons:
     c_bands      :     11.04s CPU     12.08s WALL (       7 calls)
     sum_band     :      1.44s CPU      1.55s WALL (       7 calls)
     v_of_rho     :      0.05s CPU      0.06s WALL (       7 calls)
     newd         :      0.04s CPU      0.05s WALL (       7 calls)
     mix_rho      :      0.01s CPU      0.01s WALL (       7 calls)

     Called by c_bands:
     init_us_2    :      0.18s CPU      0.19s WALL (    3088 calls)
     cegterg      :      9.60s CPU     10.62s WALL (    1351 calls)

     Called by sum_band:
     sum_band:bec :      0.01s CPU      0.02s WALL (    1351 calls)
     addusdens    :      0.05s CPU      0.06s WALL (       7 calls)

     Called by *egterg:
     h_psi        :      6.31s CPU      6.87s WALL (    5114 calls)
     s_psi        :      0.08s CPU      0.09s WALL (    5114 calls)
     g_psi        :      0.02s CPU      0.02s WALL (    3570 calls)
     cdiaghg      :      2.20s CPU      2.41s WALL (    4728 calls)

     Called by h_psi:
     h_psi:pot    :      6.27s CPU      6.83s WALL (    5114 calls)
     h_psi:calbec :      0.35s CPU      0.38s WALL (    5114 calls)
     vloc_psi     :      5.79s CPU      6.31s WALL (    5114 calls)
     add_vuspsi   :      0.09s CPU      0.09s WALL (    5114 calls)

     General routines
     calbec       :      0.43s CPU      0.46s WALL (    6658 calls)
     fft          :      0.05s CPU      0.06s WALL (     117 calls)
     ffts         :      0.00s CPU      0.00s WALL (      14 calls)
     fftw         :      6.07s CPU      6.59s WALL (   77269 calls)
     interpolate  :      0.01s CPU      0.01s WALL (      14 calls)
     davcio       :      0.00s CPU      0.07s WALL (     193 calls)

     Parallel routines
     fft_scatter  :      3.44s CPU      3.74s WALL (   77400 calls)

     PWSCF        :    16.64s CPU        18.12s WALL


   This run was terminated on:  22: 5: 8  31Jan2018            

=------------------------------------------------------------------------------=
   JOB DONE.
=------------------------------------------------------------------------------=
