
     Program PWSCF v.6.1 (svn rev. 13369) starts on 21Dec2017 at 12:19:32 

     This program is part of the open-source Quantum ESPRESSO suite
     for quantum simulation of materials; please cite
         "P. Giannozzi et al., J. Phys.:Condens. Matter 21 395502 (2009);
          URL http://www.quantum-espresso.org", 
     in publications or presentations arising from this work. More details at
     http://www.quantum-espresso.org/quote

     Parallel version (MPI), running on     4 processors
     R & G space division:  proc/nbgrp/npool/nimage =       4
     Waiting for input...
     Reading input from standard input

     Current dimensions of program PWSCF are:
     Max number of different atomic species (ntypx) = 10
     Max number of k-points (npk) =  40000
     Max angular momentum in pseudopotentials (lmaxx) =  3

     Subspace diagonalization in iterative solution of the eigenvalue problem:
     a serial algorithm will be used


     Parallelization info
     --------------------
     sticks:   dense  smooth     PW     G-vecs:    dense   smooth      PW
     Min         231     115     40                 4624     1641     322
     Max         232     117     42                 4626     1642     323
     Sum         925     463    163                18499     6567    1291



     bravais-lattice index     =            2
     lattice parameter (alat)  =       9.1543  a.u.
     unit-cell volume          =     191.7866 (a.u.)^3
     number of atoms/cell      =            1
     number of atomic types    =            1
     number of electrons       =         9.00
     number of Kohn-Sham states=            9
     kinetic-energy cutoff     =      40.0000  Ry
     charge density cutoff     =     320.0000  Ry
     convergence threshold     =      1.0E-08
     mixing beta               =       0.7000
     number of iterations used =            8  plain     mixing
     Exchange-correlation      = SLA  PW   PBE  PBE ( 1  4  3  4 0 0)

     celldm(1)=   9.154320  celldm(2)=   0.000000  celldm(3)=   0.000000
     celldm(4)=   0.000000  celldm(5)=   0.000000  celldm(6)=   0.000000

     crystal axes: (cart. coord. in units of alat)
               a(1) = (  -0.500000   0.000000   0.500000 )  
               a(2) = (   0.000000   0.500000   0.500000 )  
               a(3) = (  -0.500000   0.500000   0.000000 )  

     reciprocal axes: (cart. coord. in units 2 pi/alat)
               b(1) = ( -1.000000 -1.000000  1.000000 )  
               b(2) = (  1.000000  1.000000  1.000000 )  
               b(3) = ( -1.000000  1.000000 -1.000000 )  


     PseudoPot. # 1 for Na read from file:
     /home/s1333534/quantum_espresso/qe-6.1/pseudo/Na_pbe_v1.uspp.F.UPF
     MD5 check sum: 76a99c7e9422403d3e93cbc85ab7bccb
     Pseudo is Ultrasoft, Zval =  9.0
     Generated by new atomic code, or converted to UPF format
     Using radial grid of  819 points,  5 beta functions with: 
                l(1) =   0
                l(2) =   0
                l(3) =   1
                l(4) =   1
                l(5) =   2
     Q(r) pseudized with  8 coefficients,  rinner =    1.250   1.250   1.250
                                                       1.250   1.250

     atomic species   valence    mass     pseudopotential
        Na             9.00    22.99000     Na( 1.00)

     48 Sym. Ops., with inversion, found



   Cartesian axes

     site n.     atom                  positions (alat units)
         1           Na  tau(   1) = (   0.0000000   0.0000000   0.0000000  )

     number of k points=   280  Marzari-Vanderbilt smearing, width (Ry)=  0.0200

     Number of k-points >= 100: set verbosity='high' to print them.

     Dense  grid:    18499 G-vectors     FFT dimensions: (  40,  40,  40)

     Smooth grid:     6567 G-vectors     FFT dimensions: (  27,  27,  27)

     Estimated max dynamical RAM per process >      11.11MB

     Estimated total allocated dynamical RAM >      44.42MB

     Initial potential from superposition of free atoms

     starting charge    8.99371, renormalised to    9.00000
     Starting wfc are    5 randomized atomic wfcs +    4 random wfc

     total cpu time spent up to now is        0.8 secs

     per-process dynamical memory:    16.7 Mb

     Self-consistent Calculation

     iteration #  1     ecut=    40.00 Ry     beta=0.70
     Davidson diagonalization with overlap
     ethr =  1.00E-02,  avg # of iterations =  5.3

     Threshold (ethr) on eigenvalues was too large:
     Diagonalizing with lowered threshold

     Davidson diagonalization with overlap
     ethr =  1.22E-05,  avg # of iterations =  3.5

     total cpu time spent up to now is        5.4 secs

     total energy              =     -95.10103589 Ry
     Harris-Foulkes estimate   =     -95.10140862 Ry
     estimated scf accuracy    <       0.00109950 Ry

     iteration #  2     ecut=    40.00 Ry     beta=0.70
     Davidson diagonalization with overlap
     ethr =  1.22E-05,  avg # of iterations =  2.0

     total cpu time spent up to now is        7.0 secs

     total energy              =     -95.10117144 Ry
     Harris-Foulkes estimate   =     -95.10120332 Ry
     estimated scf accuracy    <       0.00012254 Ry

     iteration #  3     ecut=    40.00 Ry     beta=0.70
     Davidson diagonalization with overlap
     ethr =  1.36E-06,  avg # of iterations =  2.2

     total cpu time spent up to now is        8.6 secs

     total energy              =     -95.10118638 Ry
     Harris-Foulkes estimate   =     -95.10118765 Ry
     estimated scf accuracy    <       0.00000720 Ry

     iteration #  4     ecut=    40.00 Ry     beta=0.70
     Davidson diagonalization with overlap
     ethr =  8.00E-08,  avg # of iterations =  1.0

     total cpu time spent up to now is       10.1 secs

     total energy              =     -95.10118704 Ry
     Harris-Foulkes estimate   =     -95.10118699 Ry
     estimated scf accuracy    <       0.00000001 Ry

     iteration #  5     ecut=    40.00 Ry     beta=0.70
     Davidson diagonalization with overlap
     ethr =  1.12E-10,  avg # of iterations =  3.0

     total cpu time spent up to now is       12.0 secs

     End of self-consistent calculation

     Number of k-points >= 100: set verbosity='high' to print the bands.

     the Fermi energy is     2.8814 ev

!    total energy              =     -95.10118708 Ry
     Harris-Foulkes estimate   =     -95.10118707 Ry
     estimated scf accuracy    <          1.6E-09 Ry

     The total energy is the sum of the following terms:

     one-electron contribution =     -82.13179408 Ry
     hartree contribution      =      41.90457077 Ry
     xc contribution           =     -14.30574347 Ry
     ewald contribution        =     -40.56814817 Ry
     smearing contrib. (-TS)   =      -0.00007213 Ry

     convergence has been achieved in   5 iterations


     Computing stress (Cartesian axis) and pressure

          total   stress  (Ry/bohr**3)                   (kbar)     P=   30.03
   0.00020411  -0.00000000  -0.00000000         30.03     -0.00     -0.00
  -0.00000000   0.00020411   0.00000000         -0.00     30.03      0.00
  -0.00000000   0.00000000   0.00020411         -0.00      0.00     30.03


     Writing output data file na.fcc.save

     init_run     :      0.70s CPU      0.73s WALL (       1 calls)
     electrons    :     10.65s CPU     11.25s WALL (       1 calls)
     stress       :      0.47s CPU      0.48s WALL (       1 calls)

     Called by init_run:
     wfcinit      :      0.53s CPU      0.55s WALL (       1 calls)
     potinit      :      0.02s CPU      0.03s WALL (       1 calls)

     Called by electrons:
     c_bands      :      8.88s CPU      9.39s WALL (       6 calls)
     sum_band     :      1.65s CPU      1.73s WALL (       6 calls)
     v_of_rho     :      0.07s CPU      0.07s WALL (       6 calls)
     newd         :      0.06s CPU      0.07s WALL (       6 calls)
     mix_rho      :      0.00s CPU      0.00s WALL (       6 calls)

     Called by c_bands:
     init_us_2    :      0.36s CPU      0.33s WALL (    3920 calls)
     cegterg      :      8.54s CPU      9.06s WALL (    1680 calls)

     Called by sum_band:
     sum_band:bec :      0.00s CPU      0.01s WALL (    1680 calls)
     addusdens    :      0.09s CPU      0.09s WALL (       6 calls)

     Called by *egterg:
     h_psi        :      7.36s CPU      7.81s WALL (    6707 calls)
     s_psi        :      0.08s CPU      0.08s WALL (    6707 calls)
     g_psi        :      0.04s CPU      0.04s WALL (    4747 calls)
     cdiaghg      :      0.99s CPU      1.02s WALL (    6147 calls)

     Called by h_psi:
     h_psi:pot    :      7.34s CPU      7.77s WALL (    6707 calls)
     h_psi:calbec :      0.15s CPU      0.14s WALL (    6707 calls)
     vloc_psi     :      7.10s CPU      7.53s WALL (    6707 calls)
     add_vuspsi   :      0.08s CPU      0.09s WALL (    6707 calls)

     General routines
     calbec       :      0.19s CPU      0.19s WALL (    8667 calls)
     fft          :      0.04s CPU      0.04s WALL (     101 calls)
     ffts         :      0.00s CPU      0.00s WALL (      12 calls)
     fftw         :      7.90s CPU      7.91s WALL (   99310 calls)
     interpolate  :      0.01s CPU      0.01s WALL (      12 calls)
     davcio       :      0.00s CPU      0.01s WALL (     280 calls)

     Parallel routines
     fft_scatter  :      1.20s CPU      1.44s WALL (   99423 calls)

     PWSCF        :    12.13s CPU        12.79s WALL


   This run was terminated on:  12:19:45  21Dec2017            

=------------------------------------------------------------------------------=
   JOB DONE.
=------------------------------------------------------------------------------=
