
     Program PHONON v.6.1 (svn rev. 13369) starts on 21Dec2017 at 12:19:46 

     This program is part of the open-source Quantum ESPRESSO suite
     for quantum simulation of materials; please cite
         "P. Giannozzi et al., J. Phys.:Condens. Matter 21 395502 (2009);
          URL http://www.quantum-espresso.org", 
     in publications or presentations arising from this work. More details at
     http://www.quantum-espresso.org/quote

     Parallel version (MPI), running on     4 processors
     R & G space division:  proc/nbgrp/npool/nimage =       4

     Reading data from directory:
     ./na.fcc.save

   Info: using nr1, nr2, nr3 values from input

   Info: using nr1, nr2, nr3 values from input

     IMPORTANT: XC functional enforced from input :
     Exchange-correlation      = SLA  PW   PBE  PBE ( 1  4  3  4 0 0)
     Any further DFT definition will be discarded
     Please, verify this is what you really want


     Parallelization info
     --------------------
     sticks:   dense  smooth     PW     G-vecs:    dense   smooth      PW
     Min         231     115     40                 4624     1641     322
     Max         232     117     42                 4626     1642     323
     Sum         925     463    163                18499     6567    1291



     Dynamical matrices for ( 8, 8, 8)  uniform grid of q-points
     (  29q-points):
       N         xq(1)         xq(2)         xq(3) 
       1   0.000000000   0.000000000   0.000000000
       2  -0.125000000   0.125000000  -0.125000000
       3  -0.250000000   0.250000000  -0.250000000
       4  -0.375000000   0.375000000  -0.375000000
       5   0.500000000  -0.500000000   0.500000000
       6   0.000000000   0.250000000   0.000000000
       7  -0.125000000   0.375000000  -0.125000000
       8  -0.250000000   0.500000000  -0.250000000
       9   0.625000000  -0.375000000   0.625000000
      10   0.500000000  -0.250000000   0.500000000
      11   0.375000000  -0.125000000   0.375000000
      12   0.250000000   0.000000000   0.250000000
      13   0.000000000   0.500000000   0.000000000
      14  -0.125000000   0.625000000  -0.125000000
      15   0.750000000  -0.250000000   0.750000000
      16   0.625000000  -0.125000000   0.625000000
      17   0.500000000   0.000000000   0.500000000
      18   0.000000000   0.750000000   0.000000000
      19   0.875000000  -0.125000000   0.875000000
      20   0.750000000   0.000000000   0.750000000
      21   0.000000000  -1.000000000   0.000000000
      22  -0.250000000   0.500000000   0.000000000
      23   0.625000000  -0.375000000   0.875000000
      24   0.500000000  -0.250000000   0.750000000
      25   0.750000000  -0.250000000   1.000000000
      26   0.625000000  -0.125000000   0.875000000
      27   0.500000000   0.000000000   0.750000000
      28  -0.250000000  -1.000000000   0.000000000
      29  -0.500000000  -1.000000000   0.000000000

     Calculation of q =    0.0000000   0.0000000   0.0000000

                                                                                

     bravais-lattice index     =            2
     lattice parameter (alat)  =       9.1543  a.u.
     unit-cell volume          =     191.7866 (a.u.)^3
     number of atoms/cell      =            1
     number of atomic types    =            1
     kinetic-energy cut-off    =      40.0000  Ry
     charge density cut-off    =     320.0000  Ry
     convergence threshold     =      1.0E-12
     beta                      =       0.7000
     number of iterations used =            4
     Exchange-correlation      = SLA  PW   PBE  PBE ( 1  4  3  4 0 0)


     celldm(1)=    9.15432  celldm(2)=    0.00000  celldm(3)=    0.00000
     celldm(4)=    0.00000  celldm(5)=    0.00000  celldm(6)=    0.00000

     crystal axes: (cart. coord. in units of alat)
               a(1) = ( -0.5000  0.0000  0.5000 )  
               a(2) = (  0.0000  0.5000  0.5000 )  
               a(3) = ( -0.5000  0.5000  0.0000 )  

     reciprocal axes: (cart. coord. in units 2 pi/alat)
               b(1) = ( -1.0000 -1.0000  1.0000 )  
               b(2) = (  1.0000  1.0000  1.0000 )  
               b(3) = ( -1.0000  1.0000 -1.0000 )  


     Atoms inside the unit cell: 

     Cartesian axes

     site n.  atom      mass           positions (alat units)
        1     Na  22.9900   tau(    1) = (    0.00000    0.00000    0.00000  )

     Computing dynamical matrix for 
                    q = (   0.0000000   0.0000000   0.0000000 )

     49 Sym.Ops. (with q -> -q+G )


     G cutoff =  679.2700  (   4624 G-vectors)     FFT grid: ( 40, 40, 40)
     G cutoff =  339.6350  (   1642 G-vectors)  smooth grid: ( 27, 27, 27)

     number of k points=   280  Marzari-Vanderbilt smearing, width (Ry)=  0.0200

     PseudoPot. # 1 for Na read from file:
     /home/s1333534/quantum_espresso/qe-6.1/pseudo/Na_pbe_v1.uspp.F.UPF
     MD5 check sum: 76a99c7e9422403d3e93cbc85ab7bccb
     Pseudo is Ultrasoft, Zval =  9.0
     Generated by new atomic code, or converted to UPF format
     Using radial grid of  819 points,  5 beta functions with: 
                l(1) =   0
                l(2) =   0
                l(3) =   1
                l(4) =   1
                l(5) =   2
     Q(r) pseudized with  8 coefficients,  rinner =    1.250   1.250   1.250
                                                       1.250   1.250

     Mode symmetry, O_h (m-3m)  point group:


     Atomic displacements:
     There are   1 irreducible representations

     Representation     1      3 modes -T_1u G_15  G_4-  To be done



     Alpha used in Ewald sum =   2.8000
     PHONON       :     2.08s CPU         2.18s WALL



     Representation #  1 modes #   1  2  3

     Self-consistent Calculation

     Pert. #  1: Fermi energy shift (Ry) =    -5.1699E-26    -4.7020E-38
     Pert. #  2: Fermi energy shift (Ry) =     7.3240E-25     5.4856E-38
     Pert. #  3: Fermi energy shift (Ry) =    -5.1699E-26    -1.5673E-38

      iter #   1 total cpu time :     9.9 secs   av.it.:   5.4
      thresh= 1.000E-02 alpha_mix =  0.700 |ddv_scf|^2 =  1.709E-06

     Pert. #  1: Fermi energy shift (Ry) =     3.4466E-26    -1.7143E-39
     Pert. #  2: Fermi energy shift (Ry) =    -4.7391E-26     1.3469E-39
     Pert. #  3: Fermi energy shift (Ry) =     4.3082E-27    -4.8979E-40

      iter #   2 total cpu time :    19.1 secs   av.it.:   8.4
      thresh= 1.307E-04 alpha_mix =  0.700 |ddv_scf|^2 =  3.278E-08

     Pert. #  1: Fermi energy shift (Ry) =    -2.0680E-25    -2.1428E-40
     Pert. #  2: Fermi energy shift (Ry) =    -5.5145E-25     1.6837E-40
     Pert. #  3: Fermi energy shift (Ry) =     1.0340E-25    -6.1224E-41

      iter #   3 total cpu time :    28.3 secs   av.it.:   8.5
      thresh= 1.811E-05 alpha_mix =  0.700 |ddv_scf|^2 =  4.323E-10

     Pert. #  1: Fermi energy shift (Ry) =    -3.1019E-25     1.5306E-41
     Pert. #  2: Fermi energy shift (Ry) =     8.6165E-26     3.8265E-42
     Pert. #  3: Fermi energy shift (Ry) =    -3.2743E-25    -7.6530E-42

      iter #   4 total cpu time :    37.1 secs   av.it.:   8.0
      thresh= 2.079E-06 alpha_mix =  0.700 |ddv_scf|^2 =  1.690E-12

     Pert. #  1: Fermi energy shift (Ry) =    -3.4466E-25    -3.5395E-41
     Pert. #  2: Fermi energy shift (Ry) =    -5.1699E-26     4.9744E-41
     Pert. #  3: Fermi energy shift (Ry) =     1.8095E-25    -4.4005E-41

      iter #   5 total cpu time :    46.4 secs   av.it.:   8.3
      thresh= 1.300E-07 alpha_mix =  0.700 |ddv_scf|^2 =  4.749E-15

     End of self-consistent calculation

     Convergence has been achieved 

     Number of q in the star =    1
     List of q in the star:
          1   0.000000000   0.000000000   0.000000000

     Diagonalizing the dynamical matrix

     q = (    0.000000000   0.000000000   0.000000000 ) 

 **************************************************************************
     freq (    1) =       0.327610 [THz] =      10.927892 [cm-1]
     freq (    2) =       0.327610 [THz] =      10.927892 [cm-1]
     freq (    3) =       0.327610 [THz] =      10.927892 [cm-1]
 **************************************************************************

     Mode symmetry, O_h (m-3m)  point group:

     freq (  1 -  3) =         10.9  [cm-1]   --> T_1u G_15  G_4- I  

     Calculation of q =   -0.1250000   0.1250000  -0.1250000

   Info: using nr1, nr2, nr3 values from input

   Info: using nr1, nr2, nr3 values from input

     Parallelization info
     --------------------
     sticks:   dense  smooth     PW     G-vecs:    dense   smooth      PW
     Min         231     115     40                 4624     1641     340
     Max         232     117     41                 4626     1642     342
     Sum         925     463    163                18499     6567    1363



     bravais-lattice index     =            2
     lattice parameter (alat)  =       9.1543  a.u.
     unit-cell volume          =     191.7866 (a.u.)^3
     number of atoms/cell      =            1
     number of atomic types    =            1
     number of electrons       =         9.00
     number of Kohn-Sham states=            9
     kinetic-energy cutoff     =      40.0000  Ry
     charge density cutoff     =     320.0000  Ry
     Exchange-correlation      = SLA  PW   PBE  PBE ( 1  4  3  4 0 0)

     celldm(1)=   9.154320  celldm(2)=   0.000000  celldm(3)=   0.000000
     celldm(4)=   0.000000  celldm(5)=   0.000000  celldm(6)=   0.000000

     crystal axes: (cart. coord. in units of alat)
               a(1) = (  -0.500000   0.000000   0.500000 )  
               a(2) = (   0.000000   0.500000   0.500000 )  
               a(3) = (  -0.500000   0.500000   0.000000 )  

     reciprocal axes: (cart. coord. in units 2 pi/alat)
               b(1) = ( -1.000000 -1.000000  1.000000 )  
               b(2) = (  1.000000  1.000000  1.000000 )  
               b(3) = ( -1.000000  1.000000 -1.000000 )  


     PseudoPot. # 1 for Na read from file:
     /home/s1333534/quantum_espresso/qe-6.1/pseudo/Na_pbe_v1.uspp.F.UPF
     MD5 check sum: 76a99c7e9422403d3e93cbc85ab7bccb
     Pseudo is Ultrasoft, Zval =  9.0
     Generated by new atomic code, or converted to UPF format
     Using radial grid of  819 points,  5 beta functions with: 
                l(1) =   0
                l(2) =   0
                l(3) =   1
                l(4) =   1
                l(5) =   2
     Q(r) pseudized with  8 coefficients,  rinner =    1.250   1.250   1.250
                                                       1.250   1.250

     atomic species   valence    mass     pseudopotential
        Na             9.00    22.99000     Na( 1.00)

     48 Sym. Ops., with inversion, found



   Cartesian axes

     site n.     atom                  positions (alat units)
         1           Na  tau(   1) = (   0.0000000   0.0000000   0.0000000  )

     number of k points=  4060  Marzari-Vanderbilt smearing, width (Ry)=  0.0200

     Number of k-points >= 100: set verbosity='high' to print them.

     Dense  grid:    18499 G-vectors     FFT dimensions: (  40,  40,  40)

     Smooth grid:     6567 G-vectors     FFT dimensions: (  27,  27,  27)

     Estimated max dynamical RAM per process >       1.94MB

     Estimated total allocated dynamical RAM >       7.76MB

     The potential is recalculated from file :
     ./_ph0/na.fcc.save/charge-density.dat

     Starting wfc are    5 atomic +    4 random wfc

     Band Structure Calculation
     Davidson diagonalization with overlap

     ethr =  1.11E-10,  avg # of iterations = 18.1

     total cpu time spent up to now is      104.1 secs

     End of band structure calculation

     Number of k-points >= 100: set verbosity='high' to print the bands.

     the Fermi energy is     2.8813 ev

     Writing output data file na.fcc.save

                                                                                

     bravais-lattice index     =            2
     lattice parameter (alat)  =       9.1543  a.u.
     unit-cell volume          =     191.7866 (a.u.)^3
     number of atoms/cell      =            1
     number of atomic types    =            1
     kinetic-energy cut-off    =      40.0000  Ry
     charge density cut-off    =     320.0000  Ry
     convergence threshold     =      1.0E-12
     beta                      =       0.7000
     number of iterations used =            4
     Exchange-correlation      = SLA  PW   PBE  PBE ( 1  4  3  4 0 0)


     celldm(1)=    9.15432  celldm(2)=    0.00000  celldm(3)=    0.00000
     celldm(4)=    0.00000  celldm(5)=    0.00000  celldm(6)=    0.00000

     crystal axes: (cart. coord. in units of alat)
               a(1) = ( -0.5000  0.0000  0.5000 )  
               a(2) = (  0.0000  0.5000  0.5000 )  
               a(3) = ( -0.5000  0.5000  0.0000 )  

     reciprocal axes: (cart. coord. in units 2 pi/alat)
               b(1) = ( -1.0000 -1.0000  1.0000 )  
               b(2) = (  1.0000  1.0000  1.0000 )  
               b(3) = ( -1.0000  1.0000 -1.0000 )  


     Atoms inside the unit cell: 

     Cartesian axes

     site n.  atom      mass           positions (alat units)
        1     Na  22.9900   tau(    1) = (    0.00000    0.00000    0.00000  )

     Computing dynamical matrix for 
                    q = (  -0.1250000   0.1250000  -0.1250000 )

      6 Sym.Ops. (no q -> -q+G )


     G cutoff =  679.2700  (   4624 G-vectors)     FFT grid: ( 40, 40, 40)
     G cutoff =  339.6350  (   1642 G-vectors)  smooth grid: ( 27, 27, 27)

     number of k points=  4060  Marzari-Vanderbilt smearing, width (Ry)=  0.0200

     PseudoPot. # 1 for Na read from file:
     /home/s1333534/quantum_espresso/qe-6.1/pseudo/Na_pbe_v1.uspp.F.UPF
     MD5 check sum: 76a99c7e9422403d3e93cbc85ab7bccb
     Pseudo is Ultrasoft, Zval =  9.0
     Generated by new atomic code, or converted to UPF format
     Using radial grid of  819 points,  5 beta functions with: 
                l(1) =   0
                l(2) =   0
                l(3) =   1
                l(4) =   1
                l(5) =   2
     Q(r) pseudized with  8 coefficients,  rinner =    1.250   1.250   1.250
                                                       1.250   1.250

     Mode symmetry, C_3v (3m)   point group:


     Atomic displacements:
     There are   2 irreducible representations

     Representation     1      1 modes -A_1  L_1  To be done

     Representation     2      2 modes -E    L_3  To be done



     Alpha used in Ewald sum =   2.8000
     PHONON       :  2m32.58s CPU     2m41.20s WALL



     Representation #  1 mode #   1

     Self-consistent Calculation

      iter #   1 total cpu time :   179.4 secs   av.it.:   5.7
      thresh= 1.000E-02 alpha_mix =  0.700 |ddv_scf|^2 =  2.739E-01

      iter #   2 total cpu time :   198.5 secs   av.it.:   7.1
      thresh= 1.000E-02 alpha_mix =  0.700 |ddv_scf|^2 =  1.368E+02

      iter #   3 total cpu time :   217.4 secs   av.it.:   7.1
      thresh= 1.000E-02 alpha_mix =  0.700 |ddv_scf|^2 =  4.267E-04

      iter #   4 total cpu time :   232.5 secs   av.it.:   5.1
      thresh= 2.066E-03 alpha_mix =  0.700 |ddv_scf|^2 =  2.873E-07

      iter #   5 total cpu time :   251.3 secs   av.it.:   7.2
      thresh= 5.360E-05 alpha_mix =  0.700 |ddv_scf|^2 =  8.563E-09

      iter #   6 total cpu time :   269.7 secs   av.it.:   6.9
      thresh= 9.253E-06 alpha_mix =  0.700 |ddv_scf|^2 =  8.430E-07

      iter #   7 total cpu time :   282.9 secs   av.it.:   4.2
      thresh= 9.182E-05 alpha_mix =  0.700 |ddv_scf|^2 =  9.644E-11

      iter #   8 total cpu time :   302.7 secs   av.it.:   7.6
      thresh= 9.820E-07 alpha_mix =  0.700 |ddv_scf|^2 =  5.514E-12

      iter #   9 total cpu time :   322.4 secs   av.it.:   7.6
      thresh= 2.348E-07 alpha_mix =  0.700 |ddv_scf|^2 =  2.048E-13

     End of self-consistent calculation

     Convergence has been achieved 


     Representation #  2 modes #   2  3

     Self-consistent Calculation

      iter #   1 total cpu time :   359.3 secs   av.it.:   5.5
      thresh= 1.000E-02 alpha_mix =  0.700 |ddv_scf|^2 =  3.886E-06

      iter #   2 total cpu time :   401.5 secs   av.it.:   8.3
      thresh= 1.971E-04 alpha_mix =  0.700 |ddv_scf|^2 =  7.337E-08

      iter #   3 total cpu time :   444.6 secs   av.it.:   8.5
      thresh= 2.709E-05 alpha_mix =  0.700 |ddv_scf|^2 =  1.067E-09

      iter #   4 total cpu time :   486.6 secs   av.it.:   8.2
      thresh= 3.266E-06 alpha_mix =  0.700 |ddv_scf|^2 =  4.122E-12

      iter #   5 total cpu time :   529.4 secs   av.it.:   8.4
      thresh= 2.030E-07 alpha_mix =  0.700 |ddv_scf|^2 =  1.060E-14

     End of self-consistent calculation

     Convergence has been achieved 

     Number of q in the star =    8
     List of q in the star:
          1  -0.125000000   0.125000000  -0.125000000
          2   0.125000000  -0.125000000  -0.125000000
          3   0.125000000  -0.125000000   0.125000000
          4  -0.125000000   0.125000000   0.125000000
          5   0.125000000   0.125000000  -0.125000000
          6  -0.125000000  -0.125000000  -0.125000000
          7  -0.125000000  -0.125000000   0.125000000
          8   0.125000000   0.125000000   0.125000000

     Diagonalizing the dynamical matrix

     q = (   -0.125000000   0.125000000  -0.125000000 ) 

 **************************************************************************
     freq (    1) =       0.521679 [THz] =      17.401329 [cm-1]
     freq (    2) =       0.521679 [THz] =      17.401329 [cm-1]
     freq (    3) =       2.431825 [THz] =      81.116962 [cm-1]
 **************************************************************************

     Mode symmetry, C_3v (3m)   point group:

     freq (  1 -  2) =         17.4  [cm-1]   --> E    L_3           
     freq (  3 -  3) =         81.1  [cm-1]   --> A_1  L_1           

     Calculation of q =   -0.2500000   0.2500000  -0.2500000

   Info: using nr1, nr2, nr3 values from input

   Info: using nr1, nr2, nr3 values from input

     Parallelization info
     --------------------
     sticks:   dense  smooth     PW     G-vecs:    dense   smooth      PW
     Min         231     115     40                 4624     1641     362
     Max         232     117     41                 4626     1642     366
     Sum         925     463    163                18499     6567    1459



     bravais-lattice index     =            2
     lattice parameter (alat)  =       9.1543  a.u.
     unit-cell volume          =     191.7866 (a.u.)^3
     number of atoms/cell      =            1
     number of atomic types    =            1
     number of electrons       =         9.00
     number of Kohn-Sham states=            9
     kinetic-energy cutoff     =      40.0000  Ry
     charge density cutoff     =     320.0000  Ry
     Exchange-correlation      = SLA  PW   PBE  PBE ( 1  4  3  4 0 0)

     celldm(1)=   9.154320  celldm(2)=   0.000000  celldm(3)=   0.000000
     celldm(4)=   0.000000  celldm(5)=   0.000000  celldm(6)=   0.000000

     crystal axes: (cart. coord. in units of alat)
               a(1) = (  -0.500000   0.000000   0.500000 )  
               a(2) = (   0.000000   0.500000   0.500000 )  
               a(3) = (  -0.500000   0.500000   0.000000 )  

     reciprocal axes: (cart. coord. in units 2 pi/alat)
               b(1) = ( -1.000000 -1.000000  1.000000 )  
               b(2) = (  1.000000  1.000000  1.000000 )  
               b(3) = ( -1.000000  1.000000 -1.000000 )  


     PseudoPot. # 1 for Na read from file:
     /home/s1333534/quantum_espresso/qe-6.1/pseudo/Na_pbe_v1.uspp.F.UPF
     MD5 check sum: 76a99c7e9422403d3e93cbc85ab7bccb
     Pseudo is Ultrasoft, Zval =  9.0
     Generated by new atomic code, or converted to UPF format
     Using radial grid of  819 points,  5 beta functions with: 
                l(1) =   0
                l(2) =   0
                l(3) =   1
                l(4) =   1
                l(5) =   2
     Q(r) pseudized with  8 coefficients,  rinner =    1.250   1.250   1.250
                                                       1.250   1.250

     atomic species   valence    mass     pseudopotential
        Na             9.00    22.99000     Na( 1.00)

     48 Sym. Ops., with inversion, found



   Cartesian axes

     site n.     atom                  positions (alat units)
         1           Na  tau(   1) = (   0.0000000   0.0000000   0.0000000  )

     number of k points=  4060  Marzari-Vanderbilt smearing, width (Ry)=  0.0200

     Number of k-points >= 100: set verbosity='high' to print them.

     Dense  grid:    18499 G-vectors     FFT dimensions: (  40,  40,  40)

     Smooth grid:     6567 G-vectors     FFT dimensions: (  27,  27,  27)

     Estimated max dynamical RAM per process >       1.94MB

     Estimated total allocated dynamical RAM >       7.76MB

     The potential is recalculated from file :
     ./_ph0/na.fcc.save/charge-density.dat

     Starting wfc are    5 atomic +    4 random wfc

     Band Structure Calculation
     Davidson diagonalization with overlap

     ethr =  1.11E-10,  avg # of iterations = 18.0

     total cpu time spent up to now is      211.2 secs

     End of band structure calculation

     Number of k-points >= 100: set verbosity='high' to print the bands.

     the Fermi energy is     2.8813 ev

     Writing output data file na.fcc.save

                                                                                

     bravais-lattice index     =            2
     lattice parameter (alat)  =       9.1543  a.u.
     unit-cell volume          =     191.7866 (a.u.)^3
     number of atoms/cell      =            1
     number of atomic types    =            1
     kinetic-energy cut-off    =      40.0000  Ry
     charge density cut-off    =     320.0000  Ry
     convergence threshold     =      1.0E-12
     beta                      =       0.7000
     number of iterations used =            4
     Exchange-correlation      = SLA  PW   PBE  PBE ( 1  4  3  4 0 0)


     celldm(1)=    9.15432  celldm(2)=    0.00000  celldm(3)=    0.00000
     celldm(4)=    0.00000  celldm(5)=    0.00000  celldm(6)=    0.00000

     crystal axes: (cart. coord. in units of alat)
               a(1) = ( -0.5000  0.0000  0.5000 )  
               a(2) = (  0.0000  0.5000  0.5000 )  
               a(3) = ( -0.5000  0.5000  0.0000 )  

     reciprocal axes: (cart. coord. in units 2 pi/alat)
               b(1) = ( -1.0000 -1.0000  1.0000 )  
               b(2) = (  1.0000  1.0000  1.0000 )  
               b(3) = ( -1.0000  1.0000 -1.0000 )  


     Atoms inside the unit cell: 

     Cartesian axes

     site n.  atom      mass           positions (alat units)
        1     Na  22.9900   tau(    1) = (    0.00000    0.00000    0.00000  )

     Computing dynamical matrix for 
                    q = (  -0.2500000   0.2500000  -0.2500000 )

      6 Sym.Ops. (no q -> -q+G )


     G cutoff =  679.2700  (   4624 G-vectors)     FFT grid: ( 40, 40, 40)
     G cutoff =  339.6350  (   1642 G-vectors)  smooth grid: ( 27, 27, 27)

     number of k points=  4060  Marzari-Vanderbilt smearing, width (Ry)=  0.0200

     PseudoPot. # 1 for Na read from file:
     /home/s1333534/quantum_espresso/qe-6.1/pseudo/Na_pbe_v1.uspp.F.UPF
     MD5 check sum: 76a99c7e9422403d3e93cbc85ab7bccb
     Pseudo is Ultrasoft, Zval =  9.0
     Generated by new atomic code, or converted to UPF format
     Using radial grid of  819 points,  5 beta functions with: 
                l(1) =   0
                l(2) =   0
                l(3) =   1
                l(4) =   1
                l(5) =   2
     Q(r) pseudized with  8 coefficients,  rinner =    1.250   1.250   1.250
                                                       1.250   1.250

     Mode symmetry, C_3v (3m)   point group:


     Atomic displacements:
     There are   2 irreducible representations

     Representation     1      1 modes -A_1  L_1  To be done

     Representation     2      2 modes -E    L_3  To be done



     Alpha used in Ewald sum =   2.8000
     PHONON       : 10m 3.67s CPU    10m45.62s WALL



     Representation #  1 mode #   1

     Self-consistent Calculation

      iter #   1 total cpu time :   663.9 secs   av.it.:   5.7
      thresh= 1.000E-02 alpha_mix =  0.700 |ddv_scf|^2 =  4.369E-03

      iter #   2 total cpu time :   681.3 secs   av.it.:   6.3
      thresh= 6.609E-03 alpha_mix =  0.700 |ddv_scf|^2 =  1.062E-01

      iter #   3 total cpu time :   697.7 secs   av.it.:   5.9
      thresh= 1.000E-02 alpha_mix =  0.700 |ddv_scf|^2 =  3.347E-06

      iter #   4 total cpu time :   716.7 secs   av.it.:   7.3
      thresh= 1.830E-04 alpha_mix =  0.700 |ddv_scf|^2 =  1.287E-08

      iter #   5 total cpu time :   737.4 secs   av.it.:   8.1
      thresh= 1.135E-05 alpha_mix =  0.700 |ddv_scf|^2 =  1.926E-09

      iter #   6 total cpu time :   757.3 secs   av.it.:   7.7
      thresh= 4.389E-06 alpha_mix =  0.700 |ddv_scf|^2 =  2.472E-11

      iter #   7 total cpu time :   777.9 secs   av.it.:   8.1
      thresh= 4.972E-07 alpha_mix =  0.700 |ddv_scf|^2 =  7.003E-12

      iter #   8 total cpu time :   796.2 secs   av.it.:   6.9
      thresh= 2.646E-07 alpha_mix =  0.700 |ddv_scf|^2 =  5.572E-11

      iter #   9 total cpu time :   812.5 secs   av.it.:   5.8
      thresh= 7.464E-07 alpha_mix =  0.700 |ddv_scf|^2 =  2.719E-12

      iter #  10 total cpu time :   830.9 secs   av.it.:   7.0
      thresh= 1.649E-07 alpha_mix =  0.700 |ddv_scf|^2 =  4.003E-14

     End of self-consistent calculation

     Convergence has been achieved 


     Representation #  2 modes #   2  3

     Self-consistent Calculation

      iter #   1 total cpu time :   868.0 secs   av.it.:   5.6
      thresh= 1.000E-02 alpha_mix =  0.700 |ddv_scf|^2 =  3.980E-06

      iter #   2 total cpu time :   910.6 secs   av.it.:   8.3
      thresh= 1.995E-04 alpha_mix =  0.700 |ddv_scf|^2 =  7.269E-08

      iter #   3 total cpu time :   954.2 secs   av.it.:   8.6
      thresh= 2.696E-05 alpha_mix =  0.700 |ddv_scf|^2 =  1.282E-09

      iter #   4 total cpu time :   995.8 secs   av.it.:   8.2
      thresh= 3.580E-06 alpha_mix =  0.700 |ddv_scf|^2 =  4.890E-12

      iter #   5 total cpu time :  1038.4 secs   av.it.:   8.5
      thresh= 2.211E-07 alpha_mix =  0.700 |ddv_scf|^2 =  1.053E-14

     End of self-consistent calculation

     Convergence has been achieved 

     Number of q in the star =    8
     List of q in the star:
          1  -0.250000000   0.250000000  -0.250000000
          2   0.250000000  -0.250000000  -0.250000000
          3   0.250000000  -0.250000000   0.250000000
          4  -0.250000000   0.250000000   0.250000000
          5   0.250000000   0.250000000  -0.250000000
          6  -0.250000000  -0.250000000  -0.250000000
          7  -0.250000000  -0.250000000   0.250000000
          8   0.250000000   0.250000000   0.250000000

     Diagonalizing the dynamical matrix

     q = (   -0.250000000   0.250000000  -0.250000000 ) 

 **************************************************************************
     freq (    1) =       1.239152 [THz] =      41.333655 [cm-1]
     freq (    2) =       1.239152 [THz] =      41.333655 [cm-1]
     freq (    3) =       3.989531 [THz] =     133.076438 [cm-1]
 **************************************************************************

     Mode symmetry, C_3v (3m)   point group:

     freq (  1 -  2) =         41.3  [cm-1]   --> E    L_3           
     freq (  3 -  3) =        133.1  [cm-1]   --> A_1  L_1           

     Calculation of q =   -0.3750000   0.3750000  -0.3750000

   Info: using nr1, nr2, nr3 values from input

   Info: using nr1, nr2, nr3 values from input

     Parallelization info
     --------------------
     sticks:   dense  smooth     PW     G-vecs:    dense   smooth      PW
     Min         231     115     42                 4624     1641     367
     Max         232     117     43                 4626     1642     368
     Sum         925     463    169                18499     6567    1471



     bravais-lattice index     =            2
     lattice parameter (alat)  =       9.1543  a.u.
     unit-cell volume          =     191.7866 (a.u.)^3
     number of atoms/cell      =            1
     number of atomic types    =            1
     number of electrons       =         9.00
     number of Kohn-Sham states=            9
     kinetic-energy cutoff     =      40.0000  Ry
     charge density cutoff     =     320.0000  Ry
     Exchange-correlation      = SLA  PW   PBE  PBE ( 1  4  3  4 0 0)

     celldm(1)=   9.154320  celldm(2)=   0.000000  celldm(3)=   0.000000
     celldm(4)=   0.000000  celldm(5)=   0.000000  celldm(6)=   0.000000

     crystal axes: (cart. coord. in units of alat)
               a(1) = (  -0.500000   0.000000   0.500000 )  
               a(2) = (   0.000000   0.500000   0.500000 )  
               a(3) = (  -0.500000   0.500000   0.000000 )  

     reciprocal axes: (cart. coord. in units 2 pi/alat)
               b(1) = ( -1.000000 -1.000000  1.000000 )  
               b(2) = (  1.000000  1.000000  1.000000 )  
               b(3) = ( -1.000000  1.000000 -1.000000 )  


     PseudoPot. # 1 for Na read from file:
     /home/s1333534/quantum_espresso/qe-6.1/pseudo/Na_pbe_v1.uspp.F.UPF
     MD5 check sum: 76a99c7e9422403d3e93cbc85ab7bccb
     Pseudo is Ultrasoft, Zval =  9.0
     Generated by new atomic code, or converted to UPF format
     Using radial grid of  819 points,  5 beta functions with: 
                l(1) =   0
                l(2) =   0
                l(3) =   1
                l(4) =   1
                l(5) =   2
     Q(r) pseudized with  8 coefficients,  rinner =    1.250   1.250   1.250
                                                       1.250   1.250

     atomic species   valence    mass     pseudopotential
        Na             9.00    22.99000     Na( 1.00)

     48 Sym. Ops., with inversion, found



   Cartesian axes

     site n.     atom                  positions (alat units)
         1           Na  tau(   1) = (   0.0000000   0.0000000   0.0000000  )

     number of k points=  4060  Marzari-Vanderbilt smearing, width (Ry)=  0.0200

     Number of k-points >= 100: set verbosity='high' to print them.

     Dense  grid:    18499 G-vectors     FFT dimensions: (  40,  40,  40)

     Smooth grid:     6567 G-vectors     FFT dimensions: (  27,  27,  27)

     Estimated max dynamical RAM per process >       1.94MB

     Estimated total allocated dynamical RAM >       7.76MB

     The potential is recalculated from file :
     ./_ph0/na.fcc.save/charge-density.dat

     Starting wfc are    5 atomic +    4 random wfc

     Band Structure Calculation
     Davidson diagonalization with overlap

     ethr =  1.11E-10,  avg # of iterations = 18.1

     total cpu time spent up to now is      318.7 secs

     End of band structure calculation

     Number of k-points >= 100: set verbosity='high' to print the bands.

     the Fermi energy is     2.8813 ev

     Writing output data file na.fcc.save

                                                                                

     bravais-lattice index     =            2
     lattice parameter (alat)  =       9.1543  a.u.
     unit-cell volume          =     191.7866 (a.u.)^3
     number of atoms/cell      =            1
     number of atomic types    =            1
     kinetic-energy cut-off    =      40.0000  Ry
     charge density cut-off    =     320.0000  Ry
     convergence threshold     =      1.0E-12
     beta                      =       0.7000
     number of iterations used =            4
     Exchange-correlation      = SLA  PW   PBE  PBE ( 1  4  3  4 0 0)


     celldm(1)=    9.15432  celldm(2)=    0.00000  celldm(3)=    0.00000
     celldm(4)=    0.00000  celldm(5)=    0.00000  celldm(6)=    0.00000

     crystal axes: (cart. coord. in units of alat)
               a(1) = ( -0.5000  0.0000  0.5000 )  
               a(2) = (  0.0000  0.5000  0.5000 )  
               a(3) = ( -0.5000  0.5000  0.0000 )  

     reciprocal axes: (cart. coord. in units 2 pi/alat)
               b(1) = ( -1.0000 -1.0000  1.0000 )  
               b(2) = (  1.0000  1.0000  1.0000 )  
               b(3) = ( -1.0000  1.0000 -1.0000 )  


     Atoms inside the unit cell: 

     Cartesian axes

     site n.  atom      mass           positions (alat units)
        1     Na  22.9900   tau(    1) = (    0.00000    0.00000    0.00000  )

     Computing dynamical matrix for 
                    q = (  -0.3750000   0.3750000  -0.3750000 )

      6 Sym.Ops. (no q -> -q+G )


     G cutoff =  679.2700  (   4624 G-vectors)     FFT grid: ( 40, 40, 40)
     G cutoff =  339.6350  (   1642 G-vectors)  smooth grid: ( 27, 27, 27)

     number of k points=  4060  Marzari-Vanderbilt smearing, width (Ry)=  0.0200

     PseudoPot. # 1 for Na read from file:
     /home/s1333534/quantum_espresso/qe-6.1/pseudo/Na_pbe_v1.uspp.F.UPF
     MD5 check sum: 76a99c7e9422403d3e93cbc85ab7bccb
     Pseudo is Ultrasoft, Zval =  9.0
     Generated by new atomic code, or converted to UPF format
     Using radial grid of  819 points,  5 beta functions with: 
                l(1) =   0
                l(2) =   0
                l(3) =   1
                l(4) =   1
                l(5) =   2
     Q(r) pseudized with  8 coefficients,  rinner =    1.250   1.250   1.250
                                                       1.250   1.250

     Mode symmetry, C_3v (3m)   point group:


     Atomic displacements:
     There are   2 irreducible representations

     Representation     1      1 modes -A_1  L_1  To be done

     Representation     2      2 modes -E    L_3  To be done



     Alpha used in Ewald sum =   2.8000
     PHONON       : 17m59.17s CPU    19m14.43s WALL



     Representation #  1 mode #   1

     Self-consistent Calculation

      iter #   1 total cpu time :  1172.9 secs   av.it.:   5.7
      thresh= 1.000E-02 alpha_mix =  0.700 |ddv_scf|^2 =  4.436E-04

      iter #   2 total cpu time :  1191.1 secs   av.it.:   6.7
      thresh= 2.106E-03 alpha_mix =  0.700 |ddv_scf|^2 =  1.373E-03

      iter #   3 total cpu time :  1208.2 secs   av.it.:   6.1
      thresh= 3.705E-03 alpha_mix =  0.700 |ddv_scf|^2 =  6.061E-07

      iter #   4 total cpu time :  1228.7 secs   av.it.:   7.7
      thresh= 7.785E-05 alpha_mix =  0.700 |ddv_scf|^2 =  1.516E-08

      iter #   5 total cpu time :  1249.6 secs   av.it.:   8.2
      thresh= 1.231E-05 alpha_mix =  0.700 |ddv_scf|^2 =  5.140E-10

      iter #   6 total cpu time :  1270.2 secs   av.it.:   8.0
      thresh= 2.267E-06 alpha_mix =  0.700 |ddv_scf|^2 =  2.524E-11

      iter #   7 total cpu time :  1290.2 secs   av.it.:   7.6
      thresh= 5.024E-07 alpha_mix =  0.700 |ddv_scf|^2 =  1.464E-12

      iter #   8 total cpu time :  1310.7 secs   av.it.:   7.9
      thresh= 1.210E-07 alpha_mix =  0.700 |ddv_scf|^2 =  1.625E-14

     End of self-consistent calculation

     Convergence has been achieved 


     Representation #  2 modes #   2  3

     Self-consistent Calculation

      iter #   1 total cpu time :  1347.5 secs   av.it.:   5.6
      thresh= 1.000E-02 alpha_mix =  0.700 |ddv_scf|^2 =  4.069E-06

      iter #   2 total cpu time :  1390.9 secs   av.it.:   8.3
      thresh= 2.017E-04 alpha_mix =  0.700 |ddv_scf|^2 =  7.217E-08

      iter #   3 total cpu time :  1434.9 secs   av.it.:   8.6
      thresh= 2.686E-05 alpha_mix =  0.700 |ddv_scf|^2 =  1.472E-09

      iter #   4 total cpu time :  1477.0 secs   av.it.:   8.1
      thresh= 3.837E-06 alpha_mix =  0.700 |ddv_scf|^2 =  5.566E-12

      iter #   5 total cpu time :  1520.6 secs   av.it.:   8.5
      thresh= 2.359E-07 alpha_mix =  0.700 |ddv_scf|^2 =  1.063E-14

     End of self-consistent calculation

     Convergence has been achieved 

     Number of q in the star =    8
     List of q in the star:
          1  -0.375000000   0.375000000  -0.375000000
          2   0.375000000  -0.375000000  -0.375000000
          3   0.375000000  -0.375000000   0.375000000
          4  -0.375000000   0.375000000   0.375000000
          5   0.375000000   0.375000000  -0.375000000
          6  -0.375000000  -0.375000000  -0.375000000
          7  -0.375000000  -0.375000000   0.375000000
          8   0.375000000   0.375000000   0.375000000

     Diagonalizing the dynamical matrix

     q = (   -0.375000000   0.375000000  -0.375000000 ) 

 **************************************************************************
     freq (    1) =       1.702024 [THz] =      56.773423 [cm-1]
     freq (    2) =       1.702024 [THz] =      56.773423 [cm-1]
     freq (    3) =       5.200869 [THz] =     173.482312 [cm-1]
 **************************************************************************

     Mode symmetry, C_3v (3m)   point group:

     freq (  1 -  2) =         56.8  [cm-1]   --> E    L_3           
     freq (  3 -  3) =        173.5  [cm-1]   --> A_1  L_1           

     Calculation of q =    0.5000000  -0.5000000   0.5000000

   Info: using nr1, nr2, nr3 values from input

   Info: using nr1, nr2, nr3 values from input

     Parallelization info
     --------------------
     sticks:   dense  smooth     PW     G-vecs:    dense   smooth      PW
     Min         231     115     46                 4624     1641     409
     Max         232     117     47                 4626     1642     411
     Sum         925     463    187                18499     6567    1639



     bravais-lattice index     =            2
     lattice parameter (alat)  =       9.1543  a.u.
     unit-cell volume          =     191.7866 (a.u.)^3
     number of atoms/cell      =            1
     number of atomic types    =            1
     number of electrons       =         9.00
     number of Kohn-Sham states=            9
     kinetic-energy cutoff     =      40.0000  Ry
     charge density cutoff     =     320.0000  Ry
     Exchange-correlation      = SLA  PW   PBE  PBE ( 1  4  3  4 0 0)

     celldm(1)=   9.154320  celldm(2)=   0.000000  celldm(3)=   0.000000
     celldm(4)=   0.000000  celldm(5)=   0.000000  celldm(6)=   0.000000

     crystal axes: (cart. coord. in units of alat)
               a(1) = (  -0.500000   0.000000   0.500000 )  
               a(2) = (   0.000000   0.500000   0.500000 )  
               a(3) = (  -0.500000   0.500000   0.000000 )  

     reciprocal axes: (cart. coord. in units 2 pi/alat)
               b(1) = ( -1.000000 -1.000000  1.000000 )  
               b(2) = (  1.000000  1.000000  1.000000 )  
               b(3) = ( -1.000000  1.000000 -1.000000 )  


     PseudoPot. # 1 for Na read from file:
     /home/s1333534/quantum_espresso/qe-6.1/pseudo/Na_pbe_v1.uspp.F.UPF
     MD5 check sum: 76a99c7e9422403d3e93cbc85ab7bccb
     Pseudo is Ultrasoft, Zval =  9.0
     Generated by new atomic code, or converted to UPF format
     Using radial grid of  819 points,  5 beta functions with: 
                l(1) =   0
                l(2) =   0
                l(3) =   1
                l(4) =   1
                l(5) =   2
     Q(r) pseudized with  8 coefficients,  rinner =    1.250   1.250   1.250
                                                       1.250   1.250

     atomic species   valence    mass     pseudopotential
        Na             9.00    22.99000     Na( 1.00)

     48 Sym. Ops., with inversion, found



   Cartesian axes

     site n.     atom                  positions (alat units)
         1           Na  tau(   1) = (   0.0000000   0.0000000   0.0000000  )

     number of k points=  2030  Marzari-Vanderbilt smearing, width (Ry)=  0.0200

     Number of k-points >= 100: set verbosity='high' to print them.

     Dense  grid:    18499 G-vectors     FFT dimensions: (  40,  40,  40)

     Smooth grid:     6567 G-vectors     FFT dimensions: (  27,  27,  27)

     Estimated max dynamical RAM per process >       1.94MB

     Estimated total allocated dynamical RAM >       7.76MB

     The potential is recalculated from file :
     ./_ph0/na.fcc.save/charge-density.dat

     Starting wfc are    5 atomic +    4 random wfc

     Band Structure Calculation
     Davidson diagonalization with overlap

     ethr =  1.11E-10,  avg # of iterations = 18.0

     total cpu time spent up to now is      374.4 secs

     End of band structure calculation

     Number of k-points >= 100: set verbosity='high' to print the bands.

     the Fermi energy is     2.8813 ev

     Writing output data file na.fcc.save

                                                                                

     bravais-lattice index     =            2
     lattice parameter (alat)  =       9.1543  a.u.
     unit-cell volume          =     191.7866 (a.u.)^3
     number of atoms/cell      =            1
     number of atomic types    =            1
     kinetic-energy cut-off    =      40.0000  Ry
     charge density cut-off    =     320.0000  Ry
     convergence threshold     =      1.0E-12
     beta                      =       0.7000
     number of iterations used =            4
     Exchange-correlation      = SLA  PW   PBE  PBE ( 1  4  3  4 0 0)


     celldm(1)=    9.15432  celldm(2)=    0.00000  celldm(3)=    0.00000
     celldm(4)=    0.00000  celldm(5)=    0.00000  celldm(6)=    0.00000

     crystal axes: (cart. coord. in units of alat)
               a(1) = ( -0.5000  0.0000  0.5000 )  
               a(2) = (  0.0000  0.5000  0.5000 )  
               a(3) = ( -0.5000  0.5000  0.0000 )  

     reciprocal axes: (cart. coord. in units 2 pi/alat)
               b(1) = ( -1.0000 -1.0000  1.0000 )  
               b(2) = (  1.0000  1.0000  1.0000 )  
               b(3) = ( -1.0000  1.0000 -1.0000 )  


     Atoms inside the unit cell: 

     Cartesian axes

     site n.  atom      mass           positions (alat units)
        1     Na  22.9900   tau(    1) = (    0.00000    0.00000    0.00000  )

     Computing dynamical matrix for 
                    q = (   0.5000000  -0.5000000   0.5000000 )

     13 Sym.Ops. (with q -> -q+G )


     G cutoff =  679.2700  (   4624 G-vectors)     FFT grid: ( 40, 40, 40)
     G cutoff =  339.6350  (   1642 G-vectors)  smooth grid: ( 27, 27, 27)

     number of k points=  2030  Marzari-Vanderbilt smearing, width (Ry)=  0.0200

     PseudoPot. # 1 for Na read from file:
     /home/s1333534/quantum_espresso/qe-6.1/pseudo/Na_pbe_v1.uspp.F.UPF
     MD5 check sum: 76a99c7e9422403d3e93cbc85ab7bccb
     Pseudo is Ultrasoft, Zval =  9.0
     Generated by new atomic code, or converted to UPF format
     Using radial grid of  819 points,  5 beta functions with: 
                l(1) =   0
                l(2) =   0
                l(3) =   1
                l(4) =   1
                l(5) =   2
     Q(r) pseudized with  8 coefficients,  rinner =    1.250   1.250   1.250
                                                       1.250   1.250

     Mode symmetry, D_3d (-3m)  point group:


     Atomic displacements:
     There are   2 irreducible representations

     Representation     1      1 modes -A_2u L_2'  To be done

     Representation     2      2 modes -E_u  L_3'  To be done



     Alpha used in Ewald sum =   2.8000
     PHONON       : 24m34.31s CPU    26m20.33s WALL



     Representation #  1 mode #   1

     Self-consistent Calculation

      iter #   1 total cpu time :  1589.8 secs   av.it.:   5.7
      thresh= 1.000E-02 alpha_mix =  0.700 |ddv_scf|^2 =  1.691E-04

      iter #   2 total cpu time :  1599.1 secs   av.it.:   6.8
      thresh= 1.301E-03 alpha_mix =  0.700 |ddv_scf|^2 =  9.924E-05

      iter #   3 total cpu time :  1608.3 secs   av.it.:   6.6
      thresh= 9.962E-04 alpha_mix =  0.700 |ddv_scf|^2 =  1.097E-07

      iter #   4 total cpu time :  1619.0 secs   av.it.:   7.8
      thresh= 3.313E-05 alpha_mix =  0.700 |ddv_scf|^2 =  4.136E-10

      iter #   5 total cpu time :  1628.3 secs   av.it.:   6.8
      thresh= 2.034E-06 alpha_mix =  0.700 |ddv_scf|^2 =  9.709E-12

      iter #   6 total cpu time :  1637.2 secs   av.it.:   6.4
      thresh= 3.116E-07 alpha_mix =  0.700 |ddv_scf|^2 =  2.297E-14

     End of self-consistent calculation

     Convergence has been achieved 


     Representation #  2 modes #   2  3

     Self-consistent Calculation

      iter #   1 total cpu time :  1655.9 secs   av.it.:   5.4
      thresh= 1.000E-02 alpha_mix =  0.700 |ddv_scf|^2 =  4.103E-06

      iter #   2 total cpu time :  1677.3 secs   av.it.:   8.2
      thresh= 2.026E-04 alpha_mix =  0.700 |ddv_scf|^2 =  7.214E-08

      iter #   3 total cpu time :  1699.1 secs   av.it.:   8.5
      thresh= 2.686E-05 alpha_mix =  0.700 |ddv_scf|^2 =  1.546E-09

      iter #   4 total cpu time :  1720.1 secs   av.it.:   7.8
      thresh= 3.932E-06 alpha_mix =  0.700 |ddv_scf|^2 =  5.830E-12

      iter #   5 total cpu time :  1741.3 secs   av.it.:   8.1
      thresh= 2.415E-07 alpha_mix =  0.700 |ddv_scf|^2 =  1.078E-14

     End of self-consistent calculation

     Convergence has been achieved 

     Number of q in the star =    4
     List of q in the star:
          1   0.500000000  -0.500000000   0.500000000
          2   0.500000000   0.500000000   0.500000000
          3  -0.500000000   0.500000000   0.500000000
          4   0.500000000   0.500000000  -0.500000000

     Diagonalizing the dynamical matrix

     q = (    0.500000000  -0.500000000   0.500000000 ) 

 **************************************************************************
     freq (    1) =       1.915905 [THz] =      63.907707 [cm-1]
     freq (    2) =       1.915905 [THz] =      63.907707 [cm-1]
     freq (    3) =       5.654828 [THz] =     188.624747 [cm-1]
 **************************************************************************

     Mode symmetry, D_3d (-3m)  point group:

     freq (  1 -  2) =         63.9  [cm-1]   --> E_u  L_3'          
     freq (  3 -  3) =        188.6  [cm-1]   --> A_2u L_2'          

     Calculation of q =    0.0000000   0.2500000   0.0000000

   Info: using nr1, nr2, nr3 values from input

   Info: using nr1, nr2, nr3 values from input

     Parallelization info
     --------------------
     sticks:   dense  smooth     PW     G-vecs:    dense   smooth      PW
     Min         231     115     40                 4624     1641     351
     Max         232     117     41                 4626     1642     354
     Sum         925     463    163                18499     6567    1411



     bravais-lattice index     =            2
     lattice parameter (alat)  =       9.1543  a.u.
     unit-cell volume          =     191.7866 (a.u.)^3
     number of atoms/cell      =            1
     number of atomic types    =            1
     number of electrons       =         9.00
     number of Kohn-Sham states=            9
     kinetic-energy cutoff     =      40.0000  Ry
     charge density cutoff     =     320.0000  Ry
     Exchange-correlation      = SLA  PW   PBE  PBE ( 1  4  3  4 0 0)

     celldm(1)=   9.154320  celldm(2)=   0.000000  celldm(3)=   0.000000
     celldm(4)=   0.000000  celldm(5)=   0.000000  celldm(6)=   0.000000

     crystal axes: (cart. coord. in units of alat)
               a(1) = (  -0.500000   0.000000   0.500000 )  
               a(2) = (   0.000000   0.500000   0.500000 )  
               a(3) = (  -0.500000   0.500000   0.000000 )  

     reciprocal axes: (cart. coord. in units 2 pi/alat)
               b(1) = ( -1.000000 -1.000000  1.000000 )  
               b(2) = (  1.000000  1.000000  1.000000 )  
               b(3) = ( -1.000000  1.000000 -1.000000 )  


     PseudoPot. # 1 for Na read from file:
     /home/s1333534/quantum_espresso/qe-6.1/pseudo/Na_pbe_v1.uspp.F.UPF
     MD5 check sum: 76a99c7e9422403d3e93cbc85ab7bccb
     Pseudo is Ultrasoft, Zval =  9.0
     Generated by new atomic code, or converted to UPF format
     Using radial grid of  819 points,  5 beta functions with: 
                l(1) =   0
                l(2) =   0
                l(3) =   1
                l(4) =   1
                l(5) =   2
     Q(r) pseudized with  8 coefficients,  rinner =    1.250   1.250   1.250
                                                       1.250   1.250

     atomic species   valence    mass     pseudopotential
        Na             9.00    22.99000     Na( 1.00)

     48 Sym. Ops., with inversion, found



   Cartesian axes

     site n.     atom                  positions (alat units)
         1           Na  tau(   1) = (   0.0000000   0.0000000   0.0000000  )

     number of k points=  2940  Marzari-Vanderbilt smearing, width (Ry)=  0.0200

     Number of k-points >= 100: set verbosity='high' to print them.

     Dense  grid:    18499 G-vectors     FFT dimensions: (  40,  40,  40)

     Smooth grid:     6567 G-vectors     FFT dimensions: (  27,  27,  27)

     Estimated max dynamical RAM per process >       1.94MB

     Estimated total allocated dynamical RAM >       7.76MB

     The potential is recalculated from file :
     ./_ph0/na.fcc.save/charge-density.dat

     Starting wfc are    5 atomic +    4 random wfc

     Band Structure Calculation
     Davidson diagonalization with overlap

     ethr =  1.11E-10,  avg # of iterations = 18.0

     total cpu time spent up to now is      451.3 secs

     End of band structure calculation

     Number of k-points >= 100: set verbosity='high' to print the bands.

     the Fermi energy is     2.8813 ev

     Writing output data file na.fcc.save

                                                                                

     bravais-lattice index     =            2
     lattice parameter (alat)  =       9.1543  a.u.
     unit-cell volume          =     191.7866 (a.u.)^3
     number of atoms/cell      =            1
     number of atomic types    =            1
     kinetic-energy cut-off    =      40.0000  Ry
     charge density cut-off    =     320.0000  Ry
     convergence threshold     =      1.0E-12
     beta                      =       0.7000
     number of iterations used =            4
     Exchange-correlation      = SLA  PW   PBE  PBE ( 1  4  3  4 0 0)


     celldm(1)=    9.15432  celldm(2)=    0.00000  celldm(3)=    0.00000
     celldm(4)=    0.00000  celldm(5)=    0.00000  celldm(6)=    0.00000

     crystal axes: (cart. coord. in units of alat)
               a(1) = ( -0.5000  0.0000  0.5000 )  
               a(2) = (  0.0000  0.5000  0.5000 )  
               a(3) = ( -0.5000  0.5000  0.0000 )  

     reciprocal axes: (cart. coord. in units 2 pi/alat)
               b(1) = ( -1.0000 -1.0000  1.0000 )  
               b(2) = (  1.0000  1.0000  1.0000 )  
               b(3) = ( -1.0000  1.0000 -1.0000 )  


     Atoms inside the unit cell: 

     Cartesian axes

     site n.  atom      mass           positions (alat units)
        1     Na  22.9900   tau(    1) = (    0.00000    0.00000    0.00000  )

     Computing dynamical matrix for 
                    q = (   0.0000000   0.2500000   0.0000000 )

      8 Sym.Ops. (no q -> -q+G )


     G cutoff =  679.2700  (   4624 G-vectors)     FFT grid: ( 40, 40, 40)
     G cutoff =  339.6350  (   1642 G-vectors)  smooth grid: ( 27, 27, 27)

     number of k points=  2940  Marzari-Vanderbilt smearing, width (Ry)=  0.0200

     PseudoPot. # 1 for Na read from file:
     /home/s1333534/quantum_espresso/qe-6.1/pseudo/Na_pbe_v1.uspp.F.UPF
     MD5 check sum: 76a99c7e9422403d3e93cbc85ab7bccb
     Pseudo is Ultrasoft, Zval =  9.0
     Generated by new atomic code, or converted to UPF format
     Using radial grid of  819 points,  5 beta functions with: 
                l(1) =   0
                l(2) =   0
                l(3) =   1
                l(4) =   1
                l(5) =   2
     Q(r) pseudized with  8 coefficients,  rinner =    1.250   1.250   1.250
                                                       1.250   1.250

     Mode symmetry, C_4v (4mm)  point group:


     Atomic displacements:
     There are   2 irreducible representations

     Representation     1      1 modes -A_1  G_1 D_1  To be done

     Representation     2      2 modes -E    G_5 D_5  To be done



     Alpha used in Ewald sum =   2.8000
     PHONON       : 28m22.78s CPU    30m25.19s WALL



     Representation #  1 mode #   1

     Self-consistent Calculation

      iter #   1 total cpu time :  1838.2 secs   av.it.:   5.7
      thresh= 1.000E-02 alpha_mix =  0.700 |ddv_scf|^2 =  1.215E-01

      iter #   2 total cpu time :  1851.6 secs   av.it.:   6.9
      thresh= 1.000E-02 alpha_mix =  0.700 |ddv_scf|^2 =  3.502E+01

      iter #   3 total cpu time :  1865.2 secs   av.it.:   6.9
      thresh= 1.000E-02 alpha_mix =  0.700 |ddv_scf|^2 =  3.360E-05

      iter #   4 total cpu time :  1877.6 secs   av.it.:   6.4
      thresh= 5.796E-04 alpha_mix =  0.700 |ddv_scf|^2 =  2.305E-07

      iter #   5 total cpu time :  1891.2 secs   av.it.:   7.2
      thresh= 4.801E-05 alpha_mix =  0.700 |ddv_scf|^2 =  4.518E-09

      iter #   6 total cpu time :  1904.9 secs   av.it.:   7.2
      thresh= 6.722E-06 alpha_mix =  0.700 |ddv_scf|^2 =  1.241E-07

      iter #   7 total cpu time :  1914.2 secs   av.it.:   4.2
      thresh= 3.523E-05 alpha_mix =  0.700 |ddv_scf|^2 =  2.750E-10

      iter #   8 total cpu time :  1928.1 secs   av.it.:   7.3
      thresh= 1.658E-06 alpha_mix =  0.700 |ddv_scf|^2 =  3.743E-12

      iter #   9 total cpu time :  1942.5 secs   av.it.:   7.8
      thresh= 1.935E-07 alpha_mix =  0.700 |ddv_scf|^2 =  2.628E-13

     End of self-consistent calculation

     Convergence has been achieved 


     Representation #  2 modes #   2  3

     Self-consistent Calculation

      iter #   1 total cpu time :  1969.1 secs   av.it.:   5.5
      thresh= 1.000E-02 alpha_mix =  0.700 |ddv_scf|^2 =  4.011E-06

      iter #   2 total cpu time :  2000.0 secs   av.it.:   8.3
      thresh= 2.003E-04 alpha_mix =  0.700 |ddv_scf|^2 =  7.159E-08

      iter #   3 total cpu time :  2031.4 secs   av.it.:   8.5
      thresh= 2.676E-05 alpha_mix =  0.700 |ddv_scf|^2 =  1.426E-09

      iter #   4 total cpu time :  2061.1 secs   av.it.:   8.1
      thresh= 3.777E-06 alpha_mix =  0.700 |ddv_scf|^2 =  5.182E-12

      iter #   5 total cpu time :  2091.7 secs   av.it.:   8.4
      thresh= 2.276E-07 alpha_mix =  0.700 |ddv_scf|^2 =  9.654E-15

     End of self-consistent calculation

     Convergence has been achieved 

     Number of q in the star =    6
     List of q in the star:
          1   0.000000000   0.250000000   0.000000000
          2   0.000000000  -0.250000000   0.000000000
          3   0.250000000   0.000000000   0.000000000
          4   0.000000000   0.000000000   0.250000000
          5   0.000000000   0.000000000  -0.250000000
          6  -0.250000000   0.000000000   0.000000000

     Diagonalizing the dynamical matrix

     q = (    0.000000000   0.250000000   0.000000000 ) 

 **************************************************************************
     freq (    1) =       1.247189 [THz] =      41.601733 [cm-1]
     freq (    2) =       1.247189 [THz] =      41.601733 [cm-1]
     freq (    3) =       2.270016 [THz] =      75.719583 [cm-1]
 **************************************************************************

     Mode symmetry, C_4v (4mm)  point group:

     freq (  1 -  2) =         41.6  [cm-1]   --> E    G_5 D_5       
     freq (  3 -  3) =         75.7  [cm-1]   --> A_1  G_1 D_1       

     Calculation of q =   -0.1250000   0.3750000  -0.1250000

   Info: using nr1, nr2, nr3 values from input

   Info: using nr1, nr2, nr3 values from input

     Parallelization info
     --------------------
     sticks:   dense  smooth     PW     G-vecs:    dense   smooth      PW
     Min         231     115     40                 4624     1641     362
     Max         232     117     41                 4626     1642     366
     Sum         925     463    163                18499     6567    1459



     bravais-lattice index     =            2
     lattice parameter (alat)  =       9.1543  a.u.
     unit-cell volume          =     191.7866 (a.u.)^3
     number of atoms/cell      =            1
     number of atomic types    =            1
     number of electrons       =         9.00
     number of Kohn-Sham states=            9
     kinetic-energy cutoff     =      40.0000  Ry
     charge density cutoff     =     320.0000  Ry
     Exchange-correlation      = SLA  PW   PBE  PBE ( 1  4  3  4 0 0)

     celldm(1)=   9.154320  celldm(2)=   0.000000  celldm(3)=   0.000000
     celldm(4)=   0.000000  celldm(5)=   0.000000  celldm(6)=   0.000000

     crystal axes: (cart. coord. in units of alat)
               a(1) = (  -0.500000   0.000000   0.500000 )  
               a(2) = (   0.000000   0.500000   0.500000 )  
               a(3) = (  -0.500000   0.500000   0.000000 )  

     reciprocal axes: (cart. coord. in units 2 pi/alat)
               b(1) = ( -1.000000 -1.000000  1.000000 )  
               b(2) = (  1.000000  1.000000  1.000000 )  
               b(3) = ( -1.000000  1.000000 -1.000000 )  


     PseudoPot. # 1 for Na read from file:
     /home/s1333534/quantum_espresso/qe-6.1/pseudo/Na_pbe_v1.uspp.F.UPF
     MD5 check sum: 76a99c7e9422403d3e93cbc85ab7bccb
     Pseudo is Ultrasoft, Zval =  9.0
     Generated by new atomic code, or converted to UPF format
     Using radial grid of  819 points,  5 beta functions with: 
                l(1) =   0
                l(2) =   0
                l(3) =   1
                l(4) =   1
                l(5) =   2
     Q(r) pseudized with  8 coefficients,  rinner =    1.250   1.250   1.250
                                                       1.250   1.250

     atomic species   valence    mass     pseudopotential
        Na             9.00    22.99000     Na( 1.00)

     48 Sym. Ops., with inversion, found



   Cartesian axes

     site n.     atom                  positions (alat units)
         1           Na  tau(   1) = (   0.0000000   0.0000000   0.0000000  )

     number of k points= 11368  Marzari-Vanderbilt smearing, width (Ry)=  0.0200

     Number of k-points >= 100: set verbosity='high' to print them.

     Dense  grid:    18499 G-vectors     FFT dimensions: (  40,  40,  40)

     Smooth grid:     6567 G-vectors     FFT dimensions: (  27,  27,  27)

     Estimated max dynamical RAM per process >       1.94MB

     Estimated total allocated dynamical RAM >       7.76MB

     The potential is recalculated from file :
     ./_ph0/na.fcc.save/charge-density.dat

     Starting wfc are    5 atomic +    4 random wfc

     Band Structure Calculation
     Davidson diagonalization with overlap

     ethr =  1.11E-10,  avg # of iterations = 17.9

     total cpu time spent up to now is      745.3 secs

     End of band structure calculation

     Number of k-points >= 100: set verbosity='high' to print the bands.

     the Fermi energy is     2.8813 ev

     Writing output data file na.fcc.save

                                                                                

     bravais-lattice index     =            2
     lattice parameter (alat)  =       9.1543  a.u.
     unit-cell volume          =     191.7866 (a.u.)^3
     number of atoms/cell      =            1
     number of atomic types    =            1
     kinetic-energy cut-off    =      40.0000  Ry
     charge density cut-off    =     320.0000  Ry
     convergence threshold     =      1.0E-12
     beta                      =       0.7000
     number of iterations used =            4
     Exchange-correlation      = SLA  PW   PBE  PBE ( 1  4  3  4 0 0)


     celldm(1)=    9.15432  celldm(2)=    0.00000  celldm(3)=    0.00000
     celldm(4)=    0.00000  celldm(5)=    0.00000  celldm(6)=    0.00000

     crystal axes: (cart. coord. in units of alat)
               a(1) = ( -0.5000  0.0000  0.5000 )  
               a(2) = (  0.0000  0.5000  0.5000 )  
               a(3) = ( -0.5000  0.5000  0.0000 )  

     reciprocal axes: (cart. coord. in units 2 pi/alat)
               b(1) = ( -1.0000 -1.0000  1.0000 )  
               b(2) = (  1.0000  1.0000  1.0000 )  
               b(3) = ( -1.0000  1.0000 -1.0000 )  


     Atoms inside the unit cell: 

     Cartesian axes

     site n.  atom      mass           positions (alat units)
        1     Na  22.9900   tau(    1) = (    0.00000    0.00000    0.00000  )

     Computing dynamical matrix for 
                    q = (  -0.1250000   0.3750000  -0.1250000 )

      2 Sym.Ops. (no q -> -q+G )


     G cutoff =  679.2700  (   4624 G-vectors)     FFT grid: ( 40, 40, 40)
     G cutoff =  339.6350  (   1642 G-vectors)  smooth grid: ( 27, 27, 27)

     number of k points= 11368  Marzari-Vanderbilt smearing, width (Ry)=  0.0200

     PseudoPot. # 1 for Na read from file:
     /home/s1333534/quantum_espresso/qe-6.1/pseudo/Na_pbe_v1.uspp.F.UPF
     MD5 check sum: 76a99c7e9422403d3e93cbc85ab7bccb
     Pseudo is Ultrasoft, Zval =  9.0
     Generated by new atomic code, or converted to UPF format
     Using radial grid of  819 points,  5 beta functions with: 
                l(1) =   0
                l(2) =   0
                l(3) =   1
                l(4) =   1
                l(5) =   2
     Q(r) pseudized with  8 coefficients,  rinner =    1.250   1.250   1.250
                                                       1.250   1.250

     Mode symmetry, C_s (m)     point group:


     Atomic displacements:
     There are   3 irreducible representations

     Representation     1      1 modes -A'  To be done

     Representation     2      1 modes -A'  To be done

     Representation     3      1 modes -A''  To be done



     Alpha used in Ewald sum =   2.8000
     PHONON       : 37m33.82s CPU    40m13.34s WALL



     Representation #  1 mode #   1

     Self-consistent Calculation

      iter #   1 total cpu time :  2465.9 secs   av.it.:   5.8
      thresh= 1.000E-02 alpha_mix =  0.700 |ddv_scf|^2 =  4.960E-03

      iter #   2 total cpu time :  2514.5 secs   av.it.:   6.4
      thresh= 7.043E-03 alpha_mix =  0.700 |ddv_scf|^2 =  1.493E-01

      iter #   3 total cpu time :  2561.1 secs   av.it.:   6.0
      thresh= 1.000E-02 alpha_mix =  0.700 |ddv_scf|^2 =  3.088E-06

      iter #   4 total cpu time :  2615.3 secs   av.it.:   7.4
      thresh= 1.757E-04 alpha_mix =  0.700 |ddv_scf|^2 =  2.233E-08

      iter #   5 total cpu time :  2672.0 secs   av.it.:   7.9
      thresh= 1.494E-05 alpha_mix =  0.700 |ddv_scf|^2 =  1.807E-09

      iter #   6 total cpu time :  2729.6 secs   av.it.:   7.7
      thresh= 4.251E-06 alpha_mix =  0.700 |ddv_scf|^2 =  1.197E-10

      iter #   7 total cpu time :  2784.9 secs   av.it.:   7.7
      thresh= 1.094E-06 alpha_mix =  0.700 |ddv_scf|^2 =  1.518E-09

      iter #   8 total cpu time :  2829.4 secs   av.it.:   5.5
      thresh= 3.897E-06 alpha_mix =  0.700 |ddv_scf|^2 =  5.952E-13

     End of self-consistent calculation

     Convergence has been achieved 


     Representation #  2 mode #   2

     Self-consistent Calculation

      iter #   1 total cpu time :  2882.7 secs   av.it.:   5.7
      thresh= 1.000E-02 alpha_mix =  0.700 |ddv_scf|^2 =  7.648E-04

      iter #   2 total cpu time :  2934.5 secs   av.it.:   6.9
      thresh= 2.766E-03 alpha_mix =  0.700 |ddv_scf|^2 =  2.259E-02

      iter #   3 total cpu time :  2976.6 secs   av.it.:   5.0
      thresh= 1.000E-02 alpha_mix =  0.700 |ddv_scf|^2 =  3.402E-07

      iter #   4 total cpu time :  3035.1 secs   av.it.:   8.1
      thresh= 5.833E-05 alpha_mix =  0.700 |ddv_scf|^2 =  9.048E-09

      iter #   5 total cpu time :  3092.0 secs   av.it.:   7.9
      thresh= 9.512E-06 alpha_mix =  0.700 |ddv_scf|^2 =  4.622E-10

      iter #   6 total cpu time :  3149.4 secs   av.it.:   7.9
      thresh= 2.150E-06 alpha_mix =  0.700 |ddv_scf|^2 =  3.430E-11

      iter #   7 total cpu time :  3205.5 secs   av.it.:   7.8
      thresh= 5.857E-07 alpha_mix =  0.700 |ddv_scf|^2 =  1.879E-10

      iter #   8 total cpu time :  3252.6 secs   av.it.:   5.9
      thresh= 1.371E-06 alpha_mix =  0.700 |ddv_scf|^2 =  4.881E-11

      iter #   9 total cpu time :  3297.5 secs   av.it.:   5.7
      thresh= 6.986E-07 alpha_mix =  0.700 |ddv_scf|^2 =  9.886E-12

      iter #  10 total cpu time :  3350.1 secs   av.it.:   7.1
      thresh= 3.144E-07 alpha_mix =  0.700 |ddv_scf|^2 =  3.754E-14

     End of self-consistent calculation

     Convergence has been achieved 


     Representation #  3 mode #   3

     Self-consistent Calculation

      iter #   1 total cpu time :  3402.8 secs   av.it.:   5.4
      thresh= 1.000E-02 alpha_mix =  0.700 |ddv_scf|^2 =  1.674E-05

      iter #   2 total cpu time :  3458.6 secs   av.it.:   7.7
      thresh= 4.092E-04 alpha_mix =  0.700 |ddv_scf|^2 =  2.784E-07

      iter #   3 total cpu time :  3516.3 secs   av.it.:   7.9
      thresh= 5.276E-05 alpha_mix =  0.700 |ddv_scf|^2 =  7.868E-09

      iter #   4 total cpu time :  3571.6 secs   av.it.:   7.5
      thresh= 8.870E-06 alpha_mix =  0.700 |ddv_scf|^2 =  2.767E-11

      iter #   5 total cpu time :  3628.2 secs   av.it.:   7.7
      thresh= 5.260E-07 alpha_mix =  0.700 |ddv_scf|^2 =  3.735E-14

     End of self-consistent calculation

     Convergence has been achieved 

     Number of q in the star =   24
     List of q in the star:
          1  -0.125000000   0.375000000  -0.125000000
          2  -0.125000000   0.375000000   0.125000000
          3   0.125000000   0.375000000  -0.125000000
          4   0.125000000   0.375000000   0.125000000
          5   0.125000000  -0.375000000   0.125000000
          6   0.375000000  -0.125000000   0.125000000
          7   0.125000000  -0.125000000   0.375000000
          8  -0.125000000  -0.375000000  -0.125000000
          9   0.125000000  -0.375000000  -0.125000000
         10  -0.125000000  -0.375000000   0.125000000
         11   0.125000000  -0.125000000  -0.375000000
         12   0.375000000  -0.125000000  -0.125000000
         13  -0.375000000  -0.125000000   0.125000000
         14   0.375000000   0.125000000   0.125000000
         15  -0.125000000  -0.125000000   0.375000000
         16   0.125000000   0.125000000   0.375000000
         17  -0.375000000   0.125000000  -0.125000000
         18  -0.125000000   0.125000000  -0.375000000
         19  -0.375000000  -0.125000000  -0.125000000
         20   0.125000000   0.125000000  -0.375000000
         21   0.375000000   0.125000000  -0.125000000
         22  -0.125000000  -0.125000000  -0.375000000
         23  -0.375000000   0.125000000   0.125000000
         24  -0.125000000   0.125000000   0.375000000

     Diagonalizing the dynamical matrix

     q = (   -0.125000000   0.375000000  -0.125000000 ) 

 **************************************************************************
     freq (    1) =       1.837086 [THz] =      61.278583 [cm-1]
     freq (    2) =       2.039909 [THz] =      68.044041 [cm-1]
     freq (    3) =       3.962434 [THz] =     132.172564 [cm-1]
 **************************************************************************

     Mode symmetry, C_s (m)     point group:

     freq (  1 -  1) =         61.3  [cm-1]   --> A''                
     freq (  2 -  2) =         68.0  [cm-1]   --> A'                 
     freq (  3 -  3) =        132.2  [cm-1]   --> A'                 

     Calculation of q =   -0.2500000   0.5000000  -0.2500000

   Info: using nr1, nr2, nr3 values from input

   Info: using nr1, nr2, nr3 values from input

     Parallelization info
     --------------------
     sticks:   dense  smooth     PW     G-vecs:    dense   smooth      PW
     Min         231     115     42                 4624     1641     367
     Max         232     117     43                 4626     1642     368
     Sum         925     463    169                18499     6567    1471



     bravais-lattice index     =            2
     lattice parameter (alat)  =       9.1543  a.u.
     unit-cell volume          =     191.7866 (a.u.)^3
     number of atoms/cell      =            1
     number of atomic types    =            1
     number of electrons       =         9.00
     number of Kohn-Sham states=            9
     kinetic-energy cutoff     =      40.0000  Ry
     charge density cutoff     =     320.0000  Ry
     Exchange-correlation      = SLA  PW   PBE  PBE ( 1  4  3  4 0 0)

     celldm(1)=   9.154320  celldm(2)=   0.000000  celldm(3)=   0.000000
     celldm(4)=   0.000000  celldm(5)=   0.000000  celldm(6)=   0.000000

     crystal axes: (cart. coord. in units of alat)
               a(1) = (  -0.500000   0.000000   0.500000 )  
               a(2) = (   0.000000   0.500000   0.500000 )  
               a(3) = (  -0.500000   0.500000   0.000000 )  

     reciprocal axes: (cart. coord. in units 2 pi/alat)
               b(1) = ( -1.000000 -1.000000  1.000000 )  
               b(2) = (  1.000000  1.000000  1.000000 )  
               b(3) = ( -1.000000  1.000000 -1.000000 )  


     PseudoPot. # 1 for Na read from file:
     /home/s1333534/quantum_espresso/qe-6.1/pseudo/Na_pbe_v1.uspp.F.UPF
     MD5 check sum: 76a99c7e9422403d3e93cbc85ab7bccb
     Pseudo is Ultrasoft, Zval =  9.0
     Generated by new atomic code, or converted to UPF format
     Using radial grid of  819 points,  5 beta functions with: 
                l(1) =   0
                l(2) =   0
                l(3) =   1
                l(4) =   1
                l(5) =   2
     Q(r) pseudized with  8 coefficients,  rinner =    1.250   1.250   1.250
                                                       1.250   1.250

     atomic species   valence    mass     pseudopotential
        Na             9.00    22.99000     Na( 1.00)

     48 Sym. Ops., with inversion, found



   Cartesian axes

     site n.     atom                  positions (alat units)
         1           Na  tau(   1) = (   0.0000000   0.0000000   0.0000000  )

     number of k points= 11368  Marzari-Vanderbilt smearing, width (Ry)=  0.0200

     Number of k-points >= 100: set verbosity='high' to print them.

     Dense  grid:    18499 G-vectors     FFT dimensions: (  40,  40,  40)

     Smooth grid:     6567 G-vectors     FFT dimensions: (  27,  27,  27)

     Estimated max dynamical RAM per process >       1.94MB

     Estimated total allocated dynamical RAM >       7.76MB

     The potential is recalculated from file :
     ./_ph0/na.fcc.save/charge-density.dat

     Starting wfc are    5 atomic +    4 random wfc

     Band Structure Calculation
     Davidson diagonalization with overlap

     ethr =  1.11E-10,  avg # of iterations = 17.9

     total cpu time spent up to now is     1043.5 secs

     End of band structure calculation

     Number of k-points >= 100: set verbosity='high' to print the bands.

     the Fermi energy is     2.8813 ev

     Writing output data file na.fcc.save

                                                                                

     bravais-lattice index     =            2
     lattice parameter (alat)  =       9.1543  a.u.
     unit-cell volume          =     191.7866 (a.u.)^3
     number of atoms/cell      =            1
     number of atomic types    =            1
     kinetic-energy cut-off    =      40.0000  Ry
     charge density cut-off    =     320.0000  Ry
     convergence threshold     =      1.0E-12
     beta                      =       0.7000
     number of iterations used =            4
     Exchange-correlation      = SLA  PW   PBE  PBE ( 1  4  3  4 0 0)


     celldm(1)=    9.15432  celldm(2)=    0.00000  celldm(3)=    0.00000
     celldm(4)=    0.00000  celldm(5)=    0.00000  celldm(6)=    0.00000

     crystal axes: (cart. coord. in units of alat)
               a(1) = ( -0.5000  0.0000  0.5000 )  
               a(2) = (  0.0000  0.5000  0.5000 )  
               a(3) = ( -0.5000  0.5000  0.0000 )  

     reciprocal axes: (cart. coord. in units 2 pi/alat)
               b(1) = ( -1.0000 -1.0000  1.0000 )  
               b(2) = (  1.0000  1.0000  1.0000 )  
               b(3) = ( -1.0000  1.0000 -1.0000 )  


     Atoms inside the unit cell: 

     Cartesian axes

     site n.  atom      mass           positions (alat units)
        1     Na  22.9900   tau(    1) = (    0.00000    0.00000    0.00000  )

     Computing dynamical matrix for 
                    q = (  -0.2500000   0.5000000  -0.2500000 )

      2 Sym.Ops. (no q -> -q+G )


     G cutoff =  679.2700  (   4624 G-vectors)     FFT grid: ( 40, 40, 40)
     G cutoff =  339.6350  (   1642 G-vectors)  smooth grid: ( 27, 27, 27)

     number of k points= 11368  Marzari-Vanderbilt smearing, width (Ry)=  0.0200

     PseudoPot. # 1 for Na read from file:
     /home/s1333534/quantum_espresso/qe-6.1/pseudo/Na_pbe_v1.uspp.F.UPF
     MD5 check sum: 76a99c7e9422403d3e93cbc85ab7bccb
     Pseudo is Ultrasoft, Zval =  9.0
     Generated by new atomic code, or converted to UPF format
     Using radial grid of  819 points,  5 beta functions with: 
                l(1) =   0
                l(2) =   0
                l(3) =   1
                l(4) =   1
                l(5) =   2
     Q(r) pseudized with  8 coefficients,  rinner =    1.250   1.250   1.250
                                                       1.250   1.250

     Mode symmetry, C_s (m)     point group:


     Atomic displacements:
     There are   3 irreducible representations

     Representation     1      1 modes -A'  To be done

     Representation     2      1 modes -A'  To be done

     Representation     3      1 modes -A''  To be done



     Alpha used in Ewald sum =   2.8000
     PHONON       :     1h 1m CPU        1h 5m WALL



     Representation #  1 mode #   1

     Self-consistent Calculation

      iter #   1 total cpu time :  4002.9 secs   av.it.:   5.8
      thresh= 1.000E-02 alpha_mix =  0.700 |ddv_scf|^2 =  4.807E-04

      iter #   2 total cpu time :  4055.4 secs   av.it.:   7.0
      thresh= 2.193E-03 alpha_mix =  0.700 |ddv_scf|^2 =  2.103E-03

      iter #   3 total cpu time :  4102.5 secs   av.it.:   6.0
      thresh= 4.586E-03 alpha_mix =  0.700 |ddv_scf|^2 =  4.820E-07

      iter #   4 total cpu time :  4160.0 secs   av.it.:   7.8
      thresh= 6.943E-05 alpha_mix =  0.700 |ddv_scf|^2 =  6.637E-09

      iter #   5 total cpu time :  4219.6 secs   av.it.:   8.3
      thresh= 8.147E-06 alpha_mix =  0.700 |ddv_scf|^2 =  7.911E-10

      iter #   6 total cpu time :  4278.2 secs   av.it.:   8.1
      thresh= 2.813E-06 alpha_mix =  0.700 |ddv_scf|^2 =  3.750E-11

      iter #   7 total cpu time :  4336.0 secs   av.it.:   7.9
      thresh= 6.124E-07 alpha_mix =  0.700 |ddv_scf|^2 =  8.227E-12

      iter #   8 total cpu time :  4389.7 secs   av.it.:   7.1
      thresh= 2.868E-07 alpha_mix =  0.700 |ddv_scf|^2 =  1.242E-11

      iter #   9 total cpu time :  4439.7 secs   av.it.:   6.5
      thresh= 3.524E-07 alpha_mix =  0.700 |ddv_scf|^2 =  4.901E-13

     End of self-consistent calculation

     Convergence has been achieved 


     Representation #  2 mode #   2

     Self-consistent Calculation

      iter #   1 total cpu time :  4493.4 secs   av.it.:   5.7
      thresh= 1.000E-02 alpha_mix =  0.700 |ddv_scf|^2 =  1.394E-04

      iter #   2 total cpu time :  4549.0 secs   av.it.:   7.4
      thresh= 1.180E-03 alpha_mix =  0.700 |ddv_scf|^2 =  5.381E-04

      iter #   3 total cpu time :  4596.2 secs   av.it.:   6.0
      thresh= 2.320E-03 alpha_mix =  0.700 |ddv_scf|^2 =  3.929E-07

      iter #   4 total cpu time :  4654.0 secs   av.it.:   7.8
      thresh= 6.268E-05 alpha_mix =  0.700 |ddv_scf|^2 =  9.646E-09

      iter #   5 total cpu time :  4713.4 secs   av.it.:   8.3
      thresh= 9.821E-06 alpha_mix =  0.700 |ddv_scf|^2 =  4.592E-10

      iter #   6 total cpu time :  4773.1 secs   av.it.:   8.2
      thresh= 2.143E-06 alpha_mix =  0.700 |ddv_scf|^2 =  4.202E-11

      iter #   7 total cpu time :  4831.1 secs   av.it.:   8.0
      thresh= 6.482E-07 alpha_mix =  0.700 |ddv_scf|^2 =  7.727E-13

     End of self-consistent calculation

     Convergence has been achieved 


     Representation #  3 mode #   3

     Self-consistent Calculation

      iter #   1 total cpu time :  4883.1 secs   av.it.:   5.5
      thresh= 1.000E-02 alpha_mix =  0.700 |ddv_scf|^2 =  1.718E-05

      iter #   2 total cpu time :  4939.8 secs   av.it.:   7.7
      thresh= 4.144E-04 alpha_mix =  0.700 |ddv_scf|^2 =  2.752E-07

      iter #   3 total cpu time :  4997.8 secs   av.it.:   7.9
      thresh= 5.246E-05 alpha_mix =  0.700 |ddv_scf|^2 =  9.090E-09

      iter #   4 total cpu time :  5053.0 secs   av.it.:   7.5
      thresh= 9.534E-06 alpha_mix =  0.700 |ddv_scf|^2 =  3.253E-11

      iter #   5 total cpu time :  5110.6 secs   av.it.:   7.8
      thresh= 5.704E-07 alpha_mix =  0.700 |ddv_scf|^2 =  3.902E-14

     End of self-consistent calculation

     Convergence has been achieved 

     Number of q in the star =   24
     List of q in the star:
          1  -0.250000000   0.500000000  -0.250000000
          2  -0.250000000   0.500000000   0.250000000
          3   0.250000000   0.500000000  -0.250000000
          4   0.250000000   0.500000000   0.250000000
          5   0.250000000  -0.500000000   0.250000000
          6   0.500000000  -0.250000000   0.250000000
          7   0.250000000  -0.250000000   0.500000000
          8  -0.250000000  -0.500000000  -0.250000000
          9   0.250000000  -0.500000000  -0.250000000
         10  -0.250000000  -0.500000000   0.250000000
         11   0.250000000  -0.250000000  -0.500000000
         12   0.500000000  -0.250000000  -0.250000000
         13  -0.500000000  -0.250000000   0.250000000
         14   0.500000000   0.250000000   0.250000000
         15  -0.250000000  -0.250000000   0.500000000
         16   0.250000000   0.250000000   0.500000000
         17  -0.500000000   0.250000000  -0.250000000
         18  -0.250000000   0.250000000  -0.500000000
         19  -0.500000000  -0.250000000  -0.250000000
         20   0.250000000   0.250000000  -0.500000000
         21   0.500000000   0.250000000  -0.250000000
         22  -0.250000000  -0.250000000  -0.500000000
         23  -0.500000000   0.250000000   0.250000000
         24  -0.250000000   0.250000000   0.500000000

     Diagonalizing the dynamical matrix

     q = (   -0.250000000   0.500000000  -0.250000000 ) 

 **************************************************************************
     freq (    1) =       2.163961 [THz] =      72.181978 [cm-1]
     freq (    2) =       2.447271 [THz] =      81.632169 [cm-1]
     freq (    3) =       5.068135 [THz] =     169.054784 [cm-1]
 **************************************************************************

     Mode symmetry, C_s (m)     point group:

     freq (  1 -  1) =         72.2  [cm-1]   --> A''                
     freq (  2 -  2) =         81.6  [cm-1]   --> A'                 
     freq (  3 -  3) =        169.1  [cm-1]   --> A'                 

     Calculation of q =    0.6250000  -0.3750000   0.6250000

   Info: using nr1, nr2, nr3 values from input

   Info: using nr1, nr2, nr3 values from input

     Parallelization info
     --------------------
     sticks:   dense  smooth     PW     G-vecs:    dense   smooth      PW
     Min         231     115     46                 4624     1641     409
     Max         232     117     47                 4626     1642     411
     Sum         925     463    187                18499     6567    1639



     bravais-lattice index     =            2
     lattice parameter (alat)  =       9.1543  a.u.
     unit-cell volume          =     191.7866 (a.u.)^3
     number of atoms/cell      =            1
     number of atomic types    =            1
     number of electrons       =         9.00
     number of Kohn-Sham states=            9
     kinetic-energy cutoff     =      40.0000  Ry
     charge density cutoff     =     320.0000  Ry
     Exchange-correlation      = SLA  PW   PBE  PBE ( 1  4  3  4 0 0)

     celldm(1)=   9.154320  celldm(2)=   0.000000  celldm(3)=   0.000000
     celldm(4)=   0.000000  celldm(5)=   0.000000  celldm(6)=   0.000000

     crystal axes: (cart. coord. in units of alat)
               a(1) = (  -0.500000   0.000000   0.500000 )  
               a(2) = (   0.000000   0.500000   0.500000 )  
               a(3) = (  -0.500000   0.500000   0.000000 )  

[...]

     PseudoPot. # 1 for Na read from file:
     /home/s1333534/quantum_espresso/qe-6.1/pseudo/Na_pbe_v1.uspp.F.UPF
     MD5 check sum: 76a99c7e9422403d3e93cbc85ab7bccb
     Pseudo is Ultrasoft, Zval =  9.0
     Generated by new atomic code, or converted to UPF format
     Using radial grid of  819 points,  5 beta functions with: 
                l(1) =   0
                l(2) =   0
                l(3) =   1
                l(4) =   1
                l(5) =   2
     Q(r) pseudized with  8 coefficients,  rinner =    1.250   1.250   1.250
                                                       1.250   1.250

     Mode symmetry, C_2v (mm2)  point group:


     Atomic displacements:
     There are   3 irreducible representations

     Representation     1      1 modes -A_1  D_1  S_1  To be done

     Representation     2      1 modes -B_1  D_3  S_3  To be done

     Representation     3      1 modes -B_2  D_4  S_4  To be done



     Alpha used in Ewald sum =   2.8000
     PHONON       :     7h43m CPU        8h19m WALL



     Representation #  1 mode #   1

     Self-consistent Calculation

      iter #   1 total cpu time : 29998.7 secs   av.it.:   5.6
      thresh= 1.000E-02 alpha_mix =  0.700 |ddv_scf|^2 =  2.476E-05

      iter #   2 total cpu time : 30028.6 secs   av.it.:   7.8
      thresh= 4.976E-04 alpha_mix =  0.700 |ddv_scf|^2 =  7.049E-07

      iter #   3 total cpu time : 30056.2 secs   av.it.:   7.7
      thresh= 8.396E-05 alpha_mix =  0.700 |ddv_scf|^2 =  3.074E-08

      iter #   4 total cpu time : 30084.5 secs   av.it.:   7.9
      thresh= 1.753E-05 alpha_mix =  0.700 |ddv_scf|^2 =  1.835E-09

      iter #   5 total cpu time : 30112.5 secs   av.it.:   7.9
      thresh= 4.283E-06 alpha_mix =  0.700 |ddv_scf|^2 =  7.103E-11

      iter #   6 total cpu time : 30141.3 secs   av.it.:   8.1
      thresh= 8.428E-07 alpha_mix =  0.700 |ddv_scf|^2 =  6.049E-12

      iter #   7 total cpu time : 30170.1 secs   av.it.:   7.9
      thresh= 2.460E-07 alpha_mix =  0.700 |ddv_scf|^2 =  1.439E-13

     End of self-consistent calculation

     Convergence has been achieved 


     Representation #  2 mode #   2

     Self-consistent Calculation

      iter #   1 total cpu time : 30195.7 secs   av.it.:   5.6
      thresh= 1.000E-02 alpha_mix =  0.700 |ddv_scf|^2 =  2.562E-05

      iter #   2 total cpu time : 30223.5 secs   av.it.:   7.7
      thresh= 5.061E-04 alpha_mix =  0.700 |ddv_scf|^2 =  3.451E-07

      iter #   3 total cpu time : 30251.6 secs   av.it.:   7.8
      thresh= 5.875E-05 alpha_mix =  0.700 |ddv_scf|^2 =  2.329E-08

      iter #   4 total cpu time : 30279.9 secs   av.it.:   7.8
      thresh= 1.526E-05 alpha_mix =  0.700 |ddv_scf|^2 =  2.797E-10

      iter #   5 total cpu time : 30305.9 secs   av.it.:   7.2
      thresh= 1.672E-06 alpha_mix =  0.700 |ddv_scf|^2 =  2.707E-13

     End of self-consistent calculation

     Convergence has been achieved 


     Representation #  3 mode #   3

     Self-consistent Calculation

      iter #   1 total cpu time : 30331.7 secs   av.it.:   5.7
      thresh= 1.000E-02 alpha_mix =  0.700 |ddv_scf|^2 =  6.605E-05

      iter #   2 total cpu time : 30358.7 secs   av.it.:   7.3
      thresh= 8.127E-04 alpha_mix =  0.700 |ddv_scf|^2 =  8.052E-06

      iter #   3 total cpu time : 30385.1 secs   av.it.:   7.3
      thresh= 2.838E-04 alpha_mix =  0.700 |ddv_scf|^2 =  6.184E-08

      iter #   4 total cpu time : 30413.4 secs   av.it.:   8.0
      thresh= 2.487E-05 alpha_mix =  0.700 |ddv_scf|^2 =  2.266E-10

      iter #   5 total cpu time : 30439.3 secs   av.it.:   7.0
      thresh= 1.505E-06 alpha_mix =  0.700 |ddv_scf|^2 =  4.095E-13

     End of self-consistent calculation

     Convergence has been achieved 

     Number of q in the star =   12
     List of q in the star:
          1  -0.250000000  -1.000000000   0.000000000
          2   0.000000000  -1.000000000   0.250000000
          3   0.000000000  -1.000000000  -0.250000000
          4   0.250000000  -1.000000000   0.000000000
          5  -1.000000000   0.000000000  -0.250000000
          6   1.000000000   0.000000000   0.250000000
          7  -1.000000000  -0.250000000   0.000000000
          8   0.000000000  -0.250000000  -1.000000000
          9   0.000000000   0.250000000  -1.000000000
         10   1.000000000   0.250000000   0.000000000
         11  -0.250000000   0.000000000   1.000000000
         12   0.250000000   0.000000000   1.000000000

     Diagonalizing the dynamical matrix

     q = (   -0.250000000  -1.000000000   0.000000000 ) 

 **************************************************************************
     freq (    1) =       3.624116 [THz] =     120.887497 [cm-1]
     freq (    2) =       4.190469 [THz] =     139.778987 [cm-1]
     freq (    3) =       5.723588 [THz] =     190.918352 [cm-1]
 **************************************************************************

     Mode symmetry, C_2v (mm2)  point group:

     freq (  1 -  1) =        120.9  [cm-1]   --> A_1  D_1  S_1      
     freq (  2 -  2) =        139.8  [cm-1]   --> B_1  D_3  S_3      
     freq (  3 -  3) =        190.9  [cm-1]   --> B_2  D_4  S_4      

     Calculation of q =   -0.5000000  -1.0000000   0.0000000

   Info: using nr1, nr2, nr3 values from input

   Info: using nr1, nr2, nr3 values from input

     Parallelization info
     --------------------
     sticks:   dense  smooth     PW     G-vecs:    dense   smooth      PW
     Min         231     115     46                 4624     1641     420
     Max         232     117     47                 4626     1642     423
     Sum         925     463    187                18499     6567    1687



     bravais-lattice index     =            2
     lattice parameter (alat)  =       9.1543  a.u.
     unit-cell volume          =     191.7866 (a.u.)^3
     number of atoms/cell      =            1
     number of atomic types    =            1
     number of electrons       =         9.00
     number of Kohn-Sham states=            9
     kinetic-energy cutoff     =      40.0000  Ry
     charge density cutoff     =     320.0000  Ry
     Exchange-correlation      = SLA  PW   PBE  PBE ( 1  4  3  4 0 0)

     celldm(1)=   9.154320  celldm(2)=   0.000000  celldm(3)=   0.000000
     celldm(4)=   0.000000  celldm(5)=   0.000000  celldm(6)=   0.000000

     crystal axes: (cart. coord. in units of alat)
               a(1) = (  -0.500000   0.000000   0.500000 )  
               a(2) = (   0.000000   0.500000   0.500000 )  
               a(3) = (  -0.500000   0.500000   0.000000 )  

     reciprocal axes: (cart. coord. in units 2 pi/alat)
               b(1) = ( -1.000000 -1.000000  1.000000 )  
               b(2) = (  1.000000  1.000000  1.000000 )  
               b(3) = ( -1.000000  1.000000 -1.000000 )  


     PseudoPot. # 1 for Na read from file:
     /home/s1333534/quantum_espresso/qe-6.1/pseudo/Na_pbe_v1.uspp.F.UPF
     MD5 check sum: 76a99c7e9422403d3e93cbc85ab7bccb
     Pseudo is Ultrasoft, Zval =  9.0
     Generated by new atomic code, or converted to UPF format
     Using radial grid of  819 points,  5 beta functions with: 
                l(1) =   0
                l(2) =   0
                l(3) =   1
                l(4) =   1
                l(5) =   2
     Q(r) pseudized with  8 coefficients,  rinner =    1.250   1.250   1.250
                                                       1.250   1.250

     atomic species   valence    mass     pseudopotential
        Na             9.00    22.99000     Na( 1.00)

     48 Sym. Ops., with inversion, found



   Cartesian axes

     site n.     atom                  positions (alat units)
         1           Na  tau(   1) = (   0.0000000   0.0000000   0.0000000  )

     number of k points=  2744  Marzari-Vanderbilt smearing, width (Ry)=  0.0200

     Number of k-points >= 100: set verbosity='high' to print them.

     Dense  grid:    18499 G-vectors     FFT dimensions: (  40,  40,  40)

     Smooth grid:     6567 G-vectors     FFT dimensions: (  27,  27,  27)

     Estimated max dynamical RAM per process >       1.94MB

     Estimated total allocated dynamical RAM >       7.76MB

     The potential is recalculated from file :
     ./_ph0/na.fcc.save/charge-density.dat

     Starting wfc are    5 atomic +    4 random wfc

     Band Structure Calculation
     Davidson diagonalization with overlap

     ethr =  1.11E-10,  avg # of iterations = 17.8

     total cpu time spent up to now is     6357.4 secs

     End of band structure calculation

     Number of k-points >= 100: set verbosity='high' to print the bands.

     the Fermi energy is     2.8813 ev

     Writing output data file na.fcc.save

                                                                                

     bravais-lattice index     =            2
     lattice parameter (alat)  =       9.1543  a.u.
     unit-cell volume          =     191.7866 (a.u.)^3
     number of atoms/cell      =            1
     number of atomic types    =            1
     kinetic-energy cut-off    =      40.0000  Ry
     charge density cut-off    =     320.0000  Ry
     convergence threshold     =      1.0E-12
     beta                      =       0.7000
     number of iterations used =            4
     Exchange-correlation      = SLA  PW   PBE  PBE ( 1  4  3  4 0 0)


     celldm(1)=    9.15432  celldm(2)=    0.00000  celldm(3)=    0.00000
     celldm(4)=    0.00000  celldm(5)=    0.00000  celldm(6)=    0.00000

     crystal axes: (cart. coord. in units of alat)
               a(1) = ( -0.5000  0.0000  0.5000 )  
               a(2) = (  0.0000  0.5000  0.5000 )  
               a(3) = ( -0.5000  0.5000  0.0000 )  

     reciprocal axes: (cart. coord. in units 2 pi/alat)
               b(1) = ( -1.0000 -1.0000  1.0000 )  
               b(2) = (  1.0000  1.0000  1.0000 )  
               b(3) = ( -1.0000  1.0000 -1.0000 )  


     Atoms inside the unit cell: 

     Cartesian axes

     site n.  atom      mass           positions (alat units)
        1     Na  22.9900   tau(    1) = (    0.00000    0.00000    0.00000  )

     Computing dynamical matrix for 
                    q = (  -0.5000000  -1.0000000   0.0000000 )

      8 Sym.Ops. (no q -> -q+G )


     G cutoff =  679.2700  (   4624 G-vectors)     FFT grid: ( 40, 40, 40)
     G cutoff =  339.6350  (   1642 G-vectors)  smooth grid: ( 27, 27, 27)

     number of k points=  2744  Marzari-Vanderbilt smearing, width (Ry)=  0.0200

     PseudoPot. # 1 for Na read from file:
     /home/s1333534/quantum_espresso/qe-6.1/pseudo/Na_pbe_v1.uspp.F.UPF
     MD5 check sum: 76a99c7e9422403d3e93cbc85ab7bccb
     Pseudo is Ultrasoft, Zval =  9.0
     Generated by new atomic code, or converted to UPF format
     Using radial grid of  819 points,  5 beta functions with: 
                l(1) =   0
                l(2) =   0
                l(3) =   1
                l(4) =   1
                l(5) =   2
     Q(r) pseudized with  8 coefficients,  rinner =    1.250   1.250   1.250
                                                       1.250   1.250

     Mode symmetry, D_2d (-42m) point group:


     Atomic displacements:
     There are   2 irreducible representations

     Representation     1      1 modes -B_2  X_3  W_2  To be done

     Representation     2      2 modes -E    X_5  W_3  To be done



     Alpha used in Ewald sum =   2.8000
     PHONON       :     7h52m CPU        8h28m WALL



     Representation #  1 mode #   1

     Self-consistent Calculation

      iter #   1 total cpu time : 30530.6 secs   av.it.:   5.6
      thresh= 1.000E-02 alpha_mix =  0.700 |ddv_scf|^2 =  2.831E-05

      iter #   2 total cpu time : 30544.5 secs   av.it.:   7.7
      thresh= 5.320E-04 alpha_mix =  0.700 |ddv_scf|^2 =  9.374E-07

      iter #   3 total cpu time : 30558.4 secs   av.it.:   7.6
      thresh= 9.682E-05 alpha_mix =  0.700 |ddv_scf|^2 =  2.249E-08

      iter #   4 total cpu time : 30572.7 secs   av.it.:   8.1
      thresh= 1.500E-05 alpha_mix =  0.700 |ddv_scf|^2 =  4.667E-10

      iter #   5 total cpu time : 30586.2 secs   av.it.:   7.5
      thresh= 2.160E-06 alpha_mix =  0.700 |ddv_scf|^2 =  7.371E-13

     End of self-consistent calculation

     Convergence has been achieved 


     Representation #  2 modes #   2  3

     Self-consistent Calculation

      iter #   1 total cpu time : 30611.3 secs   av.it.:   5.7
      thresh= 1.000E-02 alpha_mix =  0.700 |ddv_scf|^2 =  1.030E-05

      iter #   2 total cpu time : 30640.9 secs   av.it.:   8.2
      thresh= 3.209E-04 alpha_mix =  0.700 |ddv_scf|^2 =  4.666E-07

      iter #   3 total cpu time : 30668.9 secs   av.it.:   7.9
      thresh= 6.831E-05 alpha_mix =  0.700 |ddv_scf|^2 =  1.017E-08

      iter #   4 total cpu time : 30698.7 secs   av.it.:   8.5
      thresh= 1.009E-05 alpha_mix =  0.700 |ddv_scf|^2 =  6.302E-11

      iter #   5 total cpu time : 30726.0 secs   av.it.:   7.6
      thresh= 7.939E-07 alpha_mix =  0.700 |ddv_scf|^2 =  4.892E-14

     End of self-consistent calculation

     Convergence has been achieved 

     Number of q in the star =    6
     List of q in the star:
          1  -0.500000000  -1.000000000   0.000000000
          2   0.000000000   1.000000000   0.500000000
          3   0.500000000  -1.000000000   0.000000000
          4   0.000000000   1.000000000  -0.500000000
          5  -1.000000000  -0.500000000   0.000000000
          6   0.000000000  -0.500000000  -1.000000000

     Diagonalizing the dynamical matrix

     q = (   -0.500000000  -1.000000000   0.000000000 ) 

 **************************************************************************
     freq (    1) =       4.013782 [THz] =     133.885345 [cm-1]
     freq (    2) =       4.885038 [THz] =     162.947320 [cm-1]
     freq (    3) =       4.885038 [THz] =     162.947320 [cm-1]
 **************************************************************************

     Mode symmetry, D_2d (-42m) point group:

     freq (  1 -  1) =        133.9  [cm-1]   --> B_2  X_3  W_2      
     freq (  2 -  3) =        162.9  [cm-1]   --> E    X_5  W_3      

     init_run     :      8.19s CPU      8.31s WALL (      28 calls)
     electrons    :   5845.15s CPU   6182.90s WALL (      28 calls)

     Called by init_run:
     wfcinit      :      0.00s CPU      0.00s WALL (      28 calls)
     potinit      :      0.40s CPU      0.41s WALL (      28 calls)

     Called by electrons:
     c_bands      :   5844.00s CPU   6181.75s WALL (      28 calls)
     v_of_rho     :      0.32s CPU      0.33s WALL (      29 calls)
     newd         :      0.32s CPU      0.34s WALL (      29 calls)

     Called by c_bands:
     init_us_2    :    308.36s CPU    297.63s WALL ( 3413585 calls)
     cegterg      :   5354.30s CPU   5649.40s WALL (  282099 calls)

     Called by sum_band:

     Called by *egterg:
     h_psi        :  20043.64s CPU  21351.84s WALL (28436022 calls)
     s_psi        :    446.46s CPU    503.82s WALL (54471567 calls)
     g_psi        :     24.41s CPU     36.09s WALL ( 4295623 calls)
     cdiaghg      :    970.99s CPU    921.95s WALL ( 4535527 calls)

     Called by h_psi:
     h_psi:pot    :  19958.73s CPU  21250.93s WALL (28436022 calls)
     h_psi:calbec :    329.63s CPU    412.62s WALL (28436022 calls)
     vloc_psi     :  19271.79s CPU  20451.42s WALL (28436022 calls)
     add_vuspsi   :    292.90s CPU    302.78s WALL (28436022 calls)

     General routines
     calbec       :    743.79s CPU    805.76s WALL (60374604 calls)
     fft          :      3.32s CPU      3.51s WALL (    9037 calls)
     ffts         :     35.34s CPU     36.16s WALL (  363583 calls)
     fftw         :  21844.39s CPU  22408.46s WALL (******** calls)
     interpolate  :      0.55s CPU      0.62s WALL (    1253 calls)
     davcio       :    138.81s CPU    399.78s WALL (12909494 calls)

     Parallel routines
     fft_scatter  :   3381.63s CPU   4173.32s WALL (******** calls)

     PHONON       :     7h55m CPU        8h32m WALL

     INITIALIZATION: 
     phq_setup    :      1.06s CPU      1.08s WALL (      29 calls)
     phq_init     :    437.80s CPU    460.19s WALL (      29 calls)

     phq_init     :    437.80s CPU    460.19s WALL (      29 calls)
     init_vloc    :      0.09s CPU      0.09s WALL (      29 calls)
     init_us_1    :      3.28s CPU      3.30s WALL (      29 calls)
     newd         :      0.32s CPU      0.34s WALL (      29 calls)
     dvanqq       :      1.32s CPU      1.33s WALL (      29 calls)
     drho         :    368.48s CPU    387.36s WALL (      29 calls)

     DYNAMICAL MATRIX:
     dynmat0      :     44.43s CPU     45.89s WALL (      29 calls)
     phqscf       :  22057.57s CPU  23897.22s WALL (      29 calls)
     dynmatrix    :      0.03s CPU      0.04s WALL (      29 calls)

     phqscf       :  22057.57s CPU  23897.22s WALL (      29 calls)
     solve_linter :  21982.59s CPU  23818.08s WALL (      76 calls)
     drhodv       :     74.88s CPU     78.52s WALL (      76 calls)

     dynmat0      :     44.43s CPU     45.89s WALL (      29 calls)
     dynmat_us    :     44.39s CPU     45.85s WALL (      29 calls)
     d2ionq       :      0.02s CPU      0.03s WALL (      29 calls)

     dynmat_us    :     44.39s CPU     45.85s WALL (      29 calls)
     addusdynmat  :      0.00s CPU      0.00s WALL (      29 calls)

     phqscf       :  22057.57s CPU  23897.22s WALL (      29 calls)
     solve_linter :  21982.59s CPU  23818.08s WALL (      76 calls)

     solve_linter :  21982.59s CPU  23818.08s WALL (      76 calls)
     dvqpsi_us    :    651.29s CPU    687.08s WALL (  360696 calls)
     ortho        :    144.66s CPU    170.19s WALL ( 2417149 calls)
     cgsolve      :  17185.09s CPU  18385.51s WALL ( 2417149 calls)
     incdrhoscf   :   1935.16s CPU   2105.93s WALL ( 2417149 calls)
     addusddens   :     10.20s CPU     10.26s WALL (     575 calls)
     vpsifft      :   1579.32s CPU   1713.54s WALL ( 2056453 calls)
     dv_of_drho   :      3.94s CPU      4.06s WALL (     554 calls)
     mix_pot      :      0.52s CPU      1.03s WALL (     499 calls)
     ef_shift     :      0.01s CPU      0.03s WALL (       6 calls)
     localdos     :      0.18s CPU      0.20s WALL (       1 calls)
     psymdvscf    :      6.99s CPU      7.13s WALL (     457 calls)
     newdq        :      9.14s CPU      9.19s WALL (     499 calls)
     adddvscf     :     55.39s CPU     56.53s WALL ( 2056453 calls)
     drhodvus     :      0.02s CPU      0.03s WALL (      76 calls)

     dvqpsi_us    :    651.29s CPU    687.08s WALL (  360696 calls)
     dvqpsi_us_on :     86.83s CPU     80.98s WALL (  360696 calls)

     cgsolve      :  17185.09s CPU  18385.51s WALL ( 2417149 calls)
     ch_psi       :  16912.19s CPU  18098.36s WALL (23618396 calls)

     ch_psi       :  16912.19s CPU  18098.36s WALL (23618396 calls)
     h_psi        :  20043.64s CPU  21351.84s WALL (28436022 calls)
     last         :    820.69s CPU    934.64s WALL (23618396 calls)

     h_psi        :  20043.64s CPU  21351.84s WALL (28436022 calls)
     add_vuspsi   :    292.90s CPU    302.78s WALL (28436022 calls)

     incdrhoscf   :   1935.16s CPU   2105.93s WALL ( 2417149 calls)
     addusdbec    :     62.41s CPU     73.51s WALL ( 2777845 calls)

     drhodvus     :      0.02s CPU      0.03s WALL (      76 calls)

      General routines
     calbec       :    743.79s CPU    805.76s WALL (60374604 calls)
     fft          :      3.32s CPU      3.51s WALL (    9037 calls)
     ffts         :     35.34s CPU     36.16s WALL (  363583 calls)
     fftw         :  21844.39s CPU  22408.46s WALL (******** calls)
     davcio       :    138.81s CPU    399.78s WALL (12909494 calls)
     write_rec    :      0.42s CPU      1.26s WALL (     575 calls)


     PHONON       :     7h55m CPU        8h32m WALL


   This run was terminated on:  20:51:52  21Dec2017            

=------------------------------------------------------------------------------=
   JOB DONE.
=------------------------------------------------------------------------------=
