
     Program PWSCF v.6.1 (svn rev. 13369) starts on 21Dec2017 at 11:50:49 

     This program is part of the open-source Quantum ESPRESSO suite
     for quantum simulation of materials; please cite
         "P. Giannozzi et al., J. Phys.:Condens. Matter 21 395502 (2009);
          URL http://www.quantum-espresso.org", 
     in publications or presentations arising from this work. More details at
     http://www.quantum-espresso.org/quote

     Parallel version (MPI), running on     4 processors
     R & G space division:  proc/nbgrp/npool/nimage =       4
     Waiting for input...
     Reading input from standard input

     Current dimensions of program PWSCF are:
     Max number of different atomic species (ntypx) = 10
     Max number of k-points (npk) =  40000
     Max angular momentum in pseudopotentials (lmaxx) =  3

     Subspace diagonalization in iterative solution of the eigenvalue problem:
     a serial algorithm will be used


     Parallelization info
     --------------------
     sticks:   dense  smooth     PW     G-vecs:    dense   smooth      PW
     Min         226     112     34                 4237     1494     265
     Max         227     113     35                 4238     1496     266
     Sum         905     451    139                16949     5979    1061



     bravais-lattice index     =            3
     lattice parameter (alat)  =       7.0456  a.u.
     unit-cell volume          =     174.8733 (a.u.)^3
     number of atoms/cell      =            1
     number of atomic types    =            1
     number of electrons       =         9.00
     number of Kohn-Sham states=            9
     kinetic-energy cutoff     =      40.0000  Ry
     charge density cutoff     =     320.0000  Ry
     convergence threshold     =      1.0E-08
     mixing beta               =       0.7000
     number of iterations used =            8  plain     mixing
     Exchange-correlation      = SLA  PW   PBE  PBE ( 1  4  3  4 0 0)

     celldm(1)=   7.045597  celldm(2)=   0.000000  celldm(3)=   0.000000
     celldm(4)=   0.000000  celldm(5)=   0.000000  celldm(6)=   0.000000

     crystal axes: (cart. coord. in units of alat)
               a(1) = (   0.500000   0.500000   0.500000 )  
               a(2) = (  -0.500000   0.500000   0.500000 )  
               a(3) = (  -0.500000  -0.500000   0.500000 )  

     reciprocal axes: (cart. coord. in units 2 pi/alat)
               b(1) = (  1.000000  0.000000  1.000000 )  
               b(2) = ( -1.000000  1.000000  0.000000 )  
               b(3) = (  0.000000 -1.000000  1.000000 )  


     PseudoPot. # 1 for Na read from file:
     /home/s1333534/quantum_espresso/qe-6.1/pseudo/Na_pbe_v1.uspp.F.UPF
     MD5 check sum: 76a99c7e9422403d3e93cbc85ab7bccb
     Pseudo is Ultrasoft, Zval =  9.0
     Generated by new atomic code, or converted to UPF format
     Using radial grid of  819 points,  5 beta functions with: 
                l(1) =   0
                l(2) =   0
                l(3) =   1
                l(4) =   1
                l(5) =   2
     Q(r) pseudized with  8 coefficients,  rinner =    1.250   1.250   1.250
                                                       1.250   1.250

     atomic species   valence    mass     pseudopotential
        Na             9.00    22.99000     Na( 1.00)

     48 Sym. Ops., with inversion, found



   Cartesian axes

     site n.     atom                  positions (alat units)
         1           Na  tau(   1) = (   0.0000000   0.0000000   0.0000000  )

     number of k points=   100  Marzari-Vanderbilt smearing, width (Ry)=  0.0200

     Number of k-points >= 100: set verbosity='high' to print them.

     Dense  grid:    16949 G-vectors     FFT dimensions: (  36,  36,  36)

     Smooth grid:     5979 G-vectors     FFT dimensions: (  25,  25,  25)

     Estimated max dynamical RAM per process >       5.34MB

     Estimated total allocated dynamical RAM >      21.36MB

     Initial potential from superposition of free atoms

     starting charge    8.99371, renormalised to    9.00000
     Starting wfc are    5 randomized atomic wfcs +    4 random wfc

     total cpu time spent up to now is        0.4 secs

     per-process dynamical memory:     9.9 Mb

     Self-consistent Calculation

     iteration #  1     ecut=    40.00 Ry     beta=0.70
     Davidson diagonalization with overlap
     ethr =  1.00E-02,  avg # of iterations =  5.6

     Threshold (ethr) on eigenvalues was too large:
     Diagonalizing with lowered threshold

     Davidson diagonalization with overlap
     ethr =  1.37E-05,  avg # of iterations =  3.6

     total cpu time spent up to now is        1.6 secs

     total energy              =     -95.09618752 Ry
     Harris-Foulkes estimate   =     -95.09662396 Ry
     estimated scf accuracy    <       0.00123332 Ry

     iteration #  2     ecut=    40.00 Ry     beta=0.70
     Davidson diagonalization with overlap
     ethr =  1.37E-05,  avg # of iterations =  2.0

     total cpu time spent up to now is        2.0 secs

     total energy              =     -95.09634977 Ry
     Harris-Foulkes estimate   =     -95.09638544 Ry
     estimated scf accuracy    <       0.00013997 Ry

     iteration #  3     ecut=    40.00 Ry     beta=0.70
     Davidson diagonalization with overlap
     ethr =  1.56E-06,  avg # of iterations =  2.2

     total cpu time spent up to now is        2.4 secs

     total energy              =     -95.09636657 Ry
     Harris-Foulkes estimate   =     -95.09636774 Ry
     estimated scf accuracy    <       0.00000831 Ry

     iteration #  4     ecut=    40.00 Ry     beta=0.70
     Davidson diagonalization with overlap
     ethr =  9.23E-08,  avg # of iterations =  1.0

     total cpu time spent up to now is        2.8 secs

     total energy              =     -95.09636731 Ry
     Harris-Foulkes estimate   =     -95.09636725 Ry
     estimated scf accuracy    <       0.00000001 Ry

     iteration #  5     ecut=    40.00 Ry     beta=0.70
     Davidson diagonalization with overlap
     ethr =  1.23E-10,  avg # of iterations =  3.0

     total cpu time spent up to now is        3.3 secs

     End of self-consistent calculation

     Number of k-points >= 100: set verbosity='high' to print the bands.

     the Fermi energy is     3.4399 ev

!    total energy              =     -95.09636734 Ry
     Harris-Foulkes estimate   =     -95.09636733 Ry
     estimated scf accuracy    <          1.5E-09 Ry

     The total energy is the sum of the following terms:

     one-electron contribution =     -79.92195178 Ry
     hartree contribution      =      40.98449041 Ry
     xc contribution           =     -14.32025549 Ry
     ewald contribution        =     -41.83859759 Ry
     smearing contrib. (-TS)   =      -0.00005288 Ry

     convergence has been achieved in   5 iterations


     Computing stress (Cartesian axis) and pressure

          total   stress  (Ry/bohr**3)                   (kbar)     P=   49.49
   0.00033646   0.00000000  -0.00000000         49.49      0.00     -0.00
   0.00000000   0.00033646   0.00000000          0.00     49.49      0.00
  -0.00000000   0.00000000   0.00033646         -0.00      0.00     49.49


     Writing output data file na.bcc.save

     init_run     :      0.26s CPU      0.36s WALL (       1 calls)
     electrons    :      2.78s CPU      2.86s WALL (       1 calls)
     stress       :      0.21s CPU      0.21s WALL (       1 calls)

     Called by init_run:
     wfcinit      :      0.12s CPU      0.15s WALL (       1 calls)
     potinit      :      0.01s CPU      0.03s WALL (       1 calls)

     Called by electrons:
     c_bands      :      2.21s CPU      2.28s WALL (       6 calls)
     sum_band     :      0.46s CPU      0.47s WALL (       6 calls)
     v_of_rho     :      0.05s CPU      0.06s WALL (       6 calls)
     newd         :      0.06s CPU      0.07s WALL (       6 calls)
     mix_rho      :      0.00s CPU      0.00s WALL (       6 calls)

     Called by c_bands:
     init_us_2    :      0.13s CPU      0.12s WALL (    1400 calls)
     cegterg      :      2.10s CPU      2.17s WALL (     600 calls)

     Called by sum_band:
     sum_band:bec :      0.00s CPU      0.00s WALL (     600 calls)
     addusdens    :      0.08s CPU      0.08s WALL (       6 calls)

     Called by *egterg:
     h_psi        :      1.60s CPU      1.66s WALL (    2437 calls)
     s_psi        :      0.03s CPU      0.03s WALL (    2437 calls)
     g_psi        :      0.01s CPU      0.01s WALL (    1737 calls)
     cdiaghg      :      0.36s CPU      0.38s WALL (    2237 calls)

     Called by h_psi:
     h_psi:pot    :      1.60s CPU      1.65s WALL (    2437 calls)
     h_psi:calbec :      0.06s CPU      0.06s WALL (    2437 calls)
     vloc_psi     :      1.51s CPU      1.56s WALL (    2437 calls)
     add_vuspsi   :      0.02s CPU      0.03s WALL (    2437 calls)

     General routines
     calbec       :      0.08s CPU      0.09s WALL (    3137 calls)
     fft          :      0.03s CPU      0.06s WALL (     101 calls)
     ffts         :      0.00s CPU      0.00s WALL (      12 calls)
     fftw         :      1.62s CPU      1.58s WALL (   35342 calls)
     interpolate  :      0.00s CPU      0.00s WALL (      12 calls)
     davcio       :      0.00s CPU      0.00s WALL (     100 calls)

     Parallel routines
     fft_scatter  :      0.33s CPU      0.37s WALL (   35455 calls)

     PWSCF        :     3.40s CPU         3.61s WALL


   This run was terminated on:  11:50:53  21Dec2017            

=------------------------------------------------------------------------------=
   JOB DONE.
=------------------------------------------------------------------------------=
