
     Program PWSCF v.6.1 (svn rev. 13369) starts on 29Jan2018 at 10: 1:19 

     This program is part of the open-source Quantum ESPRESSO suite
     for quantum simulation of materials; please cite
         "P. Giannozzi et al., J. Phys.:Condens. Matter 21 395502 (2009);
          URL http://www.quantum-espresso.org", 
     in publications or presentations arising from this work. More details at
     http://www.quantum-espresso.org/quote

     Parallel version (MPI), running on    64 processors
     K-points division:     npool     =       4
     R & G space division:  proc/nbgrp/npool/nimage =      16
     Waiting for input...
     Reading input from standard input

     Current dimensions of program PWSCF are:
     Max number of different atomic species (ntypx) = 10
     Max number of k-points (npk) =  80000
     Max angular momentum in pseudopotentials (lmaxx) =  3

     Subspace diagonalization in iterative solution of the eigenvalue problem:
     a serial algorithm will be used


     Parallelization info
     --------------------
     sticks:   dense  smooth     PW     G-vecs:    dense   smooth      PW
     Min          68      34     11                 1497      523     101
     Max          69      35     12                 1499      526     103
     Sum        1099     547    187                23973     8393    1639



     bravais-lattice index     =            2
     lattice parameter (alat)  =       9.9699  a.u.
     unit-cell volume          =     247.7457 (a.u.)^3
     number of atoms/cell      =            1
     number of atomic types    =            1
     number of electrons       =         9.00
     number of Kohn-Sham states=            9
     kinetic-energy cutoff     =      40.0000  Ry
     charge density cutoff     =     320.0000  Ry
     convergence threshold     =      1.0E-10
     mixing beta               =       0.7000
     number of iterations used =            8  plain     mixing
     Exchange-correlation      = SLA  PW   PBE  PBE ( 1  4  3  4 0 0)

     celldm(1)=   9.969852  celldm(2)=   0.000000  celldm(3)=   0.000000
     celldm(4)=   0.000000  celldm(5)=   0.000000  celldm(6)=   0.000000

     crystal axes: (cart. coord. in units of alat)
               a(1) = (  -0.500000   0.000000   0.500000 )  
               a(2) = (   0.000000   0.500000   0.500000 )  
               a(3) = (  -0.500000   0.500000   0.000000 )  

     reciprocal axes: (cart. coord. in units 2 pi/alat)
               b(1) = ( -1.000000 -1.000000  1.000000 )  
               b(2) = (  1.000000  1.000000  1.000000 )  
               b(3) = ( -1.000000  1.000000 -1.000000 )  


     PseudoPot. # 1 for Na read from file:
     /home/s1333534/quantum_espresso/qe-6.1/pseudo/Na_pbe_v1.uspp.F.UPF
     MD5 check sum: 76a99c7e9422403d3e93cbc85ab7bccb
     Pseudo is Ultrasoft, Zval =  9.0
     Generated by new atomic code, or converted to UPF format
     Using radial grid of  819 points,  5 beta functions with: 
                l(1) =   0
                l(2) =   0
                l(3) =   1
                l(4) =   1
                l(5) =   2
     Q(r) pseudized with  8 coefficients,  rinner =    1.250   1.250   1.250
                                                       1.250   1.250

     atomic species   valence    mass     pseudopotential
        Na             9.00    22.99000     Na( 1.00)

     48 Sym. Ops., with inversion, found



   Cartesian axes

     site n.     atom                  positions (alat units)
         1           Na  tau(   1) = (   0.0000000   0.0000000   0.0000000  )

     number of k points=   770  Marzari-Vanderbilt smearing, width (Ry)=  0.0200

     Number of k-points >= 100: set verbosity='high' to print them.

     Dense  grid:    23973 G-vectors     FFT dimensions: (  45,  45,  45)

     Smooth grid:     8393 G-vectors     FFT dimensions: (  30,  30,  30)

     Estimated max dynamical RAM per process >       2.90MB

     Estimated total allocated dynamical RAM >     185.28MB

     Initial potential from superposition of free atoms

     starting charge    8.99371, renormalised to    9.00000
     Starting wfc are    5 randomized atomic wfcs +    4 random wfc

     total cpu time spent up to now is        1.1 secs

     per-process dynamical memory:     9.1 Mb

     Self-consistent Calculation

     iteration #  1     ecut=    40.00 Ry     beta=0.70
     Davidson diagonalization with overlap
     ethr =  1.00E-02,  avg # of iterations =  5.4

     Threshold (ethr) on eigenvalues was too large:
     Diagonalizing with lowered threshold

     Davidson diagonalization with overlap
     ethr =  9.84E-06,  avg # of iterations =  4.0

     total cpu time spent up to now is        8.7 secs

     total energy              =     -95.10646678 Ry
     Harris-Foulkes estimate   =     -95.10667277 Ry
     estimated scf accuracy    <       0.00088303 Ry

     iteration #  2     ecut=    40.00 Ry     beta=0.70
     Davidson diagonalization with overlap
     ethr =  9.81E-06,  avg # of iterations =  2.0

     total cpu time spent up to now is       10.9 secs

     total energy              =     -95.10656418 Ry
     Harris-Foulkes estimate   =     -95.10658518 Ry
     estimated scf accuracy    <       0.00009629 Ry

     iteration #  3     ecut=    40.00 Ry     beta=0.70
     Davidson diagonalization with overlap
     ethr =  1.07E-06,  avg # of iterations =  2.1

     total cpu time spent up to now is       13.3 secs

     total energy              =     -95.10657592 Ry
     Harris-Foulkes estimate   =     -95.10657691 Ry
     estimated scf accuracy    <       0.00000577 Ry

     iteration #  4     ecut=    40.00 Ry     beta=0.70
     Davidson diagonalization with overlap
     ethr =  6.41E-08,  avg # of iterations =  1.0

     total cpu time spent up to now is       15.3 secs

     total energy              =     -95.10657647 Ry
     Harris-Foulkes estimate   =     -95.10657642 Ry
     estimated scf accuracy    <       0.00000001 Ry

     iteration #  5     ecut=    40.00 Ry     beta=0.70
     Davidson diagonalization with overlap
     ethr =  1.29E-10,  avg # of iterations =  3.0

     total cpu time spent up to now is       18.1 secs

     total energy              =     -95.10657651 Ry
     Harris-Foulkes estimate   =     -95.10657650 Ry
     estimated scf accuracy    <          1.7E-09 Ry

     iteration #  6     ecut=    40.00 Ry     beta=0.70
     Davidson diagonalization with overlap
     ethr =  1.84E-11,  avg # of iterations =  1.6

     total cpu time spent up to now is       20.2 secs

     End of self-consistent calculation

     Number of k-points >= 100: set verbosity='high' to print the bands.

     the Fermi energy is     1.6444 ev

!    total energy              =     -95.10657651 Ry
     Harris-Foulkes estimate   =     -95.10657651 Ry
     estimated scf accuracy    <          6.8E-12 Ry

     The total energy is the sum of the following terms:

     one-electron contribution =     -87.93382969 Ry
     hartree contribution      =      44.34674813 Ry
     xc contribution           =     -14.26976566 Ry
     ewald contribution        =     -37.24968261 Ry
     smearing contrib. (-TS)   =      -0.00004668 Ry

     convergence has been achieved in   6 iterations


     Computing stress (Cartesian axis) and pressure

          total   stress  (Ry/bohr**3)                   (kbar)     P=   -2.05
  -0.00001393   0.00000000   0.00000000         -2.05      0.00      0.00
   0.00000000  -0.00001393   0.00000000          0.00     -2.05      0.00
   0.00000000   0.00000000  -0.00001393          0.00      0.00     -2.05


     Writing output data file na.fcc.save

     init_run     :      0.74s CPU      0.83s WALL (       1 calls)
     electrons    :     18.02s CPU     19.13s WALL (       1 calls)
     stress       :      0.42s CPU      0.42s WALL (       1 calls)

     Called by init_run:
     wfcinit      :      0.55s CPU      0.62s WALL (       1 calls)
     potinit      :      0.03s CPU      0.03s WALL (       1 calls)

     Called by electrons:
     c_bands      :     15.48s CPU     16.48s WALL (       7 calls)
     sum_band     :      2.35s CPU      2.46s WALL (       7 calls)
     v_of_rho     :      0.09s CPU      0.09s WALL (       7 calls)
     newd         :      0.07s CPU      0.07s WALL (       7 calls)
     mix_rho      :      0.01s CPU      0.01s WALL (       7 calls)

     Called by c_bands:
     init_us_2    :      0.25s CPU      0.26s WALL (    3088 calls)
     cegterg      :     13.70s CPU     14.67s WALL (    1351 calls)

     Called by sum_band:
     sum_band:bec :      0.01s CPU      0.02s WALL (    1351 calls)
     addusdens    :      0.08s CPU      0.08s WALL (       7 calls)

     Called by *egterg:
     h_psi        :     10.24s CPU     10.84s WALL (    5355 calls)
     s_psi        :      0.11s CPU      0.12s WALL (    5355 calls)
     g_psi        :      0.03s CPU      0.03s WALL (    3811 calls)
     cdiaghg      :      2.26s CPU      2.45s WALL (    4969 calls)

     Called by h_psi:
     h_psi:pot    :     10.20s CPU     10.79s WALL (    5355 calls)
     h_psi:calbec :      0.43s CPU      0.46s WALL (    5355 calls)
     vloc_psi     :      9.60s CPU     10.16s WALL (    5355 calls)
     add_vuspsi   :      0.11s CPU      0.12s WALL (    5355 calls)

     General routines
     calbec       :      0.55s CPU      0.58s WALL (    6899 calls)
     fft          :      0.08s CPU      0.09s WALL (     117 calls)
     ffts         :      0.01s CPU      0.01s WALL (      14 calls)
     fftw         :     10.27s CPU     10.84s WALL (   79119 calls)
     interpolate  :      0.02s CPU      0.02s WALL (      14 calls)
     davcio       :      0.00s CPU      0.10s WALL (     193 calls)

     Parallel routines
     fft_scatter  :      4.76s CPU      5.02s WALL (   79250 calls)

     PWSCF        :    22.37s CPU        23.87s WALL


   This run was terminated on:  10: 1:43  29Jan2018            

=------------------------------------------------------------------------------=
   JOB DONE.
=------------------------------------------------------------------------------=
