
     Program PWSCF v.6.1 (svn rev. 13369) starts on  7Mar2018 at 15:21: 0 

     This program is part of the open-source Quantum ESPRESSO suite
     for quantum simulation of materials; please cite
         "P. Giannozzi et al., J. Phys.:Condens. Matter 21 395502 (2009);
          URL http://www.quantum-espresso.org", 
     in publications or presentations arising from this work. More details at
     http://www.quantum-espresso.org/quote

     Parallel version (MPI), running on   192 processors
     K-points division:     npool     =      48
     R & G space division:  proc/nbgrp/npool/nimage =       4
     Waiting for input...
     Reading input from standard input

     Current dimensions of program PWSCF are:
     Max number of different atomic species (ntypx) = 10
     Max number of k-points (npk) = 400000
     Max angular momentum in pseudopotentials (lmaxx) =  3

     Subspace diagonalization in iterative solution of the eigenvalue problem:
     a serial algorithm will be used

 
     Parallelization info
     --------------------
     sticks:   dense  smooth     PW     G-vecs:    dense   smooth      PW
     Min         764     384    129                17454     6185    1193
     Max         765     385    130                17455     6186    1194
     Sum        3057    1539    517                69817    24741    4773
 


     bravais-lattice index     =            0
     lattice parameter (alat)  =      17.0000  a.u.
     unit-cell volume          =     724.2840 (a.u.)^3
     number of atoms/cell      =            3
     number of atomic types    =            1
     number of electrons       =        27.00
     number of Kohn-Sham states=           18
     kinetic-energy cutoff     =      40.0000  Ry
     charge density cutoff     =     320.0000  Ry
     convergence threshold     =      1.0E-10
     mixing beta               =       0.7000
     number of iterations used =            8  plain     mixing
     Exchange-correlation      = SLA  PW   PBE  PBE ( 1  4  3  4 0 0)

     celldm(1)=  17.000000  celldm(2)=   0.000000  celldm(3)=   0.000000
     celldm(4)=   0.000000  celldm(5)=   0.000000  celldm(6)=   0.000000

     crystal axes: (cart. coord. in units of alat)
               a(1) = (   0.387810   0.678487   0.678487 )  
               a(2) = (   0.678487   0.387810   0.678487 )  
               a(3) = (   0.678487   0.678487   0.387810 )  

     reciprocal axes: (cart. coord. in units 2 pi/alat)
               b(1) = ( -2.102453  1.337795  1.337795 )  
               b(2) = (  1.337795 -2.102453  1.337795 )  
               b(3) = (  1.337795  1.337795 -2.102453 )  


     PseudoPot. # 1 for Na read from file:
     ./Na_pbe_v1.uspp.F.UPF
     MD5 check sum: 76a99c7e9422403d3e93cbc85ab7bccb
     Pseudo is Ultrasoft, Zval =  9.0
     Generated by new atomic code, or converted to UPF format
     Using radial grid of  819 points,  5 beta functions with: 
                l(1) =   0
                l(2) =   0
                l(3) =   1
                l(4) =   1
                l(5) =   2
     Q(r) pseudized with  8 coefficients,  rinner =    1.250   1.250   1.250
                                                       1.250   1.250

     atomic species   valence    mass     pseudopotential
        Na             9.00    22.99000     Na( 1.00)

     12 Sym. Ops., with inversion, found



   Cartesian axes

     site n.     atom                  positions (alat units)
         1           Na  tau(   1) = (   1.2601225   1.2601225   1.2601225  )
         2           Na  tau(   2) = (   0.4846618   0.4846618   0.4846618  )
         3           Na  tau(   3) = (   0.8723922   0.8723922   0.8723922  )

     number of k points=   770  Marzari-Vanderbilt smearing, width (Ry)=  0.0200

     Number of k-points >= 100: set verbosity='high' to print them.

     Dense  grid:    69817 G-vectors     FFT dimensions: ( 108, 108, 108)

     Smooth grid:    24741 G-vectors     FFT dimensions: (  72,  72,  72)

     Estimated max dynamical RAM per process >      34.68MB

     Estimated total allocated dynamical RAM >    6658.27MB

     Initial potential from superposition of free atoms

     starting charge   26.98113, renormalised to   27.00000
     Starting wfc are   15 randomized atomic wfcs +    3 random wfc

     total cpu time spent up to now is        2.3 secs

     per-process dynamical memory:    47.0 Mb

     Self-consistent Calculation

     iteration #  1     ecut=    40.00 Ry     beta=0.70
     Davidson diagonalization with overlap
     ethr =  1.00E-02,  avg # of iterations =  5.8

     Threshold (ethr) on eigenvalues was too large:
     Diagonalizing with lowered threshold

     Davidson diagonalization with overlap
     ethr =  9.27E-06,  avg # of iterations =  7.6

     total cpu time spent up to now is       14.1 secs

     total energy              =    -285.31921197 Ry
     Harris-Foulkes estimate   =    -285.31986092 Ry
     estimated scf accuracy    <       0.00262662 Ry

     iteration #  2     ecut=    40.00 Ry     beta=0.70
     Davidson diagonalization with overlap
     ethr =  9.73E-06,  avg # of iterations =  2.0

     total cpu time spent up to now is       19.2 secs

     total energy              =    -285.31949001 Ry
     Harris-Foulkes estimate   =    -285.31954587 Ry
     estimated scf accuracy    <       0.00027578 Ry

     iteration #  3     ecut=    40.00 Ry     beta=0.70
     Davidson diagonalization with overlap
     ethr =  1.02E-06,  avg # of iterations =  2.0

     total cpu time spent up to now is       24.5 secs

     total energy              =    -285.31951686 Ry
     Harris-Foulkes estimate   =    -285.31952065 Ry
     estimated scf accuracy    <       0.00001718 Ry

     iteration #  4     ecut=    40.00 Ry     beta=0.70
     Davidson diagonalization with overlap
     ethr =  6.36E-08,  avg # of iterations =  2.0

     total cpu time spent up to now is       29.4 secs

     total energy              =    -285.31951855 Ry
     Harris-Foulkes estimate   =    -285.31951885 Ry
     estimated scf accuracy    <       0.00000111 Ry

     iteration #  5     ecut=    40.00 Ry     beta=0.70
     Davidson diagonalization with overlap
     ethr =  4.09E-09,  avg # of iterations =  2.1

     total cpu time spent up to now is       34.2 secs

     total energy              =    -285.31951887 Ry
     Harris-Foulkes estimate   =    -285.31951890 Ry
     estimated scf accuracy    <       0.00000019 Ry

     iteration #  6     ecut=    40.00 Ry     beta=0.70
     Davidson diagonalization with overlap
     ethr =  7.16E-10,  avg # of iterations =  1.5

     total cpu time spent up to now is       38.8 secs

     total energy              =    -285.31951889 Ry
     Harris-Foulkes estimate   =    -285.31951889 Ry
     estimated scf accuracy    <          4.0E-10 Ry

     iteration #  7     ecut=    40.00 Ry     beta=0.70
     Davidson diagonalization with overlap
     ethr =  1.49E-12,  avg # of iterations =  3.4

     total cpu time spent up to now is       44.4 secs

     End of self-consistent calculation

     Number of k-points >= 100: set verbosity='high' to print the bands.

     the Fermi energy is     1.7558 ev

!    total energy              =    -285.31951889 Ry
     Harris-Foulkes estimate   =    -285.31951889 Ry
     estimated scf accuracy    <          2.9E-11 Ry

     The total energy is the sum of the following terms:

     one-electron contribution =    -262.11221478 Ry
     hartree contribution      =     132.32471176 Ry
     xc contribution           =     -42.81942697 Ry
     ewald contribution        =    -112.71245820 Ry
     smearing contrib. (-TS)   =      -0.00013069 Ry

     convergence has been achieved in   7 iterations


     Computing stress (Cartesian axis) and pressure

          total   stress  (Ry/bohr**3)                   (kbar)     P=    0.06
   0.00000040   0.00000007   0.00000007          0.06      0.01      0.01
   0.00000007   0.00000040   0.00000007          0.01      0.06      0.01
   0.00000007   0.00000007   0.00000040          0.01      0.01      0.06


     Writing output data file na.9r.0.save
 
     init_run     :      2.03s CPU      2.12s WALL (       1 calls)
     electrons    :     41.96s CPU     42.33s WALL (       1 calls)
     stress       :      0.51s CPU      0.51s WALL (       1 calls)

     Called by init_run:
     wfcinit      :      1.23s CPU      1.24s WALL (       1 calls)
     potinit      :      0.30s CPU      0.34s WALL (       1 calls)

     Called by electrons:
     c_bands      :     29.40s CPU     29.51s WALL (       8 calls)
     sum_band     :     10.19s CPU     10.25s WALL (       8 calls)
     v_of_rho     :      1.78s CPU      1.82s WALL (       8 calls)
     newd         :      0.38s CPU      0.40s WALL (       8 calls)
     mix_rho      :      0.18s CPU      0.18s WALL (       8 calls)

     Called by c_bands:
     init_us_2    :      0.11s CPU      0.10s WALL (     306 calls)
     cegterg      :     26.43s CPU     26.51s WALL (     136 calls)

     Called by sum_band:
     sum_band:bec :      0.00s CPU      0.00s WALL (     136 calls)
     addusdens    :      0.42s CPU      0.43s WALL (       8 calls)

     Called by *egterg:
     h_psi        :     26.37s CPU     26.45s WALL (     599 calls)
     s_psi        :      0.16s CPU      0.12s WALL (     599 calls)
     g_psi        :      0.01s CPU      0.02s WALL (     446 calls)
     cdiaghg      :      0.37s CPU      0.39s WALL (     565 calls)

     Called by h_psi:
     h_psi:pot    :     26.34s CPU     26.41s WALL (     599 calls)
     h_psi:calbec :      0.24s CPU      0.21s WALL (     599 calls)
     vloc_psi     :     25.95s CPU     26.06s WALL (     599 calls)
     add_vuspsi   :      0.15s CPU      0.14s WALL (     599 calls)

     General routines
     calbec       :      0.30s CPU      0.31s WALL (     752 calls)
     fft          :      1.04s CPU      1.06s WALL (     133 calls)
     ffts         :      0.03s CPU      0.03s WALL (      16 calls)
     fftw         :     20.37s CPU     21.03s WALL (   15400 calls)
     interpolate  :      0.21s CPU      0.22s WALL (      16 calls)
     davcio       :      0.00s CPU      0.00s WALL (      17 calls)
 
     Parallel routines
     fft_scatter  :      6.16s CPU      6.47s WALL (   15549 calls)
 
     PWSCF        :  0m45.99s CPU     1m 4.46s WALL

 
   This run was terminated on:  15:22: 5   7Mar2018            

=------------------------------------------------------------------------------=
   JOB DONE.
=------------------------------------------------------------------------------=
Application 30213004 resources: utime ~12303s, stime ~67s, Rss ~87724, inblocks ~1443714, outblocks ~2787365
