
     Program PHONON v.6.1 (svn rev. 13369) starts on  7Mar2018 at 15:22:18 

     This program is part of the open-source Quantum ESPRESSO suite
     for quantum simulation of materials; please cite
         "P. Giannozzi et al., J. Phys.:Condens. Matter 21 395502 (2009);
          URL http://www.quantum-espresso.org", 
     in publications or presentations arising from this work. More details at
     http://www.quantum-espresso.org/quote

     Parallel version (MPI), running on   192 processors
     K-points division:     npool     =      48
     R & G space division:  proc/nbgrp/npool/nimage =       4

     Reading data from directory:
     ./tmp/na.9r.0.save

   Info: using nr1, nr2, nr3 values from input

   Info: using nr1, nr2, nr3 values from input

     IMPORTANT: XC functional enforced from input :
     Exchange-correlation      = SLA  PW   PBE  PBE ( 1  4  3  4 0 0)
     Any further DFT definition will be discarded
     Please, verify this is what you really want

 
     Parallelization info
     --------------------
     sticks:   dense  smooth     PW     G-vecs:    dense   smooth      PW
     Min         764     384    129                17454     6185    1193
     Max         765     385    130                17455     6186    1194
     Sum        3057    1539    517                69817    24741    4773
 


     Dynamical matrices for ( 4, 4, 4)  uniform grid of q-points
     (  13q-points):
       N         xq(1)         xq(2)         xq(3) 
       1   0.000000000   0.000000000   0.000000000
       2   0.334448762   0.334448762  -0.525613338
       3  -0.668897523  -0.668897523   1.051226676
       4   0.668897523  -0.191164576  -0.191164576
       5  -0.334448762  -1.194510861   1.385675437
       6   0.000000000  -0.860062100   0.860062100
       7  -1.337795047   0.382329152   0.382329152
       8   0.143284186   0.143284186   0.143284186
       9  -0.860062100  -0.860062100   1.720124199
      10  -0.525613338  -0.525613338   1.194510861
      11  -1.863408385   0.716777914   0.716777914
      12  -1.528959623   1.051226676   0.191164576
      13  -0.286568371  -0.286568371  -0.286568371

     Calculation of q =   -0.3344488  -1.1945109   1.3856754

   Info: using nr1, nr2, nr3 values from input

   Info: using nr1, nr2, nr3 values from input
 
     Parallelization info
     --------------------
     sticks:   dense  smooth     PW     G-vecs:    dense   smooth      PW
     Min         764     384    151                17454     6185    1553
     Max         765     385    152                17455     6186    1555
     Sum        3057    1539    607                69817    24741    6217
 


     bravais-lattice index     =            0
     lattice parameter (alat)  =      17.0000  a.u.
     unit-cell volume          =     724.2840 (a.u.)^3
     number of atoms/cell      =            3
     number of atomic types    =            1
     number of electrons       =        27.00
     number of Kohn-Sham states=           18
     kinetic-energy cutoff     =      40.0000  Ry
     charge density cutoff     =     320.0000  Ry
     Exchange-correlation      = SLA  PW   PBE  PBE ( 1  4  3  4 0 0)

     celldm(1)=  17.000000  celldm(2)=   0.000000  celldm(3)=   0.000000
     celldm(4)=   0.000000  celldm(5)=   0.000000  celldm(6)=   0.000000

     crystal axes: (cart. coord. in units of alat)
               a(1) = (   0.387810   0.678487   0.678487 )  
               a(2) = (   0.678487   0.387810   0.678487 )  
               a(3) = (   0.678487   0.678487   0.387810 )  

     reciprocal axes: (cart. coord. in units 2 pi/alat)
               b(1) = ( -2.102453  1.337795  1.337795 )  
               b(2) = (  1.337795 -2.102453  1.337795 )  
               b(3) = (  1.337795  1.337795 -2.102453 )  


     PseudoPot. # 1 for Na read from file:
     ./Na_pbe_v1.uspp.F.UPF
     MD5 check sum: 76a99c7e9422403d3e93cbc85ab7bccb
     Pseudo is Ultrasoft, Zval =  9.0
     Generated by new atomic code, or converted to UPF format
     Using radial grid of  819 points,  5 beta functions with: 
                l(1) =   0
                l(2) =   0
                l(3) =   1
                l(4) =   1
                l(5) =   2
     Q(r) pseudized with  8 coefficients,  rinner =    1.250   1.250   1.250
                                                       1.250   1.250

     atomic species   valence    mass     pseudopotential
        Na             9.00    22.99000     Na( 1.00)

     12 Sym. Ops., with inversion, found



   Cartesian axes

     site n.     atom                  positions (alat units)
         1           Na  tau(   1) = (   1.2601225   1.2601225   1.2601225  )
         2           Na  tau(   2) = (   0.4846618   0.4846618   0.4846618  )
         3           Na  tau(   3) = (   0.8723922   0.8723922   0.8723922  )

     number of k points= 16000  Marzari-Vanderbilt smearing, width (Ry)=  0.0200

     Number of k-points >= 100: set verbosity='high' to print them.

     Dense  grid:    69817 G-vectors     FFT dimensions: ( 108, 108, 108)

     Smooth grid:    24741 G-vectors     FFT dimensions: (  72,  72,  72)

     Estimated max dynamical RAM per process >      95.05MB

     Estimated total allocated dynamical RAM >   18249.77MB

     The potential is recalculated from file :
     ./tmp/_ph0/na.9r.0.save/charge-density.dat

     Starting wfc are   15 atomic +    3 random wfc

     Band Structure Calculation
     Davidson diagonalization with overlap

     ethr =  3.70E-11,  avg # of iterations = 24.7

     total cpu time spent up to now is      387.5 secs

     End of band structure calculation

     Number of k-points >= 100: set verbosity='high' to print the bands.

     the Fermi energy is     1.7558 ev

                                                                                

     bravais-lattice index     =            0
     lattice parameter (alat)  =      17.0000  a.u.
     unit-cell volume          =     724.2840 (a.u.)^3
     number of atoms/cell      =            3
     number of atomic types    =            1
     kinetic-energy cut-off    =      40.0000  Ry
     charge density cut-off    =     320.0000  Ry
     convergence threshold     =      1.0E-16
     beta                      =       0.7000
     number of iterations used =            4
     Exchange-correlation      = SLA  PW   PBE  PBE ( 1  4  3  4 0 0)


     celldm(1)=   17.00000  celldm(2)=    0.00000  celldm(3)=    0.00000
     celldm(4)=    0.00000  celldm(5)=    0.00000  celldm(6)=    0.00000

     crystal axes: (cart. coord. in units of alat)
               a(1) = (  0.3878  0.6785  0.6785 )  
               a(2) = (  0.6785  0.3878  0.6785 )  
               a(3) = (  0.6785  0.6785  0.3878 )  

     reciprocal axes: (cart. coord. in units 2 pi/alat)
               b(1) = ( -2.1025  1.3378  1.3378 )  
               b(2) = (  1.3378 -2.1025  1.3378 )  
               b(3) = (  1.3378  1.3378 -2.1025 )  


     Atoms inside the unit cell: 

     Cartesian axes

     site n.  atom      mass           positions (alat units)
        1     Na  22.9900   tau(    1) = (    1.26012    1.26012    1.26012  )
        2     Na  22.9900   tau(    2) = (    0.48466    0.48466    0.48466  )
        3     Na  22.9900   tau(    3) = (    0.87239    0.87239    0.87239  )

     Computing dynamical matrix for 
                    q = (  -0.3344488  -1.1945109   1.3856754 )
 
     No symmetry!

     G cutoff = 2342.5458  (  17455 G-vectors)     FFT grid: (108,108,108)
     G cutoff = 1171.2729  (   6186 G-vectors)  smooth grid: ( 72, 72, 72)

     number of k points= 16000  Marzari-Vanderbilt smearing, width (Ry)=  0.0200

     PseudoPot. # 1 for Na read from file:
     ./Na_pbe_v1.uspp.F.UPF
     MD5 check sum: 76a99c7e9422403d3e93cbc85ab7bccb
     Pseudo is Ultrasoft, Zval =  9.0
     Generated by new atomic code, or converted to UPF format
     Using radial grid of  819 points,  5 beta functions with: 
                l(1) =   0
                l(2) =   0
                l(3) =   1
                l(4) =   1
                l(5) =   2
     Q(r) pseudized with  8 coefficients,  rinner =    1.250   1.250   1.250
                                                       1.250   1.250

     Mode symmetry, C_1 (1)     point group:


     Atomic displacements:
     There are   9 irreducible representations

     Representation     1      1 modes -A  To be done

     Representation     2      1 modes -A  To be done

     Representation     3      1 modes -A  To be done

     Representation     4      1 modes -A  To be done

     Representation     5      1 modes -A  To be done

     Representation     6      1 modes -A  To be done

     Representation     7      1 modes -A  To be done

     Representation     8      1 modes -A  To be done

     Representation     9      1 modes -A  To be done



     Alpha used in Ewald sum =   2.8000
     PHONON       :  7m47.35s CPU     8m 4.95s WALL



     Representation #  1 mode #   1

     Self-consistent Calculation

      iter #   1 total cpu time :   577.2 secs   av.it.:   5.7
      thresh= 1.000E-02 alpha_mix =  0.700 |ddv_scf|^2 =  8.989E-07

      iter #   2 total cpu time :   714.0 secs   av.it.:   9.6
      thresh= 9.481E-05 alpha_mix =  0.700 |ddv_scf|^2 =  8.608E-07

     Program stopped by user request
 
     PHONON       : 11m36.02s CPU    11m55.46s WALL

     INITIALIZATION: 
     phq_setup    :      0.49s CPU      0.63s WALL (       1 calls)
     phq_init     :     71.84s CPU     72.17s WALL (       1 calls)
 
     phq_init     :     71.84s CPU     72.17s WALL (       1 calls)
     init_vloc    :      0.05s CPU      0.05s WALL (       2 calls)
     init_us_1    :      0.28s CPU      0.29s WALL (       2 calls)
     newd         :      0.08s CPU      0.11s WALL (       2 calls)
     dvanqq       :      0.76s CPU      0.77s WALL (       1 calls)
     drho         :     70.03s CPU     70.29s WALL (       1 calls)
 
     DYNAMICAL MATRIX:
     dynmat0      :      0.64s CPU      0.65s WALL (       1 calls)
     phqscf       :    228.66s CPU    230.51s WALL (       1 calls)
 
     phqscf       :    228.66s CPU    230.51s WALL (       2 calls)
     solve_linter :    228.66s CPU    230.51s WALL (       1 calls)
 
     dynmat0      :      0.64s CPU      0.65s WALL (       1 calls)
     dynmat_us    :      0.63s CPU      0.63s WALL (       1 calls)
     d2ionq       :      0.01s CPU      0.01s WALL (       1 calls)
 
     dynmat_us    :      0.63s CPU      0.63s WALL (       1 calls)
     addusdynmat  :      0.00s CPU      0.00s WALL (       1 calls)
 
     phqscf       :    228.66s CPU    230.51s WALL (       3 calls)
     solve_linter :    228.66s CPU    230.51s WALL (       2 calls)
 
     solve_linter :    228.66s CPU    230.51s WALL (       3 calls)
     dvqpsi_us    :      9.19s CPU      9.30s WALL (     167 calls)
     ortho        :      0.39s CPU      0.44s WALL (     334 calls)
     cgsolve      :    171.84s CPU    172.54s WALL (     334 calls)
     incdrhoscf   :     19.03s CPU     19.11s WALL (     334 calls)
     addusddens   :      0.80s CPU      0.83s WALL (      11 calls)
     vpsifft      :      6.84s CPU      6.85s WALL (     167 calls)
     dv_of_drho   :      0.33s CPU      0.43s WALL (       2 calls)
     mix_pot      :      0.06s CPU      0.06s WALL (       2 calls)
     newdq        :      0.12s CPU      0.13s WALL (       2 calls)
     adddvscf     :      0.09s CPU      0.09s WALL (     167 calls)
 
     dvqpsi_us    :      9.19s CPU      9.30s WALL (     167 calls)
     dvqpsi_us_on :      0.38s CPU      0.37s WALL (     167 calls)
 
     cgsolve      :    171.84s CPU    172.54s WALL (     334 calls)
     ch_psi       :    170.77s CPU    171.47s WALL (    5372 calls)
 
     ch_psi       :    170.77s CPU    171.47s WALL (    5372 calls)
     h_psi        :    452.54s CPU    454.18s WALL (   13849 calls)
     last         :      3.05s CPU      3.19s WALL (    5372 calls)
 
     h_psi        :    452.54s CPU    454.18s WALL (   13849 calls)
     add_vuspsi   :      2.70s CPU      2.66s WALL (   13849 calls)
 
     incdrhoscf   :     19.03s CPU     19.11s WALL (     334 calls)
     addusdbec    :      1.11s CPU      1.13s WALL (    1837 calls)
 
 
      General routines
     calbec       :      6.91s CPU      7.25s WALL (   23730 calls)
     fft          :      0.60s CPU      0.62s WALL (      77 calls)
     ffts         :      0.36s CPU      0.33s WALL (     191 calls)
     fftw         :    332.61s CPU    332.48s WALL (  264558 calls)
     davcio       :      0.12s CPU      0.46s WALL (    1345 calls)
     write_rec    :      0.01s CPU      0.38s WALL (       2 calls)
 
 
     PHONON       : 11m36.02s CPU    11m55.46s WALL

 
   This run was terminated on:  15:34:13   7Mar2018            

=------------------------------------------------------------------------------=
   JOB DONE.
=------------------------------------------------------------------------------=
Application 30213021 exit codes: 1
Application 30213021 resources: utime ~137114s, stime ~580s, Rss ~395508, inblocks ~32232535, outblocks ~114197054

     Program PHONON v.6.1 (svn rev. 13369) starts on  7Mar2018 at 18:36:25 

     This program is part of the open-source Quantum ESPRESSO suite
     for quantum simulation of materials; please cite
         "P. Giannozzi et al., J. Phys.:Condens. Matter 21 395502 (2009);
          URL http://www.quantum-espresso.org", 
     in publications or presentations arising from this work. More details at
     http://www.quantum-espresso.org/quote

     Parallel version (MPI), running on   192 processors
     K-points division:     npool     =      48
     R & G space division:  proc/nbgrp/npool/nimage =       4

     Reading data from directory:
     ./tmp/na.9r.0.save

   Info: using nr1, nr2, nr3 values from input

   Info: using nr1, nr2, nr3 values from input

     IMPORTANT: XC functional enforced from input :
     Exchange-correlation      = SLA  PW   PBE  PBE ( 1  4  3  4 0 0)
     Any further DFT definition will be discarded
     Please, verify this is what you really want

 
     Parallelization info
     --------------------
     sticks:   dense  smooth     PW     G-vecs:    dense   smooth      PW
     Min         764     384    129                17454     6185    1193
     Max         765     385    130                17455     6186    1194
     Sum        3057    1539    517                69817    24741    4773
 
        1 /  13 q-points for this run, from  5 to  5:
       N       xq(1)         xq(2)         xq(3) 
       1   0.000000000   0.000000000   0.000000000
       2   0.334448762   0.334448762  -0.525613338
       3  -0.668897523  -0.668897523   1.051226676
       4   0.668897523  -0.191164576  -0.191164576
       5  -0.334448762  -1.194510861   1.385675437
       6   0.000000000  -0.860062100   0.860062100
       7  -1.337795047   0.382329152   0.382329152
       8   0.143284186   0.143284186   0.143284186
       9  -0.860062100  -0.860062100   1.720124199
      10  -0.525613338  -0.525613338   1.194510861
      11  -1.863408385   0.716777914   0.716777914
      12  -1.528959623   1.051226676   0.191164576
      13  -0.286568371  -0.286568371  -0.286568371
 

     Calculation of q =   -0.3344488  -1.1945109   1.3856754

   Info: using nr1, nr2, nr3 values from input

   Info: using nr1, nr2, nr3 values from input
 
     Parallelization info
     --------------------
     sticks:   dense  smooth     PW     G-vecs:    dense   smooth      PW
     Min         764     384    151                17454     6185    1553
     Max         765     385    152                17455     6186    1555
     Sum        3057    1539    607                69817    24741    6217
 


     bravais-lattice index     =            0
     lattice parameter (alat)  =      17.0000  a.u.
     unit-cell volume          =     724.2840 (a.u.)^3
     number of atoms/cell      =            3
     number of atomic types    =            1
     number of electrons       =        27.00
     number of Kohn-Sham states=           18
     kinetic-energy cutoff     =      40.0000  Ry
     charge density cutoff     =     320.0000  Ry
     Exchange-correlation      = SLA  PW   PBE  PBE ( 1  4  3  4 0 0)

     celldm(1)=  17.000000  celldm(2)=   0.000000  celldm(3)=   0.000000
     celldm(4)=   0.000000  celldm(5)=   0.000000  celldm(6)=   0.000000

     crystal axes: (cart. coord. in units of alat)
               a(1) = (   0.387810   0.678487   0.678487 )  
               a(2) = (   0.678487   0.387810   0.678487 )  
               a(3) = (   0.678487   0.678487   0.387810 )  

     reciprocal axes: (cart. coord. in units 2 pi/alat)
               b(1) = ( -2.102453  1.337795  1.337795 )  
               b(2) = (  1.337795 -2.102453  1.337795 )  
               b(3) = (  1.337795  1.337795 -2.102453 )  


     PseudoPot. # 1 for Na read from file:
     ./Na_pbe_v1.uspp.F.UPF
     MD5 check sum: 76a99c7e9422403d3e93cbc85ab7bccb
     Pseudo is Ultrasoft, Zval =  9.0
     Generated by new atomic code, or converted to UPF format
     Using radial grid of  819 points,  5 beta functions with: 
                l(1) =   0
                l(2) =   0
                l(3) =   1
                l(4) =   1
                l(5) =   2
     Q(r) pseudized with  8 coefficients,  rinner =    1.250   1.250   1.250
                                                       1.250   1.250

     atomic species   valence    mass     pseudopotential
        Na             9.00    22.99000     Na( 1.00)

     12 Sym. Ops., with inversion, found



   Cartesian axes

     site n.     atom                  positions (alat units)
         1           Na  tau(   1) = (   1.2601225   1.2601225   1.2601225  )
         2           Na  tau(   2) = (   0.4846618   0.4846618   0.4846618  )
         3           Na  tau(   3) = (   0.8723922   0.8723922   0.8723922  )

     number of k points= 16000  Marzari-Vanderbilt smearing, width (Ry)=  0.0200

     Number of k-points >= 100: set verbosity='high' to print them.

     Dense  grid:    69817 G-vectors     FFT dimensions: ( 108, 108, 108)

     Smooth grid:    24741 G-vectors     FFT dimensions: (  72,  72,  72)

     Estimated max dynamical RAM per process >      95.05MB

     Estimated total allocated dynamical RAM >   18249.77MB

     The potential is recalculated from file :
     ./tmp/_ph0/na.9r.0.save/charge-density.dat

     Starting wfc are   15 atomic +    3 random wfc

     Band Structure Calculation
     Davidson diagonalization with overlap

     ethr =  3.70E-11,  avg # of iterations = 24.7

     total cpu time spent up to now is      388.7 secs

     End of band structure calculation

     Number of k-points >= 100: set verbosity='high' to print the bands.

     the Fermi energy is     1.7558 ev

     Restart in Phonon calculation

                                                                                

     bravais-lattice index     =            0
     lattice parameter (alat)  =      17.0000  a.u.
     unit-cell volume          =     724.2840 (a.u.)^3
     number of atoms/cell      =            3
     number of atomic types    =            1
     kinetic-energy cut-off    =      40.0000  Ry
     charge density cut-off    =     320.0000  Ry
     convergence threshold     =      1.0E-16
     beta                      =       0.7000
     number of iterations used =            4
     Exchange-correlation      = SLA  PW   PBE  PBE ( 1  4  3  4 0 0)


     celldm(1)=   17.00000  celldm(2)=    0.00000  celldm(3)=    0.00000
     celldm(4)=    0.00000  celldm(5)=    0.00000  celldm(6)=    0.00000

     crystal axes: (cart. coord. in units of alat)
               a(1) = (  0.3878  0.6785  0.6785 )  
               a(2) = (  0.6785  0.3878  0.6785 )  
               a(3) = (  0.6785  0.6785  0.3878 )  

     reciprocal axes: (cart. coord. in units 2 pi/alat)
               b(1) = ( -2.1025  1.3378  1.3378 )  
               b(2) = (  1.3378 -2.1025  1.3378 )  
               b(3) = (  1.3378  1.3378 -2.1025 )  


     Atoms inside the unit cell: 

     Cartesian axes

     site n.  atom      mass           positions (alat units)
        1     Na  22.9900   tau(    1) = (    1.26012    1.26012    1.26012  )
        2     Na  22.9900   tau(    2) = (    0.48466    0.48466    0.48466  )
        3     Na  22.9900   tau(    3) = (    0.87239    0.87239    0.87239  )

     Computing dynamical matrix for 
                    q = (  -0.3344488  -1.1945109   1.3856754 )
 
     No symmetry!

     G cutoff = 2342.5458  (  17455 G-vectors)     FFT grid: (108,108,108)
     G cutoff = 1171.2729  (   6186 G-vectors)  smooth grid: ( 72, 72, 72)

     number of k points= 16000  Marzari-Vanderbilt smearing, width (Ry)=  0.0200

     PseudoPot. # 1 for Na read from file:
     ./Na_pbe_v1.uspp.F.UPF
     MD5 check sum: 76a99c7e9422403d3e93cbc85ab7bccb
     Pseudo is Ultrasoft, Zval =  9.0
     Generated by new atomic code, or converted to UPF format
     Using radial grid of  819 points,  5 beta functions with: 
                l(1) =   0
                l(2) =   0
                l(3) =   1
                l(4) =   1
                l(5) =   2
     Q(r) pseudized with  8 coefficients,  rinner =    1.250   1.250   1.250
                                                       1.250   1.250

     Mode symmetry, C_1 (1)     point group:


     Atomic displacements:
     There are   9 irreducible representations

     Representation     1      1 modes -A  To be done

     Representation     2      1 modes -A  To be done

     Representation     3      1 modes -A  To be done

     Representation     4      1 modes -A  To be done

     Representation     5      1 modes -A  To be done

     Representation     6      1 modes -A  To be done

     Representation     7      1 modes -A  To be done

     Representation     8      1 modes -A  To be done

     Representation     9      1 modes -A  To be done


     PHONON       : 10m41.46s CPU    11m33.08s WALL



     Representation #  1 mode #   1

     Self-consistent Calculation

      iter #   1 total cpu time :   784.8 secs   av.it.:   5.7
      thresh= 1.000E-02 alpha_mix =  0.700 |ddv_scf|^2 =  8.989E-07

      iter #   2 total cpu time :   920.4 secs   av.it.:   9.6
      thresh= 9.481E-05 alpha_mix =  0.700 |ddv_scf|^2 =  8.608E-07

      iter #   3 total cpu time :  1045.7 secs   av.it.:   8.5
      thresh= 9.278E-05 alpha_mix =  0.700 |ddv_scf|^2 =  2.763E-08

      iter #   4 total cpu time :  1177.4 secs   av.it.:   9.2
      thresh= 1.662E-05 alpha_mix =  0.700 |ddv_scf|^2 =  2.378E-09

      iter #   5 total cpu time :  1309.5 secs   av.it.:   9.2
      thresh= 4.876E-06 alpha_mix =  0.700 |ddv_scf|^2 =  1.731E-10

      iter #   6 total cpu time :  1443.0 secs   av.it.:   9.5
      thresh= 1.316E-06 alpha_mix =  0.700 |ddv_scf|^2 =  4.698E-12

      iter #   7 total cpu time :  1580.9 secs   av.it.:   9.5
      thresh= 2.167E-07 alpha_mix =  0.700 |ddv_scf|^2 =  2.210E-13

      iter #   8 total cpu time :  1715.2 secs   av.it.:   9.3
      thresh= 4.701E-08 alpha_mix =  0.700 |ddv_scf|^2 =  2.124E-14

      iter #   9 total cpu time :  1848.4 secs   av.it.:   9.4
      thresh= 1.457E-08 alpha_mix =  0.700 |ddv_scf|^2 =  5.715E-15

      iter #  10 total cpu time :  1980.1 secs   av.it.:   9.2
      thresh= 7.560E-09 alpha_mix =  0.700 |ddv_scf|^2 =  3.463E-16

      iter #  11 total cpu time :  2117.2 secs   av.it.:   9.5
      thresh= 1.861E-09 alpha_mix =  0.700 |ddv_scf|^2 =  6.971E-17

     End of self-consistent calculation

     Convergence has been achieved 


     Representation #  2 mode #   2

     Self-consistent Calculation

      iter #   1 total cpu time :  2213.9 secs   av.it.:   5.6
      thresh= 1.000E-02 alpha_mix =  0.700 |ddv_scf|^2 =  7.339E-07

      iter #   2 total cpu time :  2350.9 secs   av.it.:   9.6
      thresh= 8.567E-05 alpha_mix =  0.700 |ddv_scf|^2 =  5.773E-07

      iter #   3 total cpu time :  2476.5 secs   av.it.:   8.6
      thresh= 7.598E-05 alpha_mix =  0.700 |ddv_scf|^2 =  3.264E-08

      iter #   4 total cpu time :  2606.8 secs   av.it.:   9.2
      thresh= 1.807E-05 alpha_mix =  0.700 |ddv_scf|^2 =  1.893E-09

      iter #   5 total cpu time :  2738.7 secs   av.it.:   9.2
      thresh= 4.350E-06 alpha_mix =  0.700 |ddv_scf|^2 =  1.843E-10

      iter #   6 total cpu time :  2871.0 secs   av.it.:   9.4
      thresh= 1.357E-06 alpha_mix =  0.700 |ddv_scf|^2 =  3.544E-12

      iter #   7 total cpu time :  3006.3 secs   av.it.:   9.7
      thresh= 1.883E-07 alpha_mix =  0.700 |ddv_scf|^2 =  2.047E-13

      iter #   8 total cpu time :  3141.7 secs   av.it.:   9.5
      thresh= 4.524E-08 alpha_mix =  0.700 |ddv_scf|^2 =  1.529E-14

      iter #   9 total cpu time :  3279.4 secs   av.it.:   9.7
      thresh= 1.236E-08 alpha_mix =  0.700 |ddv_scf|^2 =  5.581E-15

      iter #  10 total cpu time :  3411.3 secs   av.it.:   9.1
      thresh= 7.470E-09 alpha_mix =  0.700 |ddv_scf|^2 =  4.378E-16

      iter #  11 total cpu time :  3546.5 secs   av.it.:   9.5
      thresh= 2.092E-09 alpha_mix =  0.700 |ddv_scf|^2 =  5.809E-17

     End of self-consistent calculation

     Convergence has been achieved 


     Representation #  3 mode #   3

     Self-consistent Calculation

      iter #   1 total cpu time :  3640.9 secs   av.it.:   5.8
      thresh= 1.000E-02 alpha_mix =  0.700 |ddv_scf|^2 =  1.523E-06

      iter #   2 total cpu time :  3774.4 secs   av.it.:   9.4
      thresh= 1.234E-04 alpha_mix =  0.700 |ddv_scf|^2 =  1.870E-06

      iter #   3 total cpu time :  3897.5 secs   av.it.:   8.3
      thresh= 1.367E-04 alpha_mix =  0.700 |ddv_scf|^2 =  2.607E-08

      iter #   4 total cpu time :  4030.9 secs   av.it.:   9.3
      thresh= 1.615E-05 alpha_mix =  0.700 |ddv_scf|^2 =  3.755E-09

      iter #   5 total cpu time :  4161.3 secs   av.it.:   9.2
      thresh= 6.128E-06 alpha_mix =  0.700 |ddv_scf|^2 =  1.241E-10

      iter #   6 total cpu time :  4297.6 secs   av.it.:   9.8
      thresh= 1.114E-06 alpha_mix =  0.700 |ddv_scf|^2 =  4.480E-12

      iter #   7 total cpu time :  4434.2 secs   av.it.:   9.8
      thresh= 2.117E-07 alpha_mix =  0.700 |ddv_scf|^2 =  1.577E-13

      iter #   8 total cpu time :  4570.3 secs   av.it.:   9.6
      thresh= 3.971E-08 alpha_mix =  0.700 |ddv_scf|^2 =  2.546E-14

      iter #   9 total cpu time :  4704.2 secs   av.it.:   9.4
      thresh= 1.596E-08 alpha_mix =  0.700 |ddv_scf|^2 =  1.188E-14

      iter #  10 total cpu time :  4833.1 secs   av.it.:   8.9
      thresh= 1.090E-08 alpha_mix =  0.700 |ddv_scf|^2 =  2.923E-16

      iter #  11 total cpu time :  4973.1 secs   av.it.:   9.7
      thresh= 1.710E-09 alpha_mix =  0.700 |ddv_scf|^2 =  4.602E-17

     End of self-consistent calculation

     Convergence has been achieved 


     Representation #  4 mode #   4

     Self-consistent Calculation

      iter #   1 total cpu time :  5065.8 secs   av.it.:   5.7
      thresh= 1.000E-02 alpha_mix =  0.700 |ddv_scf|^2 =  1.290E-06

      iter #   2 total cpu time :  5205.2 secs   av.it.:   9.4
      thresh= 1.136E-04 alpha_mix =  0.700 |ddv_scf|^2 =  1.571E-06

      iter #   3 total cpu time :  5329.8 secs   av.it.:   8.3
      thresh= 1.253E-04 alpha_mix =  0.700 |ddv_scf|^2 =  2.284E-08

      iter #   4 total cpu time :  5462.2 secs   av.it.:   9.3
      thresh= 1.511E-05 alpha_mix =  0.700 |ddv_scf|^2 =  2.230E-09

      iter #   5 total cpu time :  5594.6 secs   av.it.:   9.3
      thresh= 4.722E-06 alpha_mix =  0.700 |ddv_scf|^2 =  1.855E-10

      iter #   6 total cpu time :  5727.2 secs   av.it.:   9.4
      thresh= 1.362E-06 alpha_mix =  0.700 |ddv_scf|^2 =  5.814E-12

      iter #   7 total cpu time :  5861.0 secs   av.it.:   9.5
      thresh= 2.411E-07 alpha_mix =  0.700 |ddv_scf|^2 =  1.756E-13

      iter #   8 total cpu time :  5997.2 secs   av.it.:   9.5
      thresh= 4.191E-08 alpha_mix =  0.700 |ddv_scf|^2 =  2.742E-14

      iter #   9 total cpu time :  6129.7 secs   av.it.:   9.4
      thresh= 1.656E-08 alpha_mix =  0.700 |ddv_scf|^2 =  1.234E-14

      iter #  10 total cpu time :  6260.9 secs   av.it.:   8.9
      thresh= 1.111E-08 alpha_mix =  0.700 |ddv_scf|^2 =  2.946E-16

      iter #  11 total cpu time :  6399.3 secs   av.it.:   9.8
      thresh= 1.716E-09 alpha_mix =  0.700 |ddv_scf|^2 =  3.733E-17

     End of self-consistent calculation

     Convergence has been achieved 


     Representation #  5 mode #   5

     Self-consistent Calculation

      iter #   1 total cpu time :  6493.7 secs   av.it.:   5.6
      thresh= 1.000E-02 alpha_mix =  0.700 |ddv_scf|^2 =  5.506E-07

      iter #   2 total cpu time :  6629.8 secs   av.it.:   9.7
      thresh= 7.420E-05 alpha_mix =  0.700 |ddv_scf|^2 =  2.675E-07

      iter #   3 total cpu time :  6759.9 secs   av.it.:   9.0
      thresh= 5.172E-05 alpha_mix =  0.700 |ddv_scf|^2 =  3.334E-08

      iter #   4 total cpu time :  6890.3 secs   av.it.:   9.1
      thresh= 1.826E-05 alpha_mix =  0.700 |ddv_scf|^2 =  2.492E-09

      iter #   5 total cpu time :  7022.5 secs   av.it.:   9.2
      thresh= 4.992E-06 alpha_mix =  0.700 |ddv_scf|^2 =  1.688E-10

      iter #   6 total cpu time :  7155.1 secs   av.it.:   9.3
      thresh= 1.299E-06 alpha_mix =  0.700 |ddv_scf|^2 =  7.682E-12

      iter #   7 total cpu time :  7290.1 secs   av.it.:   9.6
      thresh= 2.772E-07 alpha_mix =  0.700 |ddv_scf|^2 =  1.820E-13

      iter #   8 total cpu time :  7424.7 secs   av.it.:   9.6
      thresh= 4.266E-08 alpha_mix =  0.700 |ddv_scf|^2 =  1.181E-14

      iter #   9 total cpu time :  7566.2 secs   av.it.:  10.1
      thresh= 1.087E-08 alpha_mix =  0.700 |ddv_scf|^2 =  4.264E-15

      iter #  10 total cpu time :  7697.9 secs   av.it.:   9.2
      thresh= 6.530E-09 alpha_mix =  0.700 |ddv_scf|^2 =  7.364E-16

      iter #  11 total cpu time :  7829.4 secs   av.it.:   9.2
      thresh= 2.714E-09 alpha_mix =  0.700 |ddv_scf|^2 =  7.357E-17

     End of self-consistent calculation

     Convergence has been achieved 


     Representation #  6 mode #   6

     Self-consistent Calculation

      iter #   1 total cpu time :  7923.6 secs   av.it.:   5.7
      thresh= 1.000E-02 alpha_mix =  0.700 |ddv_scf|^2 =  6.520E-07

      iter #   2 total cpu time :  8060.7 secs   av.it.:   9.7
      thresh= 8.075E-05 alpha_mix =  0.700 |ddv_scf|^2 =  4.755E-07

      iter #   3 total cpu time :  8187.5 secs   av.it.:   8.7
      thresh= 6.896E-05 alpha_mix =  0.700 |ddv_scf|^2 =  3.390E-08

      iter #   4 total cpu time :  8317.8 secs   av.it.:   9.1
      thresh= 1.841E-05 alpha_mix =  0.700 |ddv_scf|^2 =  1.493E-09

      iter #   5 total cpu time :  8452.5 secs   av.it.:   9.3
      thresh= 3.864E-06 alpha_mix =  0.700 |ddv_scf|^2 =  1.739E-10

      iter #   6 total cpu time :  8583.8 secs   av.it.:   9.2
      thresh= 1.319E-06 alpha_mix =  0.700 |ddv_scf|^2 =  7.761E-12

      iter #   7 total cpu time :  8718.9 secs   av.it.:   9.6
      thresh= 2.786E-07 alpha_mix =  0.700 |ddv_scf|^2 =  1.890E-13

      iter #   8 total cpu time :  8854.7 secs   av.it.:   9.6
      thresh= 4.347E-08 alpha_mix =  0.700 |ddv_scf|^2 =  1.452E-14

      iter #   9 total cpu time :  8997.3 secs   av.it.:  10.1
      thresh= 1.205E-08 alpha_mix =  0.700 |ddv_scf|^2 =  7.599E-15

      iter #  10 total cpu time :  9129.4 secs   av.it.:   9.1
      thresh= 8.717E-09 alpha_mix =  0.700 |ddv_scf|^2 =  6.632E-16

      iter #  11 total cpu time :  9266.5 secs   av.it.:   9.6
      thresh= 2.575E-09 alpha_mix =  0.700 |ddv_scf|^2 =  5.199E-17

     End of self-consistent calculation

     Convergence has been achieved 


     Representation #  7 mode #   7

     Self-consistent Calculation

      iter #   1 total cpu time :  9368.4 secs   av.it.:   5.6
      thresh= 1.000E-02 alpha_mix =  0.700 |ddv_scf|^2 =  5.962E-07

      iter #   2 total cpu time :  9504.8 secs   av.it.:   9.6
      thresh= 7.721E-05 alpha_mix =  0.700 |ddv_scf|^2 =  2.506E-07

      iter #   3 total cpu time :  9638.1 secs   av.it.:   9.1
      thresh= 5.006E-05 alpha_mix =  0.700 |ddv_scf|^2 =  1.485E-08

      iter #   4 total cpu time :  9770.9 secs   av.it.:   9.3
      thresh= 1.218E-05 alpha_mix =  0.700 |ddv_scf|^2 =  3.709E-09

      iter #   5 total cpu time :  9901.3 secs   av.it.:   9.0
      thresh= 6.090E-06 alpha_mix =  0.700 |ddv_scf|^2 =  1.644E-10

      iter #   6 total cpu time : 10035.2 secs   av.it.:   9.4
      thresh= 1.282E-06 alpha_mix =  0.700 |ddv_scf|^2 =  5.369E-12

      iter #   7 total cpu time : 10170.5 secs   av.it.:   9.6
      thresh= 2.317E-07 alpha_mix =  0.700 |ddv_scf|^2 =  1.844E-13

      iter #   8 total cpu time : 10306.1 secs   av.it.:   9.6
      thresh= 4.294E-08 alpha_mix =  0.700 |ddv_scf|^2 =  1.141E-14

      iter #   9 total cpu time : 10445.2 secs   av.it.:   9.9
      thresh= 1.068E-08 alpha_mix =  0.700 |ddv_scf|^2 =  2.728E-15

      iter #  10 total cpu time : 10577.9 secs   av.it.:   9.3
      thresh= 5.223E-09 alpha_mix =  0.700 |ddv_scf|^2 =  5.299E-16

      iter #  11 total cpu time : 10710.2 secs   av.it.:   9.2
      thresh= 2.302E-09 alpha_mix =  0.700 |ddv_scf|^2 =  1.320E-16

      iter #  12 total cpu time : 10840.5 secs   av.it.:   9.1
      thresh= 1.149E-09 alpha_mix =  0.700 |ddv_scf|^2 =  3.814E-18

     Program stopped by user request
 
     PHONON       :     2h58m CPU        3h 0m WALL

     INITIALIZATION: 
     phq_setup    :      0.51s CPU      0.55s WALL (       1 calls)
     phq_init     :      0.55s CPU      0.62s WALL (       1 calls)
 
     phq_init     :      0.55s CPU      0.62s WALL (       1 calls)
     init_vloc    :      0.06s CPU      0.06s WALL (       2 calls)
     init_us_1    :      0.28s CPU      0.28s WALL (       2 calls)
     newd         :      0.08s CPU      0.11s WALL (       2 calls)
 
     DYNAMICAL MATRIX:
     phqscf       :  10070.74s CPU  10156.70s WALL (       1 calls)
 
     phqscf       :  10070.74s CPU  10156.70s WALL (       2 calls)
     solve_linter :  10068.59s CPU  10151.99s WALL (       7 calls)
     drhodv       :      2.12s CPU      2.13s WALL (       6 calls)
 
 
 
     phqscf       :  10070.74s CPU  10156.70s WALL (       3 calls)
     solve_linter :  10068.59s CPU  10151.99s WALL (       8 calls)
 
     solve_linter :  10068.59s CPU  10151.99s WALL (       9 calls)
     dvqpsi_us    :     66.08s CPU     66.41s WALL (    1169 calls)
     ortho        :     17.71s CPU     17.60s WALL (   13026 calls)
     cgsolve      :   8046.73s CPU   8080.83s WALL (   13026 calls)
     incdrhoscf   :    757.30s CPU    760.23s WALL (   13026 calls)
     addusddens   :      5.18s CPU      5.31s WALL (      78 calls)
     vpsifft      :    490.71s CPU    492.67s WALL (   11857 calls)
     dv_of_drho   :     13.85s CPU     16.91s WALL (      78 calls)
     mix_pot      :      4.20s CPU      4.36s WALL (      78 calls)
     newdq        :      4.93s CPU      5.22s WALL (      78 calls)
     adddvscf     :      6.41s CPU      6.66s WALL (   11857 calls)
     drhodvus     :      1.55s CPU      2.69s WALL (       6 calls)
 
     dvqpsi_us    :     66.08s CPU     66.41s WALL (    1169 calls)
     dvqpsi_us_on :      2.76s CPU      2.79s WALL (    1169 calls)
 
     cgsolve      :   8046.73s CPU   8080.83s WALL (   13026 calls)
     ch_psi       :   7999.02s CPU   8032.99s WALL (  233628 calls)
 
     ch_psi       :   7999.02s CPU   8032.99s WALL (  233628 calls)
     h_psi        :   8099.73s CPU   8132.66s WALL (  242096 calls)
     last         :    147.81s CPU    149.27s WALL (  233628 calls)
 
     h_psi        :   8099.73s CPU   8132.66s WALL (  242096 calls)
     add_vuspsi   :     46.46s CPU     46.71s WALL (  242096 calls)
 
     incdrhoscf   :    757.30s CPU    760.23s WALL (   13026 calls)
     addusdbec    :      7.34s CPU      7.33s WALL (   13026 calls)
 
     drhodvus     :      1.55s CPU      2.69s WALL (       6 calls)
 
      General routines
     calbec       :    134.64s CPU    135.17s WALL (  506452 calls)
     fft          :      9.15s CPU      9.52s WALL (    1198 calls)
     ffts         :      2.04s CPU      2.09s WALL (    1382 calls)
     fftw         :   5891.28s CPU   5916.76s WALL ( 4443204 calls)
     davcio       :      0.09s CPU     18.68s WALL (    1354 calls)
     write_rec    :      0.22s CPU     33.00s WALL (      84 calls)
 
 
     PHONON       :     2h58m CPU        3h 0m WALL

 
   This run was terminated on:  21:37:14   7Mar2018            

=------------------------------------------------------------------------------=
   JOB DONE.
=------------------------------------------------------------------------------=

     Program PHONON v.6.1 (svn rev. 13369) starts on  7Mar2018 at 22: 5:42 

     This program is part of the open-source Quantum ESPRESSO suite
     for quantum simulation of materials; please cite
         "P. Giannozzi et al., J. Phys.:Condens. Matter 21 395502 (2009);
          URL http://www.quantum-espresso.org", 
     in publications or presentations arising from this work. More details at
     http://www.quantum-espresso.org/quote

     Parallel version (MPI), running on   192 processors
     K-points division:     npool     =      48
     R & G space division:  proc/nbgrp/npool/nimage =       4

     Reading data from directory:
     ./tmp/na.9r.0.save

   Info: using nr1, nr2, nr3 values from input

   Info: using nr1, nr2, nr3 values from input

     IMPORTANT: XC functional enforced from input :
     Exchange-correlation      = SLA  PW   PBE  PBE ( 1  4  3  4 0 0)
     Any further DFT definition will be discarded
     Please, verify this is what you really want

 
     Parallelization info
     --------------------
     sticks:   dense  smooth     PW     G-vecs:    dense   smooth      PW
     Min         764     384    129                17454     6185    1193
     Max         765     385    130                17455     6186    1194
     Sum        3057    1539    517                69817    24741    4773
 
        1 /  13 q-points for this run, from  5 to  5:
       N       xq(1)         xq(2)         xq(3) 
       1   0.000000000   0.000000000   0.000000000
       2   0.334448762   0.334448762  -0.525613338
       3  -0.668897523  -0.668897523   1.051226676
       4   0.668897523  -0.191164576  -0.191164576
       5  -0.334448762  -1.194510861   1.385675437
       6   0.000000000  -0.860062100   0.860062100
       7  -1.337795047   0.382329152   0.382329152
       8   0.143284186   0.143284186   0.143284186
       9  -0.860062100  -0.860062100   1.720124199
      10  -0.525613338  -0.525613338   1.194510861
      11  -1.863408385   0.716777914   0.716777914
      12  -1.528959623   1.051226676   0.191164576
      13  -0.286568371  -0.286568371  -0.286568371
 

     Calculation of q =   -0.3344488  -1.1945109   1.3856754

   Info: using nr1, nr2, nr3 values from input

   Info: using nr1, nr2, nr3 values from input
 
     Parallelization info
     --------------------
     sticks:   dense  smooth     PW     G-vecs:    dense   smooth      PW
     Min         764     384    151                17454     6185    1553
     Max         765     385    152                17455     6186    1555
     Sum        3057    1539    607                69817    24741    6217
 


     bravais-lattice index     =            0
     lattice parameter (alat)  =      17.0000  a.u.
     unit-cell volume          =     724.2840 (a.u.)^3
     number of atoms/cell      =            3
     number of atomic types    =            1
     number of electrons       =        27.00
     number of Kohn-Sham states=           18
     kinetic-energy cutoff     =      40.0000  Ry
     charge density cutoff     =     320.0000  Ry
     Exchange-correlation      = SLA  PW   PBE  PBE ( 1  4  3  4 0 0)

     celldm(1)=  17.000000  celldm(2)=   0.000000  celldm(3)=   0.000000
     celldm(4)=   0.000000  celldm(5)=   0.000000  celldm(6)=   0.000000

     crystal axes: (cart. coord. in units of alat)
               a(1) = (   0.387810   0.678487   0.678487 )  
               a(2) = (   0.678487   0.387810   0.678487 )  
               a(3) = (   0.678487   0.678487   0.387810 )  

     reciprocal axes: (cart. coord. in units 2 pi/alat)
               b(1) = ( -2.102453  1.337795  1.337795 )  
               b(2) = (  1.337795 -2.102453  1.337795 )  
               b(3) = (  1.337795  1.337795 -2.102453 )  


     PseudoPot. # 1 for Na read from file:
     ./Na_pbe_v1.uspp.F.UPF
     MD5 check sum: 76a99c7e9422403d3e93cbc85ab7bccb
     Pseudo is Ultrasoft, Zval =  9.0
     Generated by new atomic code, or converted to UPF format
     Using radial grid of  819 points,  5 beta functions with: 
                l(1) =   0
                l(2) =   0
                l(3) =   1
                l(4) =   1
                l(5) =   2
     Q(r) pseudized with  8 coefficients,  rinner =    1.250   1.250   1.250
                                                       1.250   1.250

     atomic species   valence    mass     pseudopotential
        Na             9.00    22.99000     Na( 1.00)

     12 Sym. Ops., with inversion, found



   Cartesian axes

     site n.     atom                  positions (alat units)
         1           Na  tau(   1) = (   1.2601225   1.2601225   1.2601225  )
         2           Na  tau(   2) = (   0.4846618   0.4846618   0.4846618  )
         3           Na  tau(   3) = (   0.8723922   0.8723922   0.8723922  )

     number of k points= 16000  Marzari-Vanderbilt smearing, width (Ry)=  0.0200

     Number of k-points >= 100: set verbosity='high' to print them.

     Dense  grid:    69817 G-vectors     FFT dimensions: ( 108, 108, 108)

     Smooth grid:    24741 G-vectors     FFT dimensions: (  72,  72,  72)

     Estimated max dynamical RAM per process >      95.05MB

     Estimated total allocated dynamical RAM >   18249.77MB

     The potential is recalculated from file :
     ./tmp/_ph0/na.9r.0.save/charge-density.dat

     Starting wfc are   15 atomic +    3 random wfc

     Band Structure Calculation
     Davidson diagonalization with overlap

     ethr =  3.70E-11,  avg # of iterations = 24.7

     total cpu time spent up to now is      391.7 secs

     End of band structure calculation

     Number of k-points >= 100: set verbosity='high' to print the bands.

     the Fermi energy is     1.7558 ev

     Restart in Phonon calculation

                                                                                

     bravais-lattice index     =            0
     lattice parameter (alat)  =      17.0000  a.u.
     unit-cell volume          =     724.2840 (a.u.)^3
     number of atoms/cell      =            3
     number of atomic types    =            1
     kinetic-energy cut-off    =      40.0000  Ry
     charge density cut-off    =     320.0000  Ry
     convergence threshold     =      1.0E-16
     beta                      =       0.7000
     number of iterations used =            4
     Exchange-correlation      = SLA  PW   PBE  PBE ( 1  4  3  4 0 0)


     celldm(1)=   17.00000  celldm(2)=    0.00000  celldm(3)=    0.00000
     celldm(4)=    0.00000  celldm(5)=    0.00000  celldm(6)=    0.00000

     crystal axes: (cart. coord. in units of alat)
               a(1) = (  0.3878  0.6785  0.6785 )  
               a(2) = (  0.6785  0.3878  0.6785 )  
               a(3) = (  0.6785  0.6785  0.3878 )  

     reciprocal axes: (cart. coord. in units 2 pi/alat)
               b(1) = ( -2.1025  1.3378  1.3378 )  
               b(2) = (  1.3378 -2.1025  1.3378 )  
               b(3) = (  1.3378  1.3378 -2.1025 )  


     Atoms inside the unit cell: 

     Cartesian axes

     site n.  atom      mass           positions (alat units)
        1     Na  22.9900   tau(    1) = (    1.26012    1.26012    1.26012  )
        2     Na  22.9900   tau(    2) = (    0.48466    0.48466    0.48466  )
        3     Na  22.9900   tau(    3) = (    0.87239    0.87239    0.87239  )

     Computing dynamical matrix for 
                    q = (  -0.3344488  -1.1945109   1.3856754 )
 
     No symmetry!

     G cutoff = 2342.5458  (  17455 G-vectors)     FFT grid: (108,108,108)
     G cutoff = 1171.2729  (   6186 G-vectors)  smooth grid: ( 72, 72, 72)

     number of k points= 16000  Marzari-Vanderbilt smearing, width (Ry)=  0.0200

     PseudoPot. # 1 for Na read from file:
     ./Na_pbe_v1.uspp.F.UPF
     MD5 check sum: 76a99c7e9422403d3e93cbc85ab7bccb
     Pseudo is Ultrasoft, Zval =  9.0
     Generated by new atomic code, or converted to UPF format
     Using radial grid of  819 points,  5 beta functions with: 
                l(1) =   0
                l(2) =   0
                l(3) =   1
                l(4) =   1
                l(5) =   2
     Q(r) pseudized with  8 coefficients,  rinner =    1.250   1.250   1.250
                                                       1.250   1.250

     Mode symmetry, C_1 (1)     point group:


     Atomic displacements:
     There are   9 irreducible representations

     Representation     1      1 modes -A  Done

     Representation     2      1 modes -A  Done

     Representation     3      1 modes -A  Done

     Representation     4      1 modes -A  Done

     Representation     5      1 modes -A  Done

     Representation     6      1 modes -A  Done

     Representation     7      1 modes -A  To be done

     Representation     8      1 modes -A  To be done

     Representation     9      1 modes -A  To be done


     PHONON       :  6m58.11s CPU     7m36.76s WALL



     Representation #  7 mode #   7

     Self-consistent Calculation

     End of self-consistent calculation

     Convergence has been achieved 


     Representation #  8 mode #   8

     Self-consistent Calculation

      iter #   1 total cpu time :   558.0 secs   av.it.:   5.8
      thresh= 1.000E-02 alpha_mix =  0.700 |ddv_scf|^2 =  1.070E-06

      iter #   2 total cpu time :   694.2 secs   av.it.:   9.5
      thresh= 1.034E-04 alpha_mix =  0.700 |ddv_scf|^2 =  1.066E-06

      iter #   3 total cpu time :   819.6 secs   av.it.:   8.4
      thresh= 1.033E-04 alpha_mix =  0.700 |ddv_scf|^2 =  2.808E-08

      iter #   4 total cpu time :   953.3 secs   av.it.:   9.2
      thresh= 1.676E-05 alpha_mix =  0.700 |ddv_scf|^2 =  3.931E-09

      iter #   5 total cpu time :  1086.0 secs   av.it.:   9.1
      thresh= 6.270E-06 alpha_mix =  0.700 |ddv_scf|^2 =  1.093E-10

      iter #   6 total cpu time :  1222.9 secs   av.it.:   9.8
      thresh= 1.046E-06 alpha_mix =  0.700 |ddv_scf|^2 =  3.566E-12

      iter #   7 total cpu time :  1361.3 secs   av.it.:   9.9
      thresh= 1.888E-07 alpha_mix =  0.700 |ddv_scf|^2 =  1.603E-13

      iter #   8 total cpu time :  1497.2 secs   av.it.:   9.7
      thresh= 4.004E-08 alpha_mix =  0.700 |ddv_scf|^2 =  1.782E-14

      iter #   9 total cpu time :  1631.7 secs   av.it.:   9.6
      thresh= 1.335E-08 alpha_mix =  0.700 |ddv_scf|^2 =  1.045E-14

      iter #  10 total cpu time :  1760.0 secs   av.it.:   8.9
      thresh= 1.022E-08 alpha_mix =  0.700 |ddv_scf|^2 =  4.225E-16

      iter #  11 total cpu time :  1893.9 secs   av.it.:   9.5
      thresh= 2.055E-09 alpha_mix =  0.700 |ddv_scf|^2 =  4.547E-17

     End of self-consistent calculation

     Convergence has been achieved 


     Representation #  9 mode #   9

     Self-consistent Calculation

      iter #   1 total cpu time :  1986.8 secs   av.it.:   5.7
      thresh= 1.000E-02 alpha_mix =  0.700 |ddv_scf|^2 =  5.475E-07

      iter #   2 total cpu time :  2125.3 secs   av.it.:   9.8
      thresh= 7.399E-05 alpha_mix =  0.700 |ddv_scf|^2 =  2.664E-07

      iter #   3 total cpu time :  2254.4 secs   av.it.:   9.0
      thresh= 5.161E-05 alpha_mix =  0.700 |ddv_scf|^2 =  4.056E-08

      iter #   4 total cpu time :  2383.8 secs   av.it.:   9.0
      thresh= 2.014E-05 alpha_mix =  0.700 |ddv_scf|^2 =  1.323E-09

      iter #   5 total cpu time :  2516.4 secs   av.it.:   9.3
      thresh= 3.638E-06 alpha_mix =  0.700 |ddv_scf|^2 =  1.997E-10

      iter #   6 total cpu time :  2646.7 secs   av.it.:   9.1
      thresh= 1.413E-06 alpha_mix =  0.700 |ddv_scf|^2 =  3.903E-12

      iter #   7 total cpu time :  2780.8 secs   av.it.:   9.5
      thresh= 1.976E-07 alpha_mix =  0.700 |ddv_scf|^2 =  2.007E-13

      iter #   8 total cpu time :  2914.6 secs   av.it.:   9.3
      thresh= 4.480E-08 alpha_mix =  0.700 |ddv_scf|^2 =  1.255E-14

      iter #   9 total cpu time :  3050.4 secs   av.it.:   9.6
      thresh= 1.120E-08 alpha_mix =  0.700 |ddv_scf|^2 =  2.847E-15

      iter #  10 total cpu time :  3182.6 secs   av.it.:   9.2
      thresh= 5.336E-09 alpha_mix =  0.700 |ddv_scf|^2 =  4.494E-16

      iter #  11 total cpu time :  3316.0 secs   av.it.:   9.3
      thresh= 2.120E-09 alpha_mix =  0.700 |ddv_scf|^2 =  4.720E-17

     End of self-consistent calculation

     Convergence has been achieved 
 
     Number of q in the star =   12
     List of q in the star:
          1  -0.334448762  -1.194510861   1.385675437
          2   1.194510861   0.334448762  -1.385675437
          3  -1.385675437   1.194510861   0.334448762
          4   0.334448762  -1.385675437   1.194510861
          5  -1.194510861   1.385675437  -0.334448762
          6   1.385675437  -0.334448762  -1.194510861
          7   0.334448762   1.194510861  -1.385675437
          8  -1.194510861  -0.334448762   1.385675437
          9   1.385675437  -1.194510861  -0.334448762
         10  -0.334448762   1.385675437  -1.194510861
         11   1.194510861  -1.385675437   0.334448762
         12  -1.385675437   0.334448762   1.194510861

     Diagonalizing the dynamical matrix

     q = (   -0.334448762  -1.194510861   1.385675437 ) 

 **************************************************************************
     freq (    1) =       2.216292 [THz] =      73.927555 [cm-1]
     freq (    2) =       2.692361 [THz] =      89.807490 [cm-1]
     freq (    3) =       2.820496 [THz] =      94.081617 [cm-1]
     freq (    4) =       3.138391 [THz] =     104.685448 [cm-1]
     freq (    5) =       3.253606 [THz] =     108.528615 [cm-1]
     freq (    6) =       3.695321 [THz] =     123.262644 [cm-1]
     freq (    7) =       3.759026 [THz] =     125.387618 [cm-1]
     freq (    8) =       5.932169 [THz] =     197.875855 [cm-1]
     freq (    9) =      29.862053 [THz] =     996.090878 [cm-1]
 **************************************************************************

     Mode symmetry, C_1 (1)     point group:

     freq (  1 -  1) =         73.9  [cm-1]   --> A                  
     freq (  2 -  2) =         89.8  [cm-1]   --> A                  
     freq (  3 -  3) =         94.1  [cm-1]   --> A                  
     freq (  4 -  4) =        104.7  [cm-1]   --> A                  
     freq (  5 -  5) =        108.5  [cm-1]   --> A                  
     freq (  6 -  6) =        123.3  [cm-1]   --> A                  
     freq (  7 -  7) =        125.4  [cm-1]   --> A                  
     freq (  8 -  8) =        197.9  [cm-1]   --> A                  
     freq (  9 -  9) =        996.1  [cm-1]   --> A                  
 
     init_run     :      0.88s CPU      0.93s WALL (       1 calls)
     electrons    :    389.15s CPU    390.72s WALL (       1 calls)

     Called by init_run:
     wfcinit      :      0.00s CPU      0.01s WALL (       1 calls)
     potinit      :      0.35s CPU      0.38s WALL (       1 calls)

     Called by electrons:
     c_bands      :    389.12s CPU    390.69s WALL (       1 calls)
     v_of_rho     :      0.44s CPU      0.46s WALL (       2 calls)
     newd         :      0.10s CPU      0.11s WALL (       2 calls)

     Called by c_bands:
     init_us_2    :      1.44s CPU      1.42s WALL (    4676 calls)
     cegterg      :    279.04s CPU    280.14s WALL (     556 calls)

     Called by sum_band:

     Called by *egterg:
     h_psi        :   2415.31s CPU   2423.25s WALL (   74366 calls)
     s_psi        :     24.73s CPU     25.29s WALL (  143938 calls)
     g_psi        :      0.30s CPU      0.33s WALL (    7578 calls)
     cdiaghg      :      7.54s CPU      7.64s WALL (    7912 calls)

     Called by h_psi:
     h_psi:pot    :   2413.29s CPU   2421.12s WALL (   74366 calls)
     h_psi:calbec :     23.74s CPU     23.79s WALL (   74366 calls)
     vloc_psi     :   2374.26s CPU   2382.65s WALL (   74366 calls)
     add_vuspsi   :     14.88s CPU     14.32s WALL (   74366 calls)

     General routines
     calbec       :     41.07s CPU     41.29s WALL (  150284 calls)
     fft          :      3.00s CPU      3.08s WALL (     358 calls)
     ffts         :      0.63s CPU      0.62s WALL (     408 calls)
     fftw         :   1735.38s CPU   1744.86s WALL ( 1354972 calls)
     interpolate  :      0.83s CPU      0.86s WALL (      47 calls)
     davcio       :      0.06s CPU      6.15s WALL (    1178 calls)
 
     Parallel routines
     fft_scatter  :    466.84s CPU    469.09s WALL ( 1355738 calls)
 
     PHONON       : 54m16.06s CPU    55m26.40s WALL

     INITIALIZATION: 
     phq_setup    :      0.48s CPU      0.64s WALL (       1 calls)
     phq_init     :      0.50s CPU      0.55s WALL (       1 calls)
 
     phq_init     :      0.50s CPU      0.55s WALL (       1 calls)
     init_vloc    :      0.06s CPU      0.06s WALL (       2 calls)
     init_us_1    :      0.28s CPU      0.29s WALL (       2 calls)
     newd         :      0.10s CPU      0.11s WALL (       2 calls)
 
     DYNAMICAL MATRIX:
     phqscf       :   2835.16s CPU   2863.36s WALL (       1 calls)
     dynmatrix    :      2.62s CPU      2.65s WALL (       1 calls)
 
     phqscf       :   2835.16s CPU   2863.36s WALL (       1 calls)
     solve_linter :   2830.52s CPU   2856.86s WALL (       3 calls)
     drhodv       :      4.63s CPU      5.37s WALL (       3 calls)
 
 
 
     phqscf       :   2835.16s CPU   2863.36s WALL (       1 calls)
     solve_linter :   2830.52s CPU   2856.86s WALL (       3 calls)
 
     solve_linter :   2830.52s CPU   2856.86s WALL (       3 calls)
     dvqpsi_us    :     18.73s CPU     18.79s WALL (     334 calls)
     ortho        :      4.65s CPU      4.66s WALL (    3674 calls)
     cgsolve      :   2198.69s CPU   2206.96s WALL (    3674 calls)
     incdrhoscf   :    211.15s CPU    212.03s WALL (    3674 calls)
     addusddens   :      1.51s CPU      1.52s WALL (      22 calls)
     vpsifft      :    136.18s CPU    136.59s WALL (    3340 calls)
     dv_of_drho   :      3.84s CPU      4.65s WALL (      22 calls)
     mix_pot      :      1.20s CPU      1.25s WALL (      22 calls)
     newdq        :      1.45s CPU      1.50s WALL (      22 calls)
     adddvscf     :      2.18s CPU      2.24s WALL (    3340 calls)
     drhodvus     :      0.85s CPU      2.59s WALL (       3 calls)
 
     dvqpsi_us    :     18.73s CPU     18.79s WALL (     334 calls)
     dvqpsi_us_on :      0.82s CPU      0.81s WALL (     334 calls)
 
     cgsolve      :   2198.69s CPU   2206.96s WALL (    3674 calls)
     ch_psi       :   2185.39s CPU   2193.78s WALL (   65898 calls)
 
     ch_psi       :   2185.39s CPU   2193.78s WALL (   65898 calls)
     h_psi        :   2415.31s CPU   2423.25s WALL (   74366 calls)
     last         :     40.78s CPU     41.69s WALL (   65898 calls)
 
     h_psi        :   2415.31s CPU   2423.25s WALL (   74366 calls)
     add_vuspsi   :     14.88s CPU     14.32s WALL (   74366 calls)
 
     incdrhoscf   :    211.15s CPU    212.03s WALL (    3674 calls)
     addusdbec    :      2.14s CPU      2.09s WALL (    3674 calls)
 
     drhodvus     :      0.85s CPU      2.59s WALL (       3 calls)
 
      General routines
     calbec       :     41.07s CPU     41.29s WALL (  150284 calls)
     fft          :      3.00s CPU      3.08s WALL (     358 calls)
     ffts         :      0.63s CPU      0.62s WALL (     408 calls)
     fftw         :   1735.38s CPU   1744.86s WALL ( 1354972 calls)
     davcio       :      0.06s CPU      6.15s WALL (    1178 calls)
     write_rec    :      0.06s CPU     14.13s WALL (      25 calls)
 
 
     PHONON       : 54m16.06s CPU    55m26.40s WALL

 
   This run was terminated on:  23: 1: 8   7Mar2018            

=------------------------------------------------------------------------------=
   JOB DONE.
=------------------------------------------------------------------------------=
Application 30216574 resources: utime ~632530s, stime ~2110s, Rss ~425540, inblocks ~68380276, outblocks ~114733743
