
     Program PHONON v.5.2.0 starts on 23Jun2016 at 20:46:45 

     This program is part of the open-source Quantum ESPRESSO suite
     for quantum simulation of materials; please cite
         "P. Giannozzi et al., J. Phys.:Condens. Matter 21 395502 (2009);
          URL http://www.quantum-espresso.org", 
     in publications or presentations arising from this work. More details at
     http://www.quantum-espresso.org/quote

     Parallel version (MPI), running on   576 processors
     K-points division:     npool     =     576

     Reading data from directory:
     ./tmp/li-bcc.save

   Info: using nr1, nr2, nr3 values from input

   Info: using nr1, nr2, nr3 values from input

     IMPORTANT: XC functional enforced from input :
     Exchange-correlation      =  SLA  PW   PBX  PBC ( 1  4  3  4 0 0)
     Any further DFT definition will be discarded
     Please, verify this is what you really want

 
     G-vector sticks info
     --------------------
     sticks:   dense  smooth     PW     G-vecs:    dense   smooth      PW
     Sum        1175     599    181                25699     9189    1553
 


     Dynamical matrices for (10,10,10)  uniform grid of q-points
     (  47q-points):
       N         xq(1)         xq(2)         xq(3) 
       1   0.000000000   0.000000000   0.000000000
       2   0.000000000  -0.100000000   0.100000000
       3   0.000000000  -0.200000000   0.200000000
       4   0.000000000  -0.300000000   0.300000000
       5   0.000000000  -0.400000000   0.400000000
       6   0.000000000   0.500000000  -0.500000000
       7  -0.100000000  -0.100000000   0.200000000
       8  -0.100000000  -0.200000000   0.300000000
       9  -0.100000000  -0.300000000   0.400000000
      10  -0.100000000   0.600000000  -0.500000000
      11  -0.200000000  -0.200000000   0.400000000
      12  -0.200000000   0.700000000  -0.500000000
      13  -0.200000000   0.600000000  -0.400000000
      14  -0.300000000   0.700000000  -0.400000000
      15   0.000000000   0.000000000   0.200000000
      16   0.000000000  -0.100000000   0.300000000
      17   0.000000000  -0.200000000   0.400000000
      18   0.000000000  -0.300000000   0.500000000
      19   0.000000000   0.600000000  -0.400000000
      20  -0.100000000  -0.100000000   0.400000000
      21  -0.100000000  -0.200000000   0.500000000
      22  -0.100000000   0.700000000  -0.400000000
      23  -0.200000000   0.200000000   0.200000000
      24  -0.200000000   0.800000000  -0.400000000
      25  -0.200000000   0.700000000  -0.300000000
      26  -0.300000000   0.300000000   0.200000000
      27   0.600000000  -0.600000000   0.200000000
      28   0.600000000  -0.700000000   0.300000000
      29   0.500000000  -0.500000000   0.200000000
      30   0.500000000  -0.600000000   0.300000000
      31   0.400000000  -0.600000000   0.400000000
      32   0.000000000   0.000000000   0.400000000
      33   0.000000000  -0.100000000   0.500000000
      34   0.000000000  -0.200000000   0.600000000
      35   0.000000000   0.700000000  -0.300000000
      36  -0.100000000  -0.100000000   0.600000000
      37  -0.100000000   0.800000000  -0.300000000
      38  -0.200000000   0.800000000  -0.200000000
      39   0.600000000  -0.600000000   0.400000000
      40   0.500000000  -0.500000000   0.400000000
      41   0.000000000   0.000000000   0.600000000
      42   0.000000000  -0.100000000   0.700000000
      43   0.000000000   0.800000000  -0.200000000
      44  -0.100000000   0.900000000  -0.200000000
      45   0.000000000   0.000000000   0.800000000
      46   0.000000000   0.900000000  -0.100000000
      47   0.000000000   0.000000000  -1.000000000

     Calculation of q =    0.0000000   0.0000000   0.0000000

                                                                                

     bravais-lattice index     =            3
     lattice parameter (alat)  =       6.6212  a.u.
     unit-cell volume          =     145.1386 (a.u.)^3
     number of atoms/cell      =            1
     number of atomic types    =            1
     kinetic-energy cut-off    =      60.0000  Ry
     charge density cut-off    =     480.0000  Ry
     convergence threshold     =      1.0E-16
     beta                      =       0.7000
     number of iterations used =            4
     Exchange-correlation      =  SLA  PW   PBX  PBC ( 1  4  3  4 0 0)


     celldm(1)=    6.62121  celldm(2)=    0.00000  celldm(3)=    0.00000
     celldm(4)=    0.00000  celldm(5)=    0.00000  celldm(6)=    0.00000

     crystal axes: (cart. coord. in units of alat)
               a(1) = (  0.5000  0.5000  0.5000 )  
               a(2) = ( -0.5000  0.5000  0.5000 )  
               a(3) = ( -0.5000 -0.5000  0.5000 )  

     reciprocal axes: (cart. coord. in units 2 pi/alat)
               b(1) = (  1.0000  0.0000  1.0000 )  
               b(2) = ( -1.0000  1.0000  0.0000 )  
               b(3) = (  0.0000 -1.0000  1.0000 )  


     Atoms inside the unit cell: 

     Cartesian axes

     site n.  atom      mass           positions (alat units)
        1     Li   6.9410   tau(    1) = (    0.00000    0.00000    0.00000  )

     Computing dynamical matrix for 
                    q = (   0.0000000   0.0000000   0.0000000 )
 
     49 Sym.Ops. (with q -> -q+G )


     G cutoff =  533.0363  (  25699 G-vectors)     FFT grid: ( 40, 40, 40)
     G cutoff =  266.5181  (   9189 G-vectors)  smooth grid: ( 30, 30, 30)

     number of k points=   616  Marzari-Vanderbilt smearing, width (Ry)=  0.0200

     PseudoPot. # 1 for Li read from file:
     ../Li.pbe-s-gbrv14.UPF
     MD5 check sum: 7ca33c4f951f001da2db5c8738379802
     Pseudo is Ultrasoft, Zval =  3.0
     Generated by new atomic code, or converted to UPF format
     Using radial grid of  751 points,  5 beta functions with: 
                l(1) =   0
                l(2) =   0
                l(3) =   0
                l(4) =   1
                l(5) =   1
     Q(r) pseudized with 10 coefficients,  rinner =    1.150   1.150   1.150


     Mode symmetry, O_h (m-3m)  point group:


     Atomic displacements:
     There are   1 irreducible representations

     Representation     1      3 modes -T_1u G_15  G_4-  To be done



     Alpha used in Ewald sum =   2.8000
     PHONON       :     8.46s CPU        43.41s WALL



     Representation #  1 modes #   1  2  3

     Self-consistent Calculation
 
     Pert. #  1: Fermi energy shift (Ry) =     4.2824E-24    -9.4040E-38
     Pert. #  2: Fermi energy shift (Ry) =     7.2034E-24     8.7770E-37
     Pert. #  3: Fermi energy shift (Ry) =     8.0995E-25     3.7616E-37

      iter #   1 total cpu time :    44.2 secs   av.it.:   5.2
      thresh= 1.000E-02 alpha_mix =  0.700 |ddv_scf|^2 =  1.060E-07
 
     Pert. #  1: Fermi energy shift (Ry) =    -2.2403E-25     1.0102E-39
     Pert. #  2: Fermi energy shift (Ry) =     7.5394E-25     2.0816E-39
     Pert. #  3: Fermi energy shift (Ry) =     5.6007E-26     3.0612E-40

      iter #   2 total cpu time :    49.8 secs   av.it.:   9.4
      thresh= 3.256E-05 alpha_mix =  0.700 |ddv_scf|^2 =  6.570E-09
 
     Pert. #  1: Fermi energy shift (Ry) =     3.4466E-26    -3.7499E-40
     Pert. #  2: Fermi energy shift (Ry) =    -1.3786E-25    -2.4489E-40
     Pert. #  3: Fermi energy shift (Ry) =     2.5849E-26    -1.9898E-40

      iter #   3 total cpu time :    57.3 secs   av.it.:   9.7
      thresh= 8.106E-06 alpha_mix =  0.700 |ddv_scf|^2 =  4.711E-11
 
     Pert. #  1: Fermi energy shift (Ry) =    -1.2063E-25     8.6096E-42
     Pert. #  2: Fermi energy shift (Ry) =    -1.2925E-25    -1.9132E-42
     Pert. #  3: Fermi energy shift (Ry) =     1.4648E-25    -1.3393E-41

      iter #   4 total cpu time :    63.0 secs   av.it.:   9.4
      thresh= 6.863E-07 alpha_mix =  0.700 |ddv_scf|^2 =  1.148E-13
 
     Pert. #  1: Fermi energy shift (Ry) =    -1.1201E-25     2.3915E-42
     Pert. #  2: Fermi energy shift (Ry) =     2.7573E-25     2.8699E-42
     Pert. #  3: Fermi energy shift (Ry) =     5.1699E-26     7.1746E-43

      iter #   5 total cpu time :    68.1 secs   av.it.:   9.0
      thresh= 3.389E-08 alpha_mix =  0.700 |ddv_scf|^2 =  1.512E-15
 
     Pert. #  1: Fermi energy shift (Ry) =    -5.1699E-26     2.3915E-42
     Pert. #  2: Fermi energy shift (Ry) =    -1.2063E-25     2.8699E-42
     Pert. #  3: Fermi energy shift (Ry) =     5.1699E-26     7.1746E-43

      iter #   6 total cpu time :    70.9 secs   av.it.:   8.3
      thresh= 3.889E-09 alpha_mix =  0.700 |ddv_scf|^2 =  6.967E-19

     End of self-consistent calculation

     Convergence has been achieved 
 
     Number of q in the star =    1
     List of q in the star:
          1   0.000000000   0.000000000   0.000000000

     Diagonalizing the dynamical matrix

     q = (    0.000000000   0.000000000   0.000000000 ) 

 **************************************************************************
     freq (    1) =       0.203777 [THz] =       6.797273 [cm-1]
     freq (    2) =       0.203777 [THz] =       6.797273 [cm-1]
     freq (    3) =       0.203777 [THz] =       6.797273 [cm-1]
 **************************************************************************

     Mode symmetry, O_h (m-3m)  point group:

     freq (  1 -  3) =          6.8  [cm-1]   --> T_1u G_15  G_4- I  

     Calculation of q =    0.0000000  -0.1000000   0.1000000
 
     G-vector sticks info
     --------------------
     sticks:   dense  smooth     PW     G-vecs:    dense   smooth      PW
     Sum        1175     599    181                25699     9189    1601
 


     bravais-lattice index     =            3
     lattice parameter (alat)  =       6.6212  a.u.
     unit-cell volume          =     145.1386 (a.u.)^3
     number of atoms/cell      =            1
     number of atomic types    =            1
     number of electrons       =         3.00
     number of Kohn-Sham states=            6
     kinetic-energy cutoff     =      60.0000  Ry
     charge density cutoff     =     480.0000  Ry
     Exchange-correlation      =  SLA  PW   PBX  PBC ( 1  4  3  4 0 0)

     celldm(1)=   6.621214  celldm(2)=   0.000000  celldm(3)=   0.000000
     celldm(4)=   0.000000  celldm(5)=   0.000000  celldm(6)=   0.000000

     crystal axes: (cart. coord. in units of alat)
               a(1) = (   0.500000   0.500000   0.500000 )  
               a(2) = (  -0.500000   0.500000   0.500000 )  
               a(3) = (  -0.500000  -0.500000   0.500000 )  

     reciprocal axes: (cart. coord. in units 2 pi/alat)
               b(1) = (  1.000000  0.000000  1.000000 )  
               b(2) = ( -1.000000  1.000000  0.000000 )  
               b(3) = (  0.000000 -1.000000  1.000000 )  


     PseudoPot. # 1 for Li read from file:
     ../Li.pbe-s-gbrv14.UPF
     MD5 check sum: 7ca33c4f951f001da2db5c8738379802
     Pseudo is Ultrasoft, Zval =  3.0
     Generated by new atomic code, or converted to UPF format
     Using radial grid of  751 points,  5 beta functions with: 
                l(1) =   0
                l(2) =   0
                l(3) =   0
                l(4) =   1
                l(5) =   1
     Q(r) pseudized with 10 coefficients,  rinner =    1.150   1.150   1.150


     atomic species   valence    mass     pseudopotential
        Li             3.00     6.94100     Li( 1.00)

     48 Sym. Ops., with inversion, found



   Cartesian axes

     site n.     atom                  positions (alat units)
         1           Li  tau(   1) = (   0.0000000   0.0000000   0.0000000  )

     number of k points= 11760  Marzari-Vanderbilt smearing, width (Ry)=  0.0200

     Number of k-points >= 100: set verbosity='high' to print them.

     Dense  grid:    25699 G-vectors     FFT dimensions: (  40,  40,  40)

     Smooth grid:     9189 G-vectors     FFT dimensions: (  30,  30,  30)

     Largest allocated arrays     est. size (Mb)     dimensions
        Kohn-Sham Wavefunctions         0.11 Mb     (    1157,    6)
        NL pseudopotentials             0.16 Mb     (    1157,    9)
        Each V/rho on FFT grid          0.98 Mb     (   64000)
        Each G-vector array             0.20 Mb     (   25699)
        G-vector shells                 0.00 Mb     (     246)
     Largest temporary arrays     est. size (Mb)     dimensions
        Auxiliary wavefunctions         0.42 Mb     (    1157,   24)
        Each subspace H/S matrix        0.01 Mb     (      24,   24)
        Each <psi_i|beta_j> matrix      0.00 Mb     (       9,    6)

     The potential is recalculated from file :
     ./tmp/_ph0/li-bcc.save/charge-density.dat

     Starting wfc are    5 atomic +    1 random wfc

     Band Structure Calculation
     Davidson diagonalization with overlap

     ethr =  3.33E-10,  avg # of iterations = 17.5

     total cpu time spent up to now is        6.9 secs

     End of band structure calculation

     Number of k-points >= 100: set verbosity='high' to print the bands.

     the Fermi energy is     0.7710 ev

                                                                                

     bravais-lattice index     =            3
     lattice parameter (alat)  =       6.6212  a.u.
     unit-cell volume          =     145.1386 (a.u.)^3
     number of atoms/cell      =            1
     number of atomic types    =            1
     kinetic-energy cut-off    =      60.0000  Ry
     charge density cut-off    =     480.0000  Ry
     convergence threshold     =      1.0E-16
     beta                      =       0.7000
     number of iterations used =            4
     Exchange-correlation      =  SLA  PW   PBX  PBC ( 1  4  3  4 0 0)


     celldm(1)=    6.62121  celldm(2)=    0.00000  celldm(3)=    0.00000
     celldm(4)=    0.00000  celldm(5)=    0.00000  celldm(6)=    0.00000

     crystal axes: (cart. coord. in units of alat)
               a(1) = (  0.5000  0.5000  0.5000 )  
               a(2) = ( -0.5000  0.5000  0.5000 )  
               a(3) = ( -0.5000 -0.5000  0.5000 )  

     reciprocal axes: (cart. coord. in units 2 pi/alat)
               b(1) = (  1.0000  0.0000  1.0000 )  
               b(2) = ( -1.0000  1.0000  0.0000 )  
               b(3) = (  0.0000 -1.0000  1.0000 )  


     Atoms inside the unit cell: 

     Cartesian axes

     site n.  atom      mass           positions (alat units)
        1     Li   6.9410   tau(    1) = (    0.00000    0.00000    0.00000  )

     Computing dynamical matrix for 
                    q = (   0.0000000  -0.1000000   0.1000000 )
 
      4 Sym.Ops. (no q -> -q+G )


     G cutoff =  533.0363  (  25699 G-vectors)     FFT grid: ( 40, 40, 40)
     G cutoff =  266.5181  (   9189 G-vectors)  smooth grid: ( 30, 30, 30)

     number of k points= 11760  Marzari-Vanderbilt smearing, width (Ry)=  0.0200

     PseudoPot. # 1 for Li read from file:
     ../Li.pbe-s-gbrv14.UPF
     MD5 check sum: 7ca33c4f951f001da2db5c8738379802
     Pseudo is Ultrasoft, Zval =  3.0
     Generated by new atomic code, or converted to UPF format
     Using radial grid of  751 points,  5 beta functions with: 
                l(1) =   0
                l(2) =   0
                l(3) =   0
                l(4) =   1
                l(5) =   1
     Q(r) pseudized with 10 coefficients,  rinner =    1.150   1.150   1.150


     Mode symmetry, C_2v (mm2)  point group:


     Atomic displacements:
     There are   3 irreducible representations

     Representation     1      1 modes -A_1  D_1  S_1  To be done

     Representation     2      1 modes -B_1  D_3  S_3  To be done

     Representation     3      1 modes -B_2  D_4  S_4  To be done



     Alpha used in Ewald sum =   2.8000
     PHONON       :  1m 3.01s CPU     1m45.16s WALL



     Representation #  1 mode #   1

     Self-consistent Calculation

      iter #   1 total cpu time :   105.6 secs   av.it.:   6.3
      thresh= 1.000E-02 alpha_mix =  0.700 |ddv_scf|^2 =  2.320E-01

      iter #   2 total cpu time :   110.4 secs   av.it.:   8.2
      thresh= 1.000E-02 alpha_mix =  0.700 |ddv_scf|^2 =  4.397E+02

      iter #   3 total cpu time :   117.4 secs   av.it.:   8.1
      thresh= 1.000E-02 alpha_mix =  0.700 |ddv_scf|^2 =  8.116E-03

      iter #   4 total cpu time :   125.6 secs   av.it.:   3.6
      thresh= 9.009E-03 alpha_mix =  0.700 |ddv_scf|^2 =  1.389E-07

      iter #   5 total cpu time :   131.4 secs   av.it.:   7.9
      thresh= 3.727E-05 alpha_mix =  0.700 |ddv_scf|^2 =  1.985E-08

      iter #   6 total cpu time :   144.3 secs   av.it.:   6.2
      thresh= 1.409E-05 alpha_mix =  0.700 |ddv_scf|^2 =  1.102E-06

      iter #   7 total cpu time :   147.8 secs   av.it.:   5.3
      thresh= 1.050E-04 alpha_mix =  0.700 |ddv_scf|^2 =  6.108E-10

      iter #   8 total cpu time :   153.0 secs   av.it.:   6.7
      thresh= 2.471E-06 alpha_mix =  0.700 |ddv_scf|^2 =  4.164E-12

      iter #   9 total cpu time :   156.8 secs   av.it.:   7.4
      thresh= 2.041E-07 alpha_mix =  0.700 |ddv_scf|^2 =  1.260E-12

      iter #  10 total cpu time :   160.7 secs   av.it.:   6.9
      thresh= 1.123E-07 alpha_mix =  0.700 |ddv_scf|^2 =  4.791E-15

      iter #  11 total cpu time :   165.3 secs   av.it.:   7.5
      thresh= 6.921E-09 alpha_mix =  0.700 |ddv_scf|^2 =  4.208E-17

     End of self-consistent calculation

     Convergence has been achieved 


     Representation #  2 mode #   2

     Self-consistent Calculation

      iter #   1 total cpu time :   182.5 secs   av.it.:   5.2
      thresh= 1.000E-02 alpha_mix =  0.700 |ddv_scf|^2 =  9.574E-07

      iter #   2 total cpu time :   185.8 secs   av.it.:   8.5
      thresh= 9.785E-05 alpha_mix =  0.700 |ddv_scf|^2 =  5.918E-08

      iter #   3 total cpu time :   194.8 secs   av.it.:   9.0
      thresh= 2.433E-05 alpha_mix =  0.700 |ddv_scf|^2 =  4.410E-10

      iter #   4 total cpu time :   203.0 secs   av.it.:   8.3
      thresh= 2.100E-06 alpha_mix =  0.700 |ddv_scf|^2 =  1.007E-12

      iter #   5 total cpu time :   205.5 secs   av.it.:   8.2
      thresh= 1.003E-07 alpha_mix =  0.700 |ddv_scf|^2 =  1.339E-14

      iter #   6 total cpu time :   207.2 secs   av.it.:   7.2
      thresh= 1.157E-08 alpha_mix =  0.700 |ddv_scf|^2 =  6.814E-18

     End of self-consistent calculation

     Convergence has been achieved 


     Representation #  3 mode #   3

     Self-consistent Calculation

      iter #   1 total cpu time :   219.4 secs   av.it.:   5.3
      thresh= 1.000E-02 alpha_mix =  0.700 |ddv_scf|^2 =  9.682E-07

      iter #   2 total cpu time :   221.5 secs   av.it.:   8.5
      thresh= 9.840E-05 alpha_mix =  0.700 |ddv_scf|^2 =  5.968E-08

      iter #   3 total cpu time :   221.9 secs   av.it.:   8.9
      thresh= 2.443E-05 alpha_mix =  0.700 |ddv_scf|^2 =  4.993E-10

      iter #   4 total cpu time :   223.6 secs   av.it.:   8.3
      thresh= 2.234E-06 alpha_mix =  0.700 |ddv_scf|^2 =  1.021E-12

      iter #   5 total cpu time :   224.8 secs   av.it.:   8.2
      thresh= 1.011E-07 alpha_mix =  0.700 |ddv_scf|^2 =  1.518E-14

      iter #   6 total cpu time :   225.7 secs   av.it.:   7.2
      thresh= 1.232E-08 alpha_mix =  0.700 |ddv_scf|^2 =  6.330E-18

     End of self-consistent calculation

     Convergence has been achieved 
 
     Number of q in the star =   12
     List of q in the star:
          1   0.000000000  -0.100000000   0.100000000
          2  -0.100000000   0.000000000   0.100000000
          3   0.100000000   0.000000000   0.100000000
          4   0.000000000   0.100000000   0.100000000
          5   0.100000000   0.100000000   0.000000000
          6  -0.100000000   0.100000000   0.000000000
          7   0.100000000  -0.100000000   0.000000000
          8  -0.100000000  -0.100000000   0.000000000
          9  -0.100000000   0.000000000  -0.100000000
         10   0.000000000   0.100000000  -0.100000000
         11   0.000000000  -0.100000000  -0.100000000
         12   0.100000000   0.000000000  -0.100000000

     Diagonalizing the dynamical matrix

     q = (    0.000000000  -0.100000000   0.100000000 ) 

 **************************************************************************
     freq (    1) =       0.513469 [THz] =      17.127483 [cm-1]
     freq (    2) =       1.765146 [THz] =      58.878939 [cm-1]
     freq (    3) =       2.580110 [THz] =      86.063204 [cm-1]
 **************************************************************************

     Mode symmetry, C_2v (mm2)  point group:

     freq (  1 -  1) =         17.1  [cm-1]   --> B_1  D_3  S_3      
     freq (  2 -  2) =         58.9  [cm-1]   --> B_2  D_4  S_4      
     freq (  3 -  3) =         86.1  [cm-1]   --> A_1  D_1  S_1      

     Calculation of q =    0.0000000  -0.2000000   0.2000000
 
     G-vector sticks info
     --------------------
     sticks:   dense  smooth     PW     G-vecs:    dense   smooth      PW
     Sum        1175     599    201                25699     9189    1745
 


     bravais-lattice index     =            3
     lattice parameter (alat)  =       6.6212  a.u.
     unit-cell volume          =     145.1386 (a.u.)^3
     number of atoms/cell      =            1
     number of atomic types    =            1
     number of electrons       =         3.00
     number of Kohn-Sham states=            6
     kinetic-energy cutoff     =      60.0000  Ry
     charge density cutoff     =     480.0000  Ry
     Exchange-correlation      =  SLA  PW   PBX  PBC ( 1  4  3  4 0 0)

     celldm(1)=   6.621214  celldm(2)=   0.000000  celldm(3)=   0.000000
     celldm(4)=   0.000000  celldm(5)=   0.000000  celldm(6)=   0.000000

     crystal axes: (cart. coord. in units of alat)
               a(1) = (   0.500000   0.500000   0.500000 )  
               a(2) = (  -0.500000   0.500000   0.500000 )  
               a(3) = (  -0.500000  -0.500000   0.500000 )  

     reciprocal axes: (cart. coord. in units 2 pi/alat)
               b(1) = (  1.000000  0.000000  1.000000 )  
               b(2) = ( -1.000000  1.000000  0.000000 )  
               b(3) = (  0.000000 -1.000000  1.000000 )  


     PseudoPot. # 1 for Li read from file:
     ../Li.pbe-s-gbrv14.UPF
     MD5 check sum: 7ca33c4f951f001da2db5c8738379802
     Pseudo is Ultrasoft, Zval =  3.0
     Generated by new atomic code, or converted to UPF format
     Using radial grid of  751 points,  5 beta functions with: 
                l(1) =   0
                l(2) =   0
                l(3) =   0
                l(4) =   1
                l(5) =   1
     Q(r) pseudized with 10 coefficients,  rinner =    1.150   1.150   1.150


     atomic species   valence    mass     pseudopotential
        Li             3.00     6.94100     Li( 1.00)

     48 Sym. Ops., with inversion, found



   Cartesian axes

     site n.     atom                  positions (alat units)
         1           Li  tau(   1) = (   0.0000000   0.0000000   0.0000000  )

     number of k points= 11760  Marzari-Vanderbilt smearing, width (Ry)=  0.0200

     Number of k-points >= 100: set verbosity='high' to print them.

     Dense  grid:    25699 G-vectors     FFT dimensions: (  40,  40,  40)

     Smooth grid:     9189 G-vectors     FFT dimensions: (  30,  30,  30)

     Largest allocated arrays     est. size (Mb)     dimensions
        Kohn-Sham Wavefunctions         0.11 Mb     (    1157,    6)
        NL pseudopotentials             0.16 Mb     (    1157,    9)
        Each V/rho on FFT grid          0.98 Mb     (   64000)
        Each G-vector array             0.20 Mb     (   25699)
        G-vector shells                 0.00 Mb     (     246)
     Largest temporary arrays     est. size (Mb)     dimensions
        Auxiliary wavefunctions         0.42 Mb     (    1157,   24)
        Each subspace H/S matrix        0.01 Mb     (      24,   24)
        Each <psi_i|beta_j> matrix      0.00 Mb     (       9,    6)

     The potential is recalculated from file :
     ./tmp/_ph0/li-bcc.save/charge-density.dat

     Starting wfc are    5 atomic +    1 random wfc

     Band Structure Calculation
     Davidson diagonalization with overlap

     ethr =  3.33E-10,  avg # of iterations = 17.4

     total cpu time spent up to now is       13.8 secs

     End of band structure calculation

     Number of k-points >= 100: set verbosity='high' to print the bands.

     the Fermi energy is     0.7710 ev

                                                                                

     bravais-lattice index     =            3
     lattice parameter (alat)  =       6.6212  a.u.
     unit-cell volume          =     145.1386 (a.u.)^3
     number of atoms/cell      =            1
     number of atomic types    =            1
     kinetic-energy cut-off    =      60.0000  Ry
     charge density cut-off    =     480.0000  Ry
     convergence threshold     =      1.0E-16
     beta                      =       0.7000
     number of iterations used =            4
     Exchange-correlation      =  SLA  PW   PBX  PBC ( 1  4  3  4 0 0)


     celldm(1)=    6.62121  celldm(2)=    0.00000  celldm(3)=    0.00000
     celldm(4)=    0.00000  celldm(5)=    0.00000  celldm(6)=    0.00000

     crystal axes: (cart. coord. in units of alat)
               a(1) = (  0.5000  0.5000  0.5000 )  
               a(2) = ( -0.5000  0.5000  0.5000 )  
               a(3) = ( -0.5000 -0.5000  0.5000 )  

     reciprocal axes: (cart. coord. in units 2 pi/alat)
               b(1) = (  1.0000  0.0000  1.0000 )  
               b(2) = ( -1.0000  1.0000  0.0000 )  
               b(3) = (  0.0000 -1.0000  1.0000 )  


     Atoms inside the unit cell: 

     Cartesian axes

     site n.  atom      mass           positions (alat units)
        1     Li   6.9410   tau(    1) = (    0.00000    0.00000    0.00000  )

     Computing dynamical matrix for 
                    q = (   0.0000000  -0.2000000   0.2000000 )
 
      4 Sym.Ops. (no q -> -q+G )


     G cutoff =  533.0363  (  25699 G-vectors)     FFT grid: ( 40, 40, 40)
     G cutoff =  266.5181  (   9189 G-vectors)  smooth grid: ( 30, 30, 30)

     number of k points= 11760  Marzari-Vanderbilt smearing, width (Ry)=  0.0200

     PseudoPot. # 1 for Li read from file:
     ../Li.pbe-s-gbrv14.UPF
     MD5 check sum: 7ca33c4f951f001da2db5c8738379802
     Pseudo is Ultrasoft, Zval =  3.0
     Generated by new atomic code, or converted to UPF format
     Using radial grid of  751 points,  5 beta functions with: 
                l(1) =   0
                l(2) =   0
                l(3) =   0
                l(4) =   1
                l(5) =   1
     Q(r) pseudized with 10 coefficients,  rinner =    1.150   1.150   1.150


     Mode symmetry, C_2v (mm2)  point group:


     Atomic displacements:
     There are   3 irreducible representations

     Representation     1      1 modes -A_1  D_1  S_1  To be done

     Representation     2      1 modes -B_1  D_3  S_3  To be done

     Representation     3      1 modes -B_2  D_4  S_4  To be done



     Alpha used in Ewald sum =   2.8000
     PHONON       :  3m 9.06s CPU     4m 7.32s WALL



     Representation #  1 mode #   1

     Self-consistent Calculation

      iter #   1 total cpu time :   247.8 secs   av.it.:   6.3
      thresh= 1.000E-02 alpha_mix =  0.700 |ddv_scf|^2 =  3.173E-03

      iter #   2 total cpu time :   256.1 secs   av.it.:   7.4
      thresh= 5.633E-03 alpha_mix =  0.700 |ddv_scf|^2 =  3.018E-01

      iter #   3 total cpu time :   263.3 secs   av.it.:   6.7
      thresh= 1.000E-02 alpha_mix =  0.700 |ddv_scf|^2 =  5.259E-08

      iter #   4 total cpu time :   277.2 secs   av.it.:   9.1
      thresh= 2.293E-05 alpha_mix =  0.700 |ddv_scf|^2 =  1.011E-08

      iter #   5 total cpu time :   283.6 secs   av.it.:   8.6
      thresh= 1.006E-05 alpha_mix =  0.700 |ddv_scf|^2 =  2.002E-10

      iter #   6 total cpu time :   292.0 secs   av.it.:   8.2
      thresh= 1.415E-06 alpha_mix =  0.700 |ddv_scf|^2 =  3.022E-13

      iter #   7 total cpu time :   302.1 secs   av.it.:   9.4
      thresh= 5.497E-08 alpha_mix =  0.700 |ddv_scf|^2 =  4.050E-12

      iter #   8 total cpu time :   303.9 secs   av.it.:   6.2
      thresh= 2.013E-07 alpha_mix =  0.700 |ddv_scf|^2 =  2.745E-13

      iter #   9 total cpu time :   304.6 secs   av.it.:   7.6
      thresh= 5.239E-08 alpha_mix =  0.700 |ddv_scf|^2 =  6.536E-14

      iter #  10 total cpu time :   308.7 secs   av.it.:   6.8
      thresh= 2.557E-08 alpha_mix =  0.700 |ddv_scf|^2 =  5.183E-17

     End of self-consistent calculation

     Convergence has been achieved 


     Representation #  2 mode #   2

     Self-consistent Calculation

      iter #   1 total cpu time :   311.2 secs   av.it.:   5.3
      thresh= 1.000E-02 alpha_mix =  0.700 |ddv_scf|^2 =  9.666E-07

      iter #   2 total cpu time :   315.9 secs   av.it.:   8.5
      thresh= 9.832E-05 alpha_mix =  0.700 |ddv_scf|^2 =  5.931E-08

      iter #   3 total cpu time :   318.1 secs   av.it.:   9.0
      thresh= 2.435E-05 alpha_mix =  0.700 |ddv_scf|^2 =  4.964E-10

      iter #   4 total cpu time :   320.0 secs   av.it.:   8.3
      thresh= 2.228E-06 alpha_mix =  0.700 |ddv_scf|^2 =  9.717E-13

      iter #   5 total cpu time :   320.9 secs   av.it.:   8.3
      thresh= 9.857E-08 alpha_mix =  0.700 |ddv_scf|^2 =  1.492E-14

      iter #   6 total cpu time :   321.5 secs   av.it.:   6.5
      thresh= 1.221E-08 alpha_mix =  0.700 |ddv_scf|^2 =  8.311E-18

     End of self-consistent calculation

     Convergence has been achieved 


     Representation #  3 mode #   3

     Self-consistent Calculation

      iter #   1 total cpu time :   323.9 secs   av.it.:   5.4
      thresh= 1.000E-02 alpha_mix =  0.700 |ddv_scf|^2 =  1.006E-06

      iter #   2 total cpu time :   325.4 secs   av.it.:   8.5
      thresh= 1.003E-04 alpha_mix =  0.700 |ddv_scf|^2 =  6.133E-08

      iter #   3 total cpu time :   328.5 secs   av.it.:   9.0
      thresh= 2.476E-05 alpha_mix =  0.700 |ddv_scf|^2 =  7.292E-10

      iter #   4 total cpu time :   329.9 secs   av.it.:   8.3
      thresh= 2.700E-06 alpha_mix =  0.700 |ddv_scf|^2 =  1.118E-12

      iter #   5 total cpu time :   330.8 secs   av.it.:   8.4
      thresh= 1.057E-07 alpha_mix =  0.700 |ddv_scf|^2 =  1.884E-14

      iter #   6 total cpu time :   331.2 secs   av.it.:   7.0
      thresh= 1.373E-08 alpha_mix =  0.700 |ddv_scf|^2 =  6.548E-18

     End of self-consistent calculation

     Convergence has been achieved 
 
     Number of q in the star =   12
     List of q in the star:
          1   0.000000000  -0.200000000   0.200000000
          2  -0.200000000   0.000000000   0.200000000
          3   0.200000000   0.000000000   0.200000000
          4   0.000000000   0.200000000   0.200000000
          5   0.200000000   0.200000000   0.000000000
          6  -0.200000000   0.200000000   0.000000000
          7   0.200000000  -0.200000000   0.000000000
          8  -0.200000000  -0.200000000   0.000000000
          9  -0.200000000   0.000000000  -0.200000000
         10   0.000000000   0.200000000  -0.200000000
         11   0.000000000  -0.200000000  -0.200000000
         12   0.200000000   0.000000000  -0.200000000

     Diagonalizing the dynamical matrix

     q = (    0.000000000  -0.200000000   0.200000000 ) 

 **************************************************************************
     freq (    1) =       0.948702 [THz] =      31.645285 [cm-1]
     freq (    2) =       3.331066 [THz] =     111.112414 [cm-1]
     freq (    3) =       5.247761 [THz] =     175.046475 [cm-1]
 **************************************************************************

     Mode symmetry, C_2v (mm2)  point group:

     freq (  1 -  1) =         31.6  [cm-1]   --> B_1  D_3  S_3      
     freq (  2 -  2) =        111.1  [cm-1]   --> B_2  D_4  S_4      
     freq (  3 -  3) =        175.0  [cm-1]   --> A_1  D_1  S_1      

     Calculation of q =    0.0000000  -0.3000000   0.3000000
 
     G-vector sticks info
     --------------------
     sticks:   dense  smooth     PW     G-vecs:    dense   smooth      PW
     Sum        1175     599    205                25699     9189    1865
 


     bravais-lattice index     =            3
     lattice parameter (alat)  =       6.6212  a.u.
     unit-cell volume          =     145.1386 (a.u.)^3
     number of atoms/cell      =            1
     number of atomic types    =            1
     number of electrons       =         3.00
     number of Kohn-Sham states=            6
     kinetic-energy cutoff     =      60.0000  Ry
     charge density cutoff     =     480.0000  Ry
     Exchange-correlation      =  SLA  PW   PBX  PBC ( 1  4  3  4 0 0)

     celldm(1)=   6.621214  celldm(2)=   0.000000  celldm(3)=   0.000000
     celldm(4)=   0.000000  celldm(5)=   0.000000  celldm(6)=   0.000000

     crystal axes: (cart. coord. in units of alat)
               a(1) = (   0.500000   0.500000   0.500000 )  
               a(2) = (  -0.500000   0.500000   0.500000 )  
               a(3) = (  -0.500000  -0.500000   0.500000 )  

     reciprocal axes: (cart. coord. in units 2 pi/alat)
               b(1) = (  1.000000  0.000000  1.000000 )  
               b(2) = ( -1.000000  1.000000  0.000000 )  
               b(3) = (  0.000000 -1.000000  1.000000 )  


     PseudoPot. # 1 for Li read from file:
     ../Li.pbe-s-gbrv14.UPF
     MD5 check sum: 7ca33c4f951f001da2db5c8738379802
     Pseudo is Ultrasoft, Zval =  3.0
     Generated by new atomic code, or converted to UPF format
     Using radial grid of  751 points,  5 beta functions with: 
                l(1) =   0
                l(2) =   0
                l(3) =   0
                l(4) =   1
                l(5) =   1
     Q(r) pseudized with 10 coefficients,  rinner =    1.150   1.150   1.150


     atomic species   valence    mass     pseudopotential
        Li             3.00     6.94100     Li( 1.00)

     48 Sym. Ops., with inversion, found



   Cartesian axes

     site n.     atom                  positions (alat units)
         1           Li  tau(   1) = (   0.0000000   0.0000000   0.0000000  )

     number of k points= 11760  Marzari-Vanderbilt smearing, width (Ry)=  0.0200

     Number of k-points >= 100: set verbosity='high' to print them.

     Dense  grid:    25699 G-vectors     FFT dimensions: (  40,  40,  40)

     Smooth grid:     9189 G-vectors     FFT dimensions: (  30,  30,  30)

     Largest allocated arrays     est. size (Mb)     dimensions
        Kohn-Sham Wavefunctions         0.11 Mb     (    1157,    6)
        NL pseudopotentials             0.16 Mb     (    1157,    9)
        Each V/rho on FFT grid          0.98 Mb     (   64000)
        Each G-vector array             0.20 Mb     (   25699)
        G-vector shells                 0.00 Mb     (     246)
     Largest temporary arrays     est. size (Mb)     dimensions
        Auxiliary wavefunctions         0.42 Mb     (    1157,   24)
        Each subspace H/S matrix        0.01 Mb     (      24,   24)
        Each <psi_i|beta_j> matrix      0.00 Mb     (       9,    6)

     The potential is recalculated from file :
     ./tmp/_ph0/li-bcc.save/charge-density.dat

     Starting wfc are    5 atomic +    1 random wfc

     Band Structure Calculation
     Davidson diagonalization with overlap

     ethr =  3.33E-10,  avg # of iterations = 17.4

     total cpu time spent up to now is       29.9 secs

     End of band structure calculation

     Number of k-points >= 100: set verbosity='high' to print the bands.

     the Fermi energy is     0.7710 ev

                                                                                

     bravais-lattice index     =            3
     lattice parameter (alat)  =       6.6212  a.u.
     unit-cell volume          =     145.1386 (a.u.)^3
     number of atoms/cell      =            1
     number of atomic types    =            1
     kinetic-energy cut-off    =      60.0000  Ry
     charge density cut-off    =     480.0000  Ry
     convergence threshold     =      1.0E-16
     beta                      =       0.7000
     number of iterations used =            4
     Exchange-correlation      =  SLA  PW   PBX  PBC ( 1  4  3  4 0 0)


     celldm(1)=    6.62121  celldm(2)=    0.00000  celldm(3)=    0.00000
     celldm(4)=    0.00000  celldm(5)=    0.00000  celldm(6)=    0.00000

     crystal axes: (cart. coord. in units of alat)
               a(1) = (  0.5000  0.5000  0.5000 )  
               a(2) = ( -0.5000  0.5000  0.5000 )  
               a(3) = ( -0.5000 -0.5000  0.5000 )  

     reciprocal axes: (cart. coord. in units 2 pi/alat)
               b(1) = (  1.0000  0.0000  1.0000 )  
               b(2) = ( -1.0000  1.0000  0.0000 )  
               b(3) = (  0.0000 -1.0000  1.0000 )  


     Atoms inside the unit cell: 

     Cartesian axes

     site n.  atom      mass           positions (alat units)
        1     Li   6.9410   tau(    1) = (    0.00000    0.00000    0.00000  )

     Computing dynamical matrix for 
                    q = (   0.0000000  -0.3000000   0.3000000 )
 
      4 Sym.Ops. (no q -> -q+G )


     G cutoff =  533.0363  (  25699 G-vectors)     FFT grid: ( 40, 40, 40)
     G cutoff =  266.5181  (   9189 G-vectors)  smooth grid: ( 30, 30, 30)

     number of k points= 11760  Marzari-Vanderbilt smearing, width (Ry)=  0.0200

     PseudoPot. # 1 for Li read from file:
     ../Li.pbe-s-gbrv14.UPF
     MD5 check sum: 7ca33c4f951f001da2db5c8738379802
     Pseudo is Ultrasoft, Zval =  3.0
     Generated by new atomic code, or converted to UPF format
     Using radial grid of  751 points,  5 beta functions with: 
                l(1) =   0
                l(2) =   0
                l(3) =   0
                l(4) =   1
                l(5) =   1
     Q(r) pseudized with 10 coefficients,  rinner =    1.150   1.150   1.150


     Mode symmetry, C_2v (mm2)  point group:


     Atomic displacements:
     There are   3 irreducible representations

     Representation     1      1 modes -A_1  D_1  S_1  To be done

     Representation     2      1 modes -B_1  D_3  S_3  To be done

     Representation     3      1 modes -B_2  D_4  S_4  To be done



     Alpha used in Ewald sum =   2.8000
     PHONON       :  4m31.69s CPU     6m 6.91s WALL



     Representation #  1 mode #   1

     Self-consistent Calculation

      iter #   1 total cpu time :   367.3 secs   av.it.:   6.3
      thresh= 1.000E-02 alpha_mix =  0.700 |ddv_scf|^2 =  2.288E-04

      iter #   2 total cpu time :   372.0 secs   av.it.:   8.0
      thresh= 1.513E-03 alpha_mix =  0.700 |ddv_scf|^2 =  2.954E-03

      iter #   3 total cpu time :   376.8 secs   av.it.:   6.4
      thresh= 5.435E-03 alpha_mix =  0.700 |ddv_scf|^2 =  7.757E-08

      iter #   4 total cpu time :   382.0 secs   av.it.:   8.8
      thresh= 2.785E-05 alpha_mix =  0.700 |ddv_scf|^2 =  2.602E-09

      iter #   5 total cpu time :   390.6 secs   av.it.:   8.8
      thresh= 5.101E-06 alpha_mix =  0.700 |ddv_scf|^2 =  1.260E-11

      iter #   6 total cpu time :   393.9 secs   av.it.:   8.9
      thresh= 3.550E-07 alpha_mix =  0.700 |ddv_scf|^2 =  3.278E-13

      iter #   7 total cpu time :   396.9 secs   av.it.:   9.3
      thresh= 5.725E-08 alpha_mix =  0.700 |ddv_scf|^2 =  1.031E-15

      iter #   8 total cpu time :   397.7 secs   av.it.:   9.5
      thresh= 3.211E-09 alpha_mix =  0.700 |ddv_scf|^2 =  2.528E-15

      iter #   9 total cpu time :   398.1 secs   av.it.:   7.2
      thresh= 5.028E-09 alpha_mix =  0.700 |ddv_scf|^2 =  3.750E-16

      iter #  10 total cpu time :   399.3 secs   av.it.:   8.4
      thresh= 1.937E-09 alpha_mix =  0.700 |ddv_scf|^2 =  4.886E-17

     End of self-consistent calculation

     Convergence has been achieved 


     Representation #  2 mode #   2

     Self-consistent Calculation

      iter #   1 total cpu time :   406.0 secs   av.it.:   5.4
      thresh= 1.000E-02 alpha_mix =  0.700 |ddv_scf|^2 =  9.791E-07

      iter #   2 total cpu time :   406.6 secs   av.it.:   8.5
      thresh= 9.895E-05 alpha_mix =  0.700 |ddv_scf|^2 =  5.958E-08

      iter #   3 total cpu time :   407.3 secs   av.it.:   9.0
      thresh= 2.441E-05 alpha_mix =  0.700 |ddv_scf|^2 =  5.888E-10

      iter #   4 total cpu time :   407.8 secs   av.it.:   8.3
      thresh= 2.426E-06 alpha_mix =  0.700 |ddv_scf|^2 =  9.431E-13

      iter #   5 total cpu time :   409.8 secs   av.it.:   8.5
      thresh= 9.711E-08 alpha_mix =  0.700 |ddv_scf|^2 =  1.680E-14

      iter #   6 total cpu time :   410.8 secs   av.it.:   7.4
      thresh= 1.296E-08 alpha_mix =  0.700 |ddv_scf|^2 =  1.020E-17

     End of self-consistent calculation

     Convergence has been achieved 


     Representation #  3 mode #   3

     Self-consistent Calculation

      iter #   1 total cpu time :   412.4 secs   av.it.:   5.6
      thresh= 1.000E-02 alpha_mix =  0.700 |ddv_scf|^2 =  1.054E-06

      iter #   2 total cpu time :   412.9 secs   av.it.:   8.5
      thresh= 1.027E-04 alpha_mix =  0.700 |ddv_scf|^2 =  6.356E-08

      iter #   3 total cpu time :   414.5 secs   av.it.:   8.9
      thresh= 2.521E-05 alpha_mix =  0.700 |ddv_scf|^2 =  1.075E-09

      iter #   4 total cpu time :   417.4 secs   av.it.:   8.2
      thresh= 3.279E-06 alpha_mix =  0.700 |ddv_scf|^2 =  1.282E-12

      iter #   5 total cpu time :   418.0 secs   av.it.:   8.5
      thresh= 1.132E-07 alpha_mix =  0.700 |ddv_scf|^2 =  2.180E-14

      iter #   6 total cpu time :   418.6 secs   av.it.:   7.6
      thresh= 1.477E-08 alpha_mix =  0.700 |ddv_scf|^2 =  6.206E-18

     End of self-consistent calculation

     Convergence has been achieved 
 
     Number of q in the star =   12
     List of q in the star:
          1   0.000000000  -0.300000000   0.300000000
          2  -0.300000000   0.000000000   0.300000000
          3   0.300000000   0.000000000   0.300000000
          4   0.000000000   0.300000000   0.300000000
          5   0.300000000   0.300000000   0.000000000
          6  -0.300000000   0.300000000   0.000000000
          7   0.300000000  -0.300000000   0.000000000
          8  -0.300000000  -0.300000000   0.000000000
          9  -0.300000000   0.000000000  -0.300000000
         10   0.000000000   0.300000000  -0.300000000
         11   0.000000000  -0.300000000  -0.300000000
         12   0.300000000   0.000000000  -0.300000000

     Diagonalizing the dynamical matrix

     q = (    0.000000000  -0.300000000   0.300000000 ) 

 **************************************************************************
     freq (    1) =       1.302632 [THz] =      43.451123 [cm-1]
     freq (    2) =       4.557018 [THz] =     152.005770 [cm-1]
     freq (    3) =       7.325815 [THz] =     244.362881 [cm-1]
 **************************************************************************

     Mode symmetry, C_2v (mm2)  point group:

     freq (  1 -  1) =         43.5  [cm-1]   --> B_1  D_3  S_3      
     freq (  2 -  2) =        152.0  [cm-1]   --> B_2  D_4  S_4      
     freq (  3 -  3) =        244.4  [cm-1]   --> A_1  D_1  S_1      

     Calculation of q =    0.0000000  -0.4000000   0.4000000
 
     G-vector sticks info
     --------------------
     sticks:   dense  smooth     PW     G-vecs:    dense   smooth      PW
     Sum        1175     599    205                25699     9189    1865
 


     bravais-lattice index     =            3
     lattice parameter (alat)  =       6.6212  a.u.
     unit-cell volume          =     145.1386 (a.u.)^3
     number of atoms/cell      =            1
     number of atomic types    =            1
     number of electrons       =         3.00
     number of Kohn-Sham states=            6
     kinetic-energy cutoff     =      60.0000  Ry
     charge density cutoff     =     480.0000  Ry
     Exchange-correlation      =  SLA  PW   PBX  PBC ( 1  4  3  4 0 0)

     celldm(1)=   6.621214  celldm(2)=   0.000000  celldm(3)=   0.000000
     celldm(4)=   0.000000  celldm(5)=   0.000000  celldm(6)=   0.000000

     crystal axes: (cart. coord. in units of alat)
               a(1) = (   0.500000   0.500000   0.500000 )  
               a(2) = (  -0.500000   0.500000   0.500000 )  
               a(3) = (  -0.500000  -0.500000   0.500000 )  

     reciprocal axes: (cart. coord. in units 2 pi/alat)
               b(1) = (  1.000000  0.000000  1.000000 )  
               b(2) = ( -1.000000  1.000000  0.000000 )  
               b(3) = (  0.000000 -1.000000  1.000000 )  


     PseudoPot. # 1 for Li read from file:
     ../Li.pbe-s-gbrv14.UPF
     MD5 check sum: 7ca33c4f951f001da2db5c8738379802
     Pseudo is Ultrasoft, Zval =  3.0
     Generated by new atomic code, or converted to UPF format
     Using radial grid of  751 points,  5 beta functions with: 
                l(1) =   0
                l(2) =   0
                l(3) =   0
                l(4) =   1
                l(5) =   1
     Q(r) pseudized with 10 coefficients,  rinner =    1.150   1.150   1.150


     atomic species   valence    mass     pseudopotential
        Li             3.00     6.94100     Li( 1.00)

     48 Sym. Ops., with inversion, found



   Cartesian axes

     site n.     atom                  positions (alat units)
         1           Li  tau(   1) = (   0.0000000   0.0000000   0.0000000  )

     number of k points= 11760  Marzari-Vanderbilt smearing, width (Ry)=  0.0200

     Number of k-points >= 100: set verbosity='high' to print them.

     Dense  grid:    25699 G-vectors     FFT dimensions: (  40,  40,  40)

     Smooth grid:     9189 G-vectors     FFT dimensions: (  30,  30,  30)

     Largest allocated arrays     est. size (Mb)     dimensions
        Kohn-Sham Wavefunctions         0.11 Mb     (    1157,    6)
        NL pseudopotentials             0.16 Mb     (    1157,    9)
        Each V/rho on FFT grid          0.98 Mb     (   64000)
        Each G-vector array             0.20 Mb     (   25699)
        G-vector shells                 0.00 Mb     (     246)
     Largest temporary arrays     est. size (Mb)     dimensions
        Auxiliary wavefunctions         0.42 Mb     (    1157,   24)
        Each subspace H/S matrix        0.01 Mb     (      24,   24)
        Each <psi_i|beta_j> matrix      0.00 Mb     (       9,    6)

     The potential is recalculated from file :
     ./tmp/_ph0/li-bcc.save/charge-density.dat

     Starting wfc are    5 atomic +    1 random wfc

     Band Structure Calculation
     Davidson diagonalization with overlap

     ethr =  3.33E-10,  avg # of iterations = 17.4

     total cpu time spent up to now is       40.9 secs

     End of band structure calculation

     Number of k-points >= 100: set verbosity='high' to print the bands.

     the Fermi energy is     0.7710 ev

                                                                                

     bravais-lattice index     =            3
     lattice parameter (alat)  =       6.6212  a.u.
     unit-cell volume          =     145.1386 (a.u.)^3
     number of atoms/cell      =            1
     number of atomic types    =            1
     kinetic-energy cut-off    =      60.0000  Ry
     charge density cut-off    =     480.0000  Ry
     convergence threshold     =      1.0E-16
     beta                      =       0.7000
     number of iterations used =            4
     Exchange-correlation      =  SLA  PW   PBX  PBC ( 1  4  3  4 0 0)


     celldm(1)=    6.62121  celldm(2)=    0.00000  celldm(3)=    0.00000
     celldm(4)=    0.00000  celldm(5)=    0.00000  celldm(6)=    0.00000

     crystal axes: (cart. coord. in units of alat)
               a(1) = (  0.5000  0.5000  0.5000 )  
               a(2) = ( -0.5000  0.5000  0.5000 )  
               a(3) = ( -0.5000 -0.5000  0.5000 )  

     reciprocal axes: (cart. coord. in units 2 pi/alat)
               b(1) = (  1.0000  0.0000  1.0000 )  
               b(2) = ( -1.0000  1.0000  0.0000 )  
               b(3) = (  0.0000 -1.0000  1.0000 )  


     Atoms inside the unit cell: 

     Cartesian axes

     site n.  atom      mass           positions (alat units)
        1     Li   6.9410   tau(    1) = (    0.00000    0.00000    0.00000  )

     Computing dynamical matrix for 
                    q = (   0.0000000  -0.4000000   0.4000000 )
 
      4 Sym.Ops. (no q -> -q+G )


     G cutoff =  533.0363  (  25699 G-vectors)     FFT grid: ( 40, 40, 40)
     G cutoff =  266.5181  (   9189 G-vectors)  smooth grid: ( 30, 30, 30)

     number of k points= 11760  Marzari-Vanderbilt smearing, width (Ry)=  0.0200

     PseudoPot. # 1 for Li read from file:
     ../Li.pbe-s-gbrv14.UPF
     MD5 check sum: 7ca33c4f951f001da2db5c8738379802
     Pseudo is Ultrasoft, Zval =  3.0
     Generated by new atomic code, or converted to UPF format
     Using radial grid of  751 points,  5 beta functions with: 
                l(1) =   0
                l(2) =   0
                l(3) =   0
                l(4) =   1
                l(5) =   1
     Q(r) pseudized with 10 coefficients,  rinner =    1.150   1.150   1.150


     Mode symmetry, C_2v (mm2)  point group:


     Atomic displacements:
     There are   3 irreducible representations

     Representation     1      1 modes -A_1  D_1  S_1  To be done

     Representation     2      1 modes -B_1  D_3  S_3  To be done

     Representation     3      1 modes -B_2  D_4  S_4  To be done



     Alpha used in Ewald sum =   2.8000
     PHONON       :  5m33.83s CPU     7m24.76s WALL



     Representation #  1 mode #   1

     Self-consistent Calculation

      iter #   1 total cpu time :   445.2 secs   av.it.:   6.3
      thresh= 1.000E-02 alpha_mix =  0.700 |ddv_scf|^2 =  3.411E-05

      iter #   2 total cpu time :   454.3 secs   av.it.:   8.5
      thresh= 5.841E-04 alpha_mix =  0.700 |ddv_scf|^2 =  7.528E-05

      iter #   3 total cpu time :   464.1 secs   av.it.:   7.2
      thresh= 8.676E-04 alpha_mix =  0.700 |ddv_scf|^2 =  6.201E-08

      iter #   4 total cpu time :   473.0 secs   av.it.:   8.7
      thresh= 2.490E-05 alpha_mix =  0.700 |ddv_scf|^2 =  3.446E-09

      iter #   5 total cpu time :   486.5 secs   av.it.:   8.8
      thresh= 5.871E-06 alpha_mix =  0.700 |ddv_scf|^2 =  4.121E-12

      iter #   6 total cpu time :   497.1 secs   av.it.:   8.9
      thresh= 2.030E-07 alpha_mix =  0.700 |ddv_scf|^2 =  1.984E-13

      iter #   7 total cpu time :   503.2 secs   av.it.:   8.9
      thresh= 4.454E-08 alpha_mix =  0.700 |ddv_scf|^2 =  1.153E-15

      iter #   8 total cpu time :   509.7 secs   av.it.:   9.4
      thresh= 3.396E-09 alpha_mix =  0.700 |ddv_scf|^2 =  2.350E-16

      iter #   9 total cpu time :   512.6 secs   av.it.:   8.0
      thresh= 1.533E-09 alpha_mix =  0.700 |ddv_scf|^2 =  3.861E-17

     End of self-consistent calculation

     Convergence has been achieved 


     Representation #  2 mode #   2

     Self-consistent Calculation

      iter #   1 total cpu time :   521.3 secs   av.it.:   5.5
      thresh= 1.000E-02 alpha_mix =  0.700 |ddv_scf|^2 =  9.905E-07

      iter #   2 total cpu time :   527.8 secs   av.it.:   8.5
      thresh= 9.952E-05 alpha_mix =  0.700 |ddv_scf|^2 =  5.982E-08

      iter #   3 total cpu time :   531.9 secs   av.it.:   9.0
      thresh= 2.446E-05 alpha_mix =  0.700 |ddv_scf|^2 =  6.829E-10

      iter #   4 total cpu time :   533.6 secs   av.it.:   8.1
      thresh= 2.613E-06 alpha_mix =  0.700 |ddv_scf|^2 =  9.104E-13

      iter #   5 total cpu time :   539.8 secs   av.it.:   8.5
      thresh= 9.542E-08 alpha_mix =  0.700 |ddv_scf|^2 =  1.787E-14

      iter #   6 total cpu time :   545.3 secs   av.it.:   7.6
      thresh= 1.337E-08 alpha_mix =  0.700 |ddv_scf|^2 =  1.107E-17

     End of self-consistent calculation

     Convergence has been achieved 


     Representation #  3 mode #   3

     Self-consistent Calculation

      iter #   1 total cpu time :   548.1 secs   av.it.:   5.7
      thresh= 1.000E-02 alpha_mix =  0.700 |ddv_scf|^2 =  1.096E-06

      iter #   2 total cpu time :   552.4 secs   av.it.:   8.5
      thresh= 1.047E-04 alpha_mix =  0.700 |ddv_scf|^2 =  6.553E-08

      iter #   3 total cpu time :   558.1 secs   av.it.:   8.9
      thresh= 2.560E-05 alpha_mix =  0.700 |ddv_scf|^2 =  1.407E-09

      iter #   4 total cpu time :   562.7 secs   av.it.:   8.1
      thresh= 3.752E-06 alpha_mix =  0.700 |ddv_scf|^2 =  1.438E-12

      iter #   5 total cpu time :   564.8 secs   av.it.:   8.4
      thresh= 1.199E-07 alpha_mix =  0.700 |ddv_scf|^2 =  2.136E-14

      iter #   6 total cpu time :   569.3 secs   av.it.:   7.8
      thresh= 1.462E-08 alpha_mix =  0.700 |ddv_scf|^2 =  5.025E-18

     End of self-consistent calculation

     Convergence has been achieved 
 
     Number of q in the star =   12
     List of q in the star:
          1   0.000000000  -0.400000000   0.400000000
          2  -0.400000000   0.000000000   0.400000000
          3   0.400000000   0.000000000   0.400000000
          4   0.000000000   0.400000000   0.400000000
          5   0.400000000   0.400000000   0.000000000
          6  -0.400000000   0.400000000   0.000000000
          7   0.400000000  -0.400000000   0.000000000
          8  -0.400000000  -0.400000000   0.000000000
          9  -0.400000000   0.000000000  -0.400000000
         10   0.000000000   0.400000000  -0.400000000
         11   0.000000000  -0.400000000  -0.400000000
         12   0.400000000   0.000000000  -0.400000000

     Diagonalizing the dynamical matrix

     q = (    0.000000000  -0.400000000   0.400000000 ) 

 **************************************************************************
     freq (    1) =       1.564464 [THz] =      52.184915 [cm-1]
     freq (    2) =       5.349120 [THz] =     178.427421 [cm-1]
     freq (    3) =       8.517931 [THz] =     284.127609 [cm-1]
 **************************************************************************

     Mode symmetry, C_2v (mm2)  point group:

     freq (  1 -  1) =         52.2  [cm-1]   --> B_1  D_3  S_3      
     freq (  2 -  2) =        178.4  [cm-1]   --> B_2  D_4  S_4      
     freq (  3 -  3) =        284.1  [cm-1]   --> A_1  D_1  S_1      

     Calculation of q =    0.0000000   0.5000000  -0.5000000
 
     G-vector sticks info
     --------------------
     sticks:   dense  smooth     PW     G-vecs:    dense   smooth      PW
     Sum        1175     599    217                25699     9189    1985
 


     bravais-lattice index     =            3
     lattice parameter (alat)  =       6.6212  a.u.
     unit-cell volume          =     145.1386 (a.u.)^3
     number of atoms/cell      =            1
     number of atomic types    =            1
     number of electrons       =         3.00
     number of Kohn-Sham states=            6
     kinetic-energy cutoff     =      60.0000  Ry
     charge density cutoff     =     480.0000  Ry
     Exchange-correlation      =  SLA  PW   PBX  PBC ( 1  4  3  4 0 0)

     celldm(1)=   6.621214  celldm(2)=   0.000000  celldm(3)=   0.000000
     celldm(4)=   0.000000  celldm(5)=   0.000000  celldm(6)=   0.000000

     crystal axes: (cart. coord. in units of alat)
               a(1) = (   0.500000   0.500000   0.500000 )  
               a(2) = (  -0.500000   0.500000   0.500000 )  
               a(3) = (  -0.500000  -0.500000   0.500000 )  

     reciprocal axes: (cart. coord. in units 2 pi/alat)
               b(1) = (  1.000000  0.000000  1.000000 )  
               b(2) = ( -1.000000  1.000000  0.000000 )  
               b(3) = (  0.000000 -1.000000  1.000000 )  


     PseudoPot. # 1 for Li read from file:
     ../Li.pbe-s-gbrv14.UPF
     MD5 check sum: 7ca33c4f951f001da2db5c8738379802
     Pseudo is Ultrasoft, Zval =  3.0
     Generated by new atomic code, or converted to UPF format
     Using radial grid of  751 points,  5 beta functions with: 
                l(1) =   0
                l(2) =   0
                l(3) =   0
                l(4) =   1
                l(5) =   1
     Q(r) pseudized with 10 coefficients,  rinner =    1.150   1.150   1.150


     atomic species   valence    mass     pseudopotential
        Li             3.00     6.94100     Li( 1.00)

     48 Sym. Ops., with inversion, found



   Cartesian axes

     site n.     atom                  positions (alat units)
         1           Li  tau(   1) = (   0.0000000   0.0000000   0.0000000  )

     number of k points=  6090  Marzari-Vanderbilt smearing, width (Ry)=  0.0200

     Number of k-points >= 100: set verbosity='high' to print them.

     Dense  grid:    25699 G-vectors     FFT dimensions: (  40,  40,  40)

     Smooth grid:     9189 G-vectors     FFT dimensions: (  30,  30,  30)

     Largest allocated arrays     est. size (Mb)     dimensions
        Kohn-Sham Wavefunctions         0.11 Mb     (    1157,    6)
        NL pseudopotentials             0.16 Mb     (    1157,    9)
        Each V/rho on FFT grid          0.98 Mb     (   64000)
        Each G-vector array             0.20 Mb     (   25699)
        G-vector shells                 0.00 Mb     (     246)
     Largest temporary arrays     est. size (Mb)     dimensions
        Auxiliary wavefunctions         0.42 Mb     (    1157,   24)
        Each subspace H/S matrix        0.01 Mb     (      24,   24)
        Each <psi_i|beta_j> matrix      0.00 Mb     (       9,    6)

     The potential is recalculated from file :
     ./tmp/_ph0/li-bcc.save/charge-density.dat

     Starting wfc are    5 atomic +    1 random wfc

     Band Structure Calculation
     Davidson diagonalization with overlap

     ethr =  3.33E-10,  avg # of iterations = 17.4

     total cpu time spent up to now is       54.2 secs

     End of band structure calculation

     Number of k-points >= 100: set verbosity='high' to print the bands.

     the Fermi energy is     0.7710 ev

                                                                                

     bravais-lattice index     =            3
     lattice parameter (alat)  =       6.6212  a.u.
     unit-cell volume          =     145.1386 (a.u.)^3
     number of atoms/cell      =            1
     number of atomic types    =            1
     kinetic-energy cut-off    =      60.0000  Ry
     charge density cut-off    =     480.0000  Ry
     convergence threshold     =      1.0E-16
     beta                      =       0.7000
     number of iterations used =            4
     Exchange-correlation      =  SLA  PW   PBX  PBC ( 1  4  3  4 0 0)


     celldm(1)=    6.62121  celldm(2)=    0.00000  celldm(3)=    0.00000
     celldm(4)=    0.00000  celldm(5)=    0.00000  celldm(6)=    0.00000

     crystal axes: (cart. coord. in units of alat)
               a(1) = (  0.5000  0.5000  0.5000 )  
               a(2) = ( -0.5000  0.5000  0.5000 )  
               a(3) = ( -0.5000 -0.5000  0.5000 )  

     reciprocal axes: (cart. coord. in units 2 pi/alat)
               b(1) = (  1.0000  0.0000  1.0000 )  
               b(2) = ( -1.0000  1.0000  0.0000 )  
               b(3) = (  0.0000 -1.0000  1.0000 )  


     Atoms inside the unit cell: 

     Cartesian axes

     site n.  atom      mass           positions (alat units)
        1     Li   6.9410   tau(    1) = (    0.00000    0.00000    0.00000  )

     Computing dynamical matrix for 
                    q = (   0.0000000   0.5000000  -0.5000000 )
 
      9 Sym.Ops. (with q -> -q+G )


     G cutoff =  533.0363  (  25699 G-vectors)     FFT grid: ( 40, 40, 40)
     G cutoff =  266.5181  (   9189 G-vectors)  smooth grid: ( 30, 30, 30)

     number of k points=  6090  Marzari-Vanderbilt smearing, width (Ry)=  0.0200

     PseudoPot. # 1 for Li read from file:
     ../Li.pbe-s-gbrv14.UPF
     MD5 check sum: 7ca33c4f951f001da2db5c8738379802
     Pseudo is Ultrasoft, Zval =  3.0
     Generated by new atomic code, or converted to UPF format
     Using radial grid of  751 points,  5 beta functions with: 
                l(1) =   0
                l(2) =   0
                l(3) =   0
                l(4) =   1
                l(5) =   1
     Q(r) pseudized with 10 coefficients,  rinner =    1.150   1.150   1.150


     Mode symmetry, D_2h (mmm)  point group:


     Atomic displacements:
     There are   3 irreducible representations

     Representation     1      1 modes -B_1u  To be done

     Representation     2      1 modes -B_2u  To be done

     Representation     3      1 modes -B_3u  To be done



     Alpha used in Ewald sum =   2.8000
     PHONON       :  7m41.24s CPU    10m 4.49s WALL



     Representation #  1 mode #   1

     Self-consistent Calculation

      iter #   1 total cpu time :   604.8 secs   av.it.:   5.8
      thresh= 1.000E-02 alpha_mix =  0.700 |ddv_scf|^2 =  1.113E-06

      iter #   2 total cpu time :   613.5 secs   av.it.:   8.5
      thresh= 1.055E-04 alpha_mix =  0.700 |ddv_scf|^2 =  6.631E-08

      iter #   3 total cpu time :   617.3 secs   av.it.:   8.8
      thresh= 2.575E-05 alpha_mix =  0.700 |ddv_scf|^2 =  1.546E-09

      iter #   4 total cpu time :   621.7 secs   av.it.:   8.0
      thresh= 3.932E-06 alpha_mix =  0.700 |ddv_scf|^2 =  1.507E-12

      iter #   5 total cpu time :   623.7 secs   av.it.:   8.4
      thresh= 1.228E-07 alpha_mix =  0.700 |ddv_scf|^2 =  2.133E-14

      iter #   6 total cpu time :   624.2 secs   av.it.:   7.9
      thresh= 1.460E-08 alpha_mix =  0.700 |ddv_scf|^2 =  4.393E-18

     End of self-consistent calculation

     Convergence has been achieved 


     Representation #  2 mode #   2

     Self-consistent Calculation

      iter #   1 total cpu time :   628.1 secs   av.it.:   5.5
      thresh= 1.000E-02 alpha_mix =  0.700 |ddv_scf|^2 =  9.951E-07

      iter #   2 total cpu time :   631.6 secs   av.it.:   8.6
      thresh= 9.976E-05 alpha_mix =  0.700 |ddv_scf|^2 =  5.991E-08

      iter #   3 total cpu time :   633.1 secs   av.it.:   9.0
      thresh= 2.448E-05 alpha_mix =  0.700 |ddv_scf|^2 =  7.233E-10

      iter #   4 total cpu time :   633.8 secs   av.it.:   8.0
      thresh= 2.689E-06 alpha_mix =  0.700 |ddv_scf|^2 =  8.935E-13

      iter #   5 total cpu time :   634.2 secs   av.it.:   8.4
      thresh= 9.453E-08 alpha_mix =  0.700 |ddv_scf|^2 =  1.805E-14

      iter #   6 total cpu time :   634.9 secs   av.it.:   7.6
      thresh= 1.344E-08 alpha_mix =  0.700 |ddv_scf|^2 =  1.102E-17

     End of self-consistent calculation

     Convergence has been achieved 


     Representation #  3 mode #   3

     Self-consistent Calculation

      iter #   1 total cpu time :   643.3 secs   av.it.:   6.2
      thresh= 1.000E-02 alpha_mix =  0.700 |ddv_scf|^2 =  1.338E-05

      iter #   2 total cpu time :   645.7 secs   av.it.:   8.4
      thresh= 3.657E-04 alpha_mix =  0.700 |ddv_scf|^2 =  4.895E-06

      iter #   3 total cpu time :   647.5 secs   av.it.:   7.8
      thresh= 2.213E-04 alpha_mix =  0.700 |ddv_scf|^2 =  1.843E-08

      iter #   4 total cpu time :   649.3 secs   av.it.:   8.7
      thresh= 1.358E-05 alpha_mix =  0.700 |ddv_scf|^2 =  9.998E-12

      iter #   5 total cpu time :   652.8 secs   av.it.:   8.4
      thresh= 3.162E-07 alpha_mix =  0.700 |ddv_scf|^2 =  5.781E-13

      iter #   6 total cpu time :   658.4 secs   av.it.:   8.5
      thresh= 7.604E-08 alpha_mix =  0.700 |ddv_scf|^2 =  3.704E-15

      iter #   7 total cpu time :   659.9 secs   av.it.:   8.7
      thresh= 6.086E-09 alpha_mix =  0.700 |ddv_scf|^2 =  4.328E-18

     End of self-consistent calculation

     Convergence has been achieved 
 
     Number of q in the star =    6
     List of q in the star:
          1   0.000000000   0.500000000  -0.500000000
          2  -0.500000000  -0.500000000   0.000000000
          3   0.500000000  -0.500000000   0.000000000
          4   0.500000000   0.000000000   0.500000000
          5   0.500000000   0.000000000  -0.500000000
          6   0.000000000  -0.500000000  -0.500000000

     Diagonalizing the dynamical matrix

     q = (    0.000000000   0.500000000  -0.500000000 ) 

 **************************************************************************
     freq (    1) =       1.667003 [THz] =      55.605232 [cm-1]
     freq (    2) =       5.626313 [THz] =     187.673607 [cm-1]
     freq (    3) =       8.904916 [THz] =     297.036017 [cm-1]
 **************************************************************************

     Mode symmetry, D_2h (mmm)  point group:

     freq (  1 -  1) =         55.6  [cm-1]   --> B_2u               
     freq (  2 -  2) =        187.7  [cm-1]   --> B_1u               
     freq (  3 -  3) =        297.0  [cm-1]   --> B_3u               

     Calculation of q =   -0.1000000  -0.1000000   0.2000000
 
     G-vector sticks info
     --------------------
     sticks:   dense  smooth     PW     G-vecs:    dense   smooth      PW
     Sum        1175     599    197                25699     9189    1721
 


     bravais-lattice index     =            3
     lattice parameter (alat)  =       6.6212  a.u.
     unit-cell volume          =     145.1386 (a.u.)^3
     number of atoms/cell      =            1
     number of atomic types    =            1
     number of electrons       =         3.00
     number of Kohn-Sham states=            6
     kinetic-energy cutoff     =      60.0000  Ry
     charge density cutoff     =     480.0000  Ry
     Exchange-correlation      =  SLA  PW   PBX  PBC ( 1  4  3  4 0 0)

     celldm(1)=   6.621214  celldm(2)=   0.000000  celldm(3)=   0.000000
     celldm(4)=   0.000000  celldm(5)=   0.000000  celldm(6)=   0.000000

     crystal axes: (cart. coord. in units of alat)
               a(1) = (   0.500000   0.500000   0.500000 )  
               a(2) = (  -0.500000   0.500000   0.500000 )  
               a(3) = (  -0.500000  -0.500000   0.500000 )  

     reciprocal axes: (cart. coord. in units 2 pi/alat)
               b(1) = (  1.000000  0.000000  1.000000 )  
               b(2) = ( -1.000000  1.000000  0.000000 )  
               b(3) = (  0.000000 -1.000000  1.000000 )  


     PseudoPot. # 1 for Li read from file:
     ../Li.pbe-s-gbrv14.UPF
     MD5 check sum: 7ca33c4f951f001da2db5c8738379802
     Pseudo is Ultrasoft, Zval =  3.0
     Generated by new atomic code, or converted to UPF format
     Using radial grid of  751 points,  5 beta functions with: 
                l(1) =   0
                l(2) =   0
                l(3) =   0
                l(4) =   1
                l(5) =   1
     Q(r) pseudized with 10 coefficients,  rinner =    1.150   1.150   1.150


     atomic species   valence    mass     pseudopotential
        Li             3.00     6.94100     Li( 1.00)

     48 Sym. Ops., with inversion, found



   Cartesian axes

     site n.     atom                  positions (alat units)
         1           Li  tau(   1) = (   0.0000000   0.0000000   0.0000000  )

     number of k points= 22736  Marzari-Vanderbilt smearing, width (Ry)=  0.0200

     Number of k-points >= 100: set verbosity='high' to print them.

     Dense  grid:    25699 G-vectors     FFT dimensions: (  40,  40,  40)

     Smooth grid:     9189 G-vectors     FFT dimensions: (  30,  30,  30)

     Largest allocated arrays     est. size (Mb)     dimensions
        Kohn-Sham Wavefunctions         0.11 Mb     (    1157,    6)
        NL pseudopotentials             0.16 Mb     (    1157,    9)
        Each V/rho on FFT grid          0.98 Mb     (   64000)
        Each G-vector array             0.20 Mb     (   25699)
        G-vector shells                 0.00 Mb     (     246)
     Largest temporary arrays     est. size (Mb)     dimensions
        Auxiliary wavefunctions         0.42 Mb     (    1157,   24)
        Each subspace H/S matrix        0.01 Mb     (      24,   24)
        Each <psi_i|beta_j> matrix      0.00 Mb     (       9,    6)

     The potential is recalculated from file :
     ./tmp/_ph0/li-bcc.save/charge-density.dat

     Starting wfc are    5 atomic +    1 random wfc

     Band Structure Calculation
     Davidson diagonalization with overlap

     ethr =  3.33E-10,  avg # of iterations = 17.4

     total cpu time spent up to now is       66.5 secs

     End of band structure calculation

     Number of k-points >= 100: set verbosity='high' to print the bands.

     the Fermi energy is     0.7710 ev

                                                                                

     bravais-lattice index     =            3
     lattice parameter (alat)  =       6.6212  a.u.
     unit-cell volume          =     145.1386 (a.u.)^3
     number of atoms/cell      =            1
     number of atomic types    =            1
     kinetic-energy cut-off    =      60.0000  Ry
     charge density cut-off    =     480.0000  Ry
     convergence threshold     =      1.0E-16
     beta                      =       0.7000
     number of iterations used =            4
     Exchange-correlation      =  SLA  PW   PBX  PBC ( 1  4  3  4 0 0)


     celldm(1)=    6.62121  celldm(2)=    0.00000  celldm(3)=    0.00000
     celldm(4)=    0.00000  celldm(5)=    0.00000  celldm(6)=    0.00000

     crystal axes: (cart. coord. in units of alat)
               a(1) = (  0.5000  0.5000  0.5000 )  
               a(2) = ( -0.5000  0.5000  0.5000 )  
               a(3) = ( -0.5000 -0.5000  0.5000 )  

     reciprocal axes: (cart. coord. in units 2 pi/alat)
               b(1) = (  1.0000  0.0000  1.0000 )  
               b(2) = ( -1.0000  1.0000  0.0000 )  
               b(3) = (  0.0000 -1.0000  1.0000 )  


     Atoms inside the unit cell: 

     Cartesian axes

     site n.  atom      mass           positions (alat units)
        1     Li   6.9410   tau(    1) = (    0.00000    0.00000    0.00000  )

     Computing dynamical matrix for 
                    q = (  -0.1000000  -0.1000000   0.2000000 )
 
      2 Sym.Ops. (no q -> -q+G )


     G cutoff =  533.0363  (  25699 G-vectors)     FFT grid: ( 40, 40, 40)
     G cutoff =  266.5181  (   9189 G-vectors)  smooth grid: ( 30, 30, 30)

     number of k points= 22736  Marzari-Vanderbilt smearing, width (Ry)=  0.0200

     PseudoPot. # 1 for Li read from file:
     ../Li.pbe-s-gbrv14.UPF
     MD5 check sum: 7ca33c4f951f001da2db5c8738379802
     Pseudo is Ultrasoft, Zval =  3.0
     Generated by new atomic code, or converted to UPF format
     Using radial grid of  751 points,  5 beta functions with: 
                l(1) =   0
                l(2) =   0
                l(3) =   0
                l(4) =   1
                l(5) =   1
     Q(r) pseudized with 10 coefficients,  rinner =    1.150   1.150   1.150


     Mode symmetry, C_s (m)     point group:


     Atomic displacements:
     There are   3 irreducible representations

     Representation     1      1 modes -A'  To be done

     Representation     2      1 modes -A'  To be done

     Representation     3      1 modes -A''  To be done



     Alpha used in Ewald sum =   2.8000
     PHONON       :  8m50.47s CPU    11m37.25s WALL



     Representation #  1 mode #   1

     Self-consistent Calculation

      iter #   1 total cpu time :   697.9 secs   av.it.:   6.0
      thresh= 1.000E-02 alpha_mix =  0.700 |ddv_scf|^2 =  7.951E-04

      iter #   2 total cpu time :   712.1 secs   av.it.:   7.4
      thresh= 2.820E-03 alpha_mix =  0.700 |ddv_scf|^2 =  1.472E-01

      iter #   3 total cpu time :   718.2 secs   av.it.:   5.9
      thresh= 1.000E-02 alpha_mix =  0.700 |ddv_scf|^2 =  1.226E-07

      iter #   4 total cpu time :   726.9 secs   av.it.:   9.0
      thresh= 3.502E-05 alpha_mix =  0.700 |ddv_scf|^2 =  4.209E-09

      iter #   5 total cpu time :   728.6 secs   av.it.:   9.0
      thresh= 6.488E-06 alpha_mix =  0.700 |ddv_scf|^2 =  8.709E-11

      iter #   6 total cpu time :   729.5 secs   av.it.:   8.5
      thresh= 9.332E-07 alpha_mix =  0.700 |ddv_scf|^2 =  4.559E-10

      iter #   7 total cpu time :   733.3 secs   av.it.:   5.1
      thresh= 2.135E-06 alpha_mix =  0.700 |ddv_scf|^2 =  1.697E-11

      iter #   8 total cpu time :   738.9 secs   av.it.:   6.5
      thresh= 4.120E-07 alpha_mix =  0.700 |ddv_scf|^2 =  4.742E-13

      iter #   9 total cpu time :   742.7 secs   av.it.:   6.1
      thresh= 6.887E-08 alpha_mix =  0.700 |ddv_scf|^2 =  1.775E-15

      iter #  10 total cpu time :   748.9 secs   av.it.:   8.1
      thresh= 4.213E-09 alpha_mix =  0.700 |ddv_scf|^2 =  4.421E-18

     End of self-consistent calculation

     Convergence has been achieved 


     Representation #  2 mode #   2

     Self-consistent Calculation

      iter #   1 total cpu time :   752.5 secs   av.it.:   6.3
      thresh= 1.000E-02 alpha_mix =  0.700 |ddv_scf|^2 =  7.196E-03

      iter #   2 total cpu time :   757.7 secs   av.it.:   7.2
      thresh= 8.483E-03 alpha_mix =  0.700 |ddv_scf|^2 =  1.333E+00

      iter #   3 total cpu time :   762.3 secs   av.it.:   7.0
      thresh= 1.000E-02 alpha_mix =  0.700 |ddv_scf|^2 =  8.266E-07

      iter #   4 total cpu time :   763.7 secs   av.it.:   8.1
      thresh= 9.092E-05 alpha_mix =  0.700 |ddv_scf|^2 =  1.830E-08

      iter #   5 total cpu time :   765.3 secs   av.it.:   8.6
      thresh= 1.353E-05 alpha_mix =  0.700 |ddv_scf|^2 =  2.426E-10

      iter #   6 total cpu time :   767.6 secs   av.it.:   8.3
      thresh= 1.558E-06 alpha_mix =  0.700 |ddv_scf|^2 =  2.014E-09

      iter #   7 total cpu time :   768.7 secs   av.it.:   5.1
      thresh= 4.488E-06 alpha_mix =  0.700 |ddv_scf|^2 =  3.239E-12

      iter #   8 total cpu time :   771.2 secs   av.it.:   8.1
      thresh= 1.800E-07 alpha_mix =  0.700 |ddv_scf|^2 =  5.390E-14

      iter #   9 total cpu time :   773.2 secs   av.it.:   8.4
      thresh= 2.322E-08 alpha_mix =  0.700 |ddv_scf|^2 =  4.047E-14

      iter #  10 total cpu time :   779.3 secs   av.it.:   6.6
      thresh= 2.012E-08 alpha_mix =  0.700 |ddv_scf|^2 =  1.858E-17

     End of self-consistent calculation

     Convergence has been achieved 


     Representation #  3 mode #   3

     Self-consistent Calculation

      iter #   1 total cpu time :   782.2 secs   av.it.:   5.4
      thresh= 1.000E-02 alpha_mix =  0.700 |ddv_scf|^2 =  9.956E-07

      iter #   2 total cpu time :   785.1 secs   av.it.:   8.5
      thresh= 9.978E-05 alpha_mix =  0.700 |ddv_scf|^2 =  6.051E-08

      iter #   3 total cpu time :   788.8 secs   av.it.:   9.0
      thresh= 2.460E-05 alpha_mix =  0.700 |ddv_scf|^2 =  7.160E-10

      iter #   4 total cpu time :   791.6 secs   av.it.:   8.2
      thresh= 2.676E-06 alpha_mix =  0.700 |ddv_scf|^2 =  1.223E-12

      iter #   5 total cpu time :   794.0 secs   av.it.:   8.2
      thresh= 1.106E-07 alpha_mix =  0.700 |ddv_scf|^2 =  1.574E-14

      iter #   6 total cpu time :   802.9 secs   av.it.:   7.8
      thresh= 1.255E-08 alpha_mix =  0.700 |ddv_scf|^2 =  1.807E-17

     End of self-consistent calculation

     Convergence has been achieved 
 
     Number of q in the star =   24
     List of q in the star:
          1  -0.100000000  -0.100000000   0.200000000
          2  -0.100000000  -0.200000000   0.100000000
          3   0.100000000  -0.200000000   0.100000000
          4   0.100000000   0.200000000  -0.100000000
          5   0.100000000   0.100000000  -0.200000000
          6  -0.100000000   0.200000000  -0.100000000
          7  -0.100000000   0.100000000  -0.200000000
          8   0.200000000   0.100000000  -0.100000000
          9  -0.200000000   0.100000000   0.100000000
         10   0.200000000  -0.100000000   0.100000000
         11  -0.200000000  -0.100000000  -0.100000000
         12  -0.100000000  -0.100000000  -0.200000000
         13  -0.100000000   0.100000000   0.200000000
         14  -0.100000000   0.200000000   0.100000000
         15  -0.100000000  -0.200000000  -0.100000000
         16   0.100000000   0.100000000   0.200000000
         17   0.100000000  -0.200000000  -0.100000000
         18   0.200000000  -0.100000000  -0.100000000
         19   0.200000000   0.100000000   0.100000000
         20  -0.200000000   0.100000000  -0.100000000
         21  -0.200000000  -0.100000000   0.100000000
         22   0.100000000  -0.100000000  -0.200000000
         23   0.100000000  -0.100000000   0.200000000
         24   0.100000000   0.200000000   0.100000000

     Diagonalizing the dynamical matrix

     q = (   -0.100000000  -0.100000000   0.200000000 ) 

 **************************************************************************
     freq (    1) =       1.607321 [THz] =      53.614448 [cm-1]
     freq (    2) =       2.737995 [THz] =      91.329691 [cm-1]
     freq (    3) =       4.456508 [THz] =     148.653117 [cm-1]
 **************************************************************************

     Mode symmetry, C_s (m)     point group:

     freq (  1 -  1) =         53.6  [cm-1]   --> A'                 
     freq (  2 -  2) =         91.3  [cm-1]   --> A''                
     freq (  3 -  3) =        148.7  [cm-1]   --> A'                 

     Calculation of q =   -0.1000000  -0.2000000   0.3000000
 
     G-vector sticks info
     --------------------
     sticks:   dense  smooth     PW     G-vecs:    dense   smooth      PW
     Sum        1175     599    205                25699     9189    1865
 


     bravais-lattice index     =            3
     lattice parameter (alat)  =       6.6212  a.u.
     unit-cell volume          =     145.1386 (a.u.)^3
     number of atoms/cell      =            1
     number of atomic types    =            1
     number of electrons       =         3.00
     number of Kohn-Sham states=            6
     kinetic-energy cutoff     =      60.0000  Ry
     charge density cutoff     =     480.0000  Ry
     Exchange-correlation      =  SLA  PW   PBX  PBC ( 1  4  3  4 0 0)

     celldm(1)=   6.621214  celldm(2)=   0.000000  celldm(3)=   0.000000
     celldm(4)=   0.000000  celldm(5)=   0.000000  celldm(6)=   0.000000

     crystal axes: (cart. coord. in units of alat)
               a(1) = (   0.500000   0.500000   0.500000 )  
               a(2) = (  -0.500000   0.500000   0.500000 )  
               a(3) = (  -0.500000  -0.500000   0.500000 )  

     reciprocal axes: (cart. coord. in units 2 pi/alat)
               b(1) = (  1.000000  0.000000  1.000000 )  
               b(2) = ( -1.000000  1.000000  0.000000 )  
               b(3) = (  0.000000 -1.000000  1.000000 )  


     PseudoPot. # 1 for Li read from file:
     ../Li.pbe-s-gbrv14.UPF
     MD5 check sum: 7ca33c4f951f001da2db5c8738379802
     Pseudo is Ultrasoft, Zval =  3.0
     Generated by new atomic code, or converted to UPF format
     Using radial grid of  751 points,  5 beta functions with: 
                l(1) =   0
                l(2) =   0
                l(3) =   0
                l(4) =   1
                l(5) =   1
     Q(r) pseudized with 10 coefficients,  rinner =    1.150   1.150   1.150


     atomic species   valence    mass     pseudopotential
        Li             3.00     6.94100     Li( 1.00)

     48 Sym. Ops., with inversion, found



   Cartesian axes

     site n.     atom                  positions (alat units)
         1           Li  tau(   1) = (   0.0000000   0.0000000   0.0000000  )

     number of k points= 43904  Marzari-Vanderbilt smearing, width (Ry)=  0.0200

     Number of k-points >= 100: set verbosity='high' to print them.

     Dense  grid:    25699 G-vectors     FFT dimensions: (  40,  40,  40)

     Smooth grid:     9189 G-vectors     FFT dimensions: (  30,  30,  30)

     Largest allocated arrays     est. size (Mb)     dimensions
        Kohn-Sham Wavefunctions         0.11 Mb     (    1157,    6)
        NL pseudopotentials             0.16 Mb     (    1157,    9)
        Each V/rho on FFT grid          0.98 Mb     (   64000)
        Each G-vector array             0.20 Mb     (   25699)
        G-vector shells                 0.00 Mb     (     246)
     Largest temporary arrays     est. size (Mb)     dimensions
        Auxiliary wavefunctions         0.42 Mb     (    1157,   24)
        Each subspace H/S matrix        0.01 Mb     (      24,   24)
        Each <psi_i|beta_j> matrix      0.00 Mb     (       9,    6)

     The potential is recalculated from file :
     ./tmp/_ph0/li-bcc.save/charge-density.dat

     Starting wfc are    5 atomic +    1 random wfc

     Band Structure Calculation
     Davidson diagonalization with overlap

     ethr =  3.33E-10,  avg # of iterations = 17.4

     total cpu time spent up to now is       92.3 secs

     End of band structure calculation

[...]

     Computing dynamical matrix for 
                    q = (   0.0000000   0.9000000  -0.1000000 )
 
      4 Sym.Ops. (no q -> -q+G )


     G cutoff =  533.0363  (  25699 G-vectors)     FFT grid: ( 40, 40, 40)
     G cutoff =  266.5181  (   9189 G-vectors)  smooth grid: ( 30, 30, 30)

     number of k points= 11760  Marzari-Vanderbilt smearing, width (Ry)=  0.0200

     PseudoPot. # 1 for Li read from file:
     ../Li.pbe-s-gbrv14.UPF
     MD5 check sum: 7ca33c4f951f001da2db5c8738379802
     Pseudo is Ultrasoft, Zval =  3.0
     Generated by new atomic code, or converted to UPF format
     Using radial grid of  751 points,  5 beta functions with: 
                l(1) =   0
                l(2) =   0
                l(3) =   0
                l(4) =   1
                l(5) =   1
     Q(r) pseudized with 10 coefficients,  rinner =    1.150   1.150   1.150


     Mode symmetry, C_2v (mm2)  point group:


     Atomic displacements:
     There are   3 irreducible representations

     Representation     1      1 modes -A_1  D_1  S_1  To be done

     Representation     2      1 modes -B_1  D_3  S_3  To be done

     Representation     3      1 modes -B_2  D_4  S_4  To be done



     Alpha used in Ewald sum =   2.8000
     PHONON       :     1h 4m CPU        1h22m WALL



     Representation #  1 mode #   1

     Self-consistent Calculation

      iter #   1 total cpu time :  4951.8 secs   av.it.:   6.2
      thresh= 1.000E-02 alpha_mix =  0.700 |ddv_scf|^2 =  2.013E-06

      iter #   2 total cpu time :  4953.4 secs   av.it.:   8.8
      thresh= 1.419E-04 alpha_mix =  0.700 |ddv_scf|^2 =  9.006E-08

      iter #   3 total cpu time :  4953.9 secs   av.it.:   8.7
      thresh= 3.001E-05 alpha_mix =  0.700 |ddv_scf|^2 =  6.296E-09

      iter #   4 total cpu time :  4954.5 secs   av.it.:   8.7
      thresh= 7.935E-06 alpha_mix =  0.700 |ddv_scf|^2 =  6.506E-11

      iter #   5 total cpu time :  4959.9 secs   av.it.:   8.9
      thresh= 8.066E-07 alpha_mix =  0.700 |ddv_scf|^2 =  1.758E-13

      iter #   6 total cpu time :  4971.5 secs   av.it.:   9.6
      thresh= 4.193E-08 alpha_mix =  0.700 |ddv_scf|^2 =  2.410E-15

      iter #   7 total cpu time :  4974.6 secs   av.it.:   9.4
      thresh= 4.910E-09 alpha_mix =  0.700 |ddv_scf|^2 =  1.057E-16

      iter #   8 total cpu time :  4975.9 secs   av.it.:   8.9
      thresh= 1.028E-09 alpha_mix =  0.700 |ddv_scf|^2 =  2.936E-19

     End of self-consistent calculation

     Convergence has been achieved 


     Representation #  2 mode #   2

     Self-consistent Calculation

      iter #   1 total cpu time :  4977.0 secs   av.it.:   6.1
      thresh= 1.000E-02 alpha_mix =  0.700 |ddv_scf|^2 =  2.401E-06

      iter #   2 total cpu time :  4977.5 secs   av.it.:   8.7
      thresh= 1.550E-04 alpha_mix =  0.700 |ddv_scf|^2 =  1.012E-07

      iter #   3 total cpu time :  4978.0 secs   av.it.:   8.4
      thresh= 3.182E-05 alpha_mix =  0.700 |ddv_scf|^2 =  7.087E-09

      iter #   4 total cpu time :  4978.5 secs   av.it.:   8.5
      thresh= 8.418E-06 alpha_mix =  0.700 |ddv_scf|^2 =  6.778E-11

      iter #   5 total cpu time :  4979.0 secs   av.it.:   8.6
      thresh= 8.233E-07 alpha_mix =  0.700 |ddv_scf|^2 =  6.694E-14

      iter #   6 total cpu time :  4980.3 secs   av.it.:   8.4
      thresh= 2.587E-08 alpha_mix =  0.700 |ddv_scf|^2 =  6.672E-16

      iter #   7 total cpu time :  4989.2 secs   av.it.:   8.3
      thresh= 2.583E-09 alpha_mix =  0.700 |ddv_scf|^2 =  9.063E-18

     End of self-consistent calculation

     Convergence has been achieved 


     Representation #  3 mode #   3

     Self-consistent Calculation

      iter #   1 total cpu time :  4999.8 secs   av.it.:   6.0
      thresh= 1.000E-02 alpha_mix =  0.700 |ddv_scf|^2 =  1.787E-06

      iter #   2 total cpu time :  5004.2 secs   av.it.:   8.6
      thresh= 1.337E-04 alpha_mix =  0.700 |ddv_scf|^2 =  7.094E-08

      iter #   3 total cpu time :  5005.7 secs   av.it.:   8.5
      thresh= 2.663E-05 alpha_mix =  0.700 |ddv_scf|^2 =  5.048E-09

      iter #   4 total cpu time :  5006.7 secs   av.it.:   8.2
      thresh= 7.105E-06 alpha_mix =  0.700 |ddv_scf|^2 =  1.530E-12

      iter #   5 total cpu time :  5007.2 secs   av.it.:   8.4
      thresh= 1.237E-07 alpha_mix =  0.700 |ddv_scf|^2 =  1.302E-14

      iter #   6 total cpu time :  5007.7 secs   av.it.:   8.2
      thresh= 1.141E-08 alpha_mix =  0.700 |ddv_scf|^2 =  2.777E-16

      iter #   7 total cpu time :  5008.2 secs   av.it.:   8.4
      thresh= 1.666E-09 alpha_mix =  0.700 |ddv_scf|^2 =  2.548E-19

     End of self-consistent calculation

     Convergence has been achieved 
 
     Number of q in the star =   12
     List of q in the star:
          1   0.000000000   0.900000000  -0.100000000
          2   0.900000000   0.000000000  -0.100000000
          3  -0.900000000   0.000000000  -0.100000000
          4   0.000000000  -0.900000000  -0.100000000
          5  -0.100000000  -0.900000000   0.000000000
          6   0.100000000  -0.900000000   0.000000000
          7  -0.100000000   0.900000000   0.000000000
          8   0.100000000   0.900000000   0.000000000
          9   0.900000000   0.000000000   0.100000000
         10   0.000000000   0.100000000  -0.900000000
         11   0.000000000  -0.100000000  -0.900000000
         12   0.100000000   0.000000000  -0.900000000

     Diagonalizing the dynamical matrix

     q = (    0.000000000   0.900000000  -0.100000000 ) 

 **************************************************************************
     freq (    1) =       8.743652 [THz] =     291.656836 [cm-1]
     freq (    2) =       9.136868 [THz] =     304.773108 [cm-1]
     freq (    3) =       9.188323 [THz] =     306.489458 [cm-1]
 **************************************************************************

     Mode symmetry, C_2v (mm2)  point group:

     freq (  1 -  1) =        291.7  [cm-1]   --> A_1  D_1  S_1      
     freq (  2 -  2) =        304.8  [cm-1]   --> B_1  D_3  S_3      
     freq (  3 -  3) =        306.5  [cm-1]   --> B_2  D_4  S_4      

     Calculation of q =    0.0000000   0.0000000  -1.0000000
 
     G-vector sticks info
     --------------------
     sticks:   dense  smooth     PW     G-vecs:    dense   smooth      PW
     Sum        1175     599    217                25699     9189    1985
 


     bravais-lattice index     =            3
     lattice parameter (alat)  =       6.6212  a.u.
     unit-cell volume          =     145.1386 (a.u.)^3
     number of atoms/cell      =            1
     number of atomic types    =            1
     number of electrons       =         3.00
     number of Kohn-Sham states=            6
     kinetic-energy cutoff     =      60.0000  Ry
     charge density cutoff     =     480.0000  Ry
     Exchange-correlation      =  SLA  PW   PBX  PBC ( 1  4  3  4 0 0)

     celldm(1)=   6.621214  celldm(2)=   0.000000  celldm(3)=   0.000000
     celldm(4)=   0.000000  celldm(5)=   0.000000  celldm(6)=   0.000000

     crystal axes: (cart. coord. in units of alat)
               a(1) = (   0.500000   0.500000   0.500000 )  
               a(2) = (  -0.500000   0.500000   0.500000 )  
               a(3) = (  -0.500000  -0.500000   0.500000 )  

     reciprocal axes: (cart. coord. in units 2 pi/alat)
               b(1) = (  1.000000  0.000000  1.000000 )  
               b(2) = ( -1.000000  1.000000  0.000000 )  
               b(3) = (  0.000000 -1.000000  1.000000 )  


     PseudoPot. # 1 for Li read from file:
     ../Li.pbe-s-gbrv14.UPF
     MD5 check sum: 7ca33c4f951f001da2db5c8738379802
     Pseudo is Ultrasoft, Zval =  3.0
     Generated by new atomic code, or converted to UPF format
     Using radial grid of  751 points,  5 beta functions with: 
                l(1) =   0
                l(2) =   0
                l(3) =   0
                l(4) =   1
                l(5) =   1
     Q(r) pseudized with 10 coefficients,  rinner =    1.150   1.150   1.150


     atomic species   valence    mass     pseudopotential
        Li             3.00     6.94100     Li( 1.00)

     48 Sym. Ops., with inversion, found



   Cartesian axes

     site n.     atom                  positions (alat units)
         1           Li  tau(   1) = (   0.0000000   0.0000000   0.0000000  )

     number of k points=  1232  Marzari-Vanderbilt smearing, width (Ry)=  0.0200

     Number of k-points >= 100: set verbosity='high' to print them.

     Dense  grid:    25699 G-vectors     FFT dimensions: (  40,  40,  40)

     Smooth grid:     9189 G-vectors     FFT dimensions: (  30,  30,  30)

     Largest allocated arrays     est. size (Mb)     dimensions
        Kohn-Sham Wavefunctions         0.11 Mb     (    1157,    6)
        NL pseudopotentials             0.16 Mb     (    1157,    9)
        Each V/rho on FFT grid          0.98 Mb     (   64000)
        Each G-vector array             0.20 Mb     (   25699)
        G-vector shells                 0.00 Mb     (     246)
     Largest temporary arrays     est. size (Mb)     dimensions
        Auxiliary wavefunctions         0.42 Mb     (    1157,   24)
        Each subspace H/S matrix        0.01 Mb     (      24,   24)
        Each <psi_i|beta_j> matrix      0.00 Mb     (       9,    6)

     The potential is recalculated from file :
     ./tmp/_ph0/li-bcc.save/charge-density.dat

     Starting wfc are    5 atomic +    1 random wfc

     Band Structure Calculation
     Davidson diagonalization with overlap

     ethr =  3.33E-10,  avg # of iterations = 17.5

     total cpu time spent up to now is      548.0 secs

     End of band structure calculation

     Number of k-points >= 100: set verbosity='high' to print the bands.

     the Fermi energy is     0.7710 ev

                                                                                

     bravais-lattice index     =            3
     lattice parameter (alat)  =       6.6212  a.u.
     unit-cell volume          =     145.1386 (a.u.)^3
     number of atoms/cell      =            1
     number of atomic types    =            1
     kinetic-energy cut-off    =      60.0000  Ry
     charge density cut-off    =     480.0000  Ry
     convergence threshold     =      1.0E-16
     beta                      =       0.7000
     number of iterations used =            4
     Exchange-correlation      =  SLA  PW   PBX  PBC ( 1  4  3  4 0 0)


     celldm(1)=    6.62121  celldm(2)=    0.00000  celldm(3)=    0.00000
     celldm(4)=    0.00000  celldm(5)=    0.00000  celldm(6)=    0.00000

     crystal axes: (cart. coord. in units of alat)
               a(1) = (  0.5000  0.5000  0.5000 )  
               a(2) = ( -0.5000  0.5000  0.5000 )  
               a(3) = ( -0.5000 -0.5000  0.5000 )  

     reciprocal axes: (cart. coord. in units 2 pi/alat)
               b(1) = (  1.0000  0.0000  1.0000 )  
               b(2) = ( -1.0000  1.0000  0.0000 )  
               b(3) = (  0.0000 -1.0000  1.0000 )  


     Atoms inside the unit cell: 

     Cartesian axes

     site n.  atom      mass           positions (alat units)
        1     Li   6.9410   tau(    1) = (    0.00000    0.00000    0.00000  )

     Computing dynamical matrix for 
                    q = (   0.0000000   0.0000000  -1.0000000 )
 
     49 Sym.Ops. (with q -> -q+G )


     G cutoff =  533.0363  (  25699 G-vectors)     FFT grid: ( 40, 40, 40)
     G cutoff =  266.5181  (   9189 G-vectors)  smooth grid: ( 30, 30, 30)

     number of k points=  1232  Marzari-Vanderbilt smearing, width (Ry)=  0.0200

     PseudoPot. # 1 for Li read from file:
     ../Li.pbe-s-gbrv14.UPF
     MD5 check sum: 7ca33c4f951f001da2db5c8738379802
     Pseudo is Ultrasoft, Zval =  3.0
     Generated by new atomic code, or converted to UPF format
     Using radial grid of  751 points,  5 beta functions with: 
                l(1) =   0
                l(2) =   0
                l(3) =   0
                l(4) =   1
                l(5) =   1
     Q(r) pseudized with 10 coefficients,  rinner =    1.150   1.150   1.150


     Mode symmetry, O_h (m-3m)  point group:


     Atomic displacements:
     There are   1 irreducible representations

     Representation     1      3 modes -T_1u G_15  G_4-  To be done



     Alpha used in Ewald sum =   2.8000
     PHONON       :     1h 5m CPU        1h23m WALL



     Representation #  1 modes #   1  2  3

     Self-consistent Calculation

      iter #   1 total cpu time :  5011.6 secs   av.it.:   6.1
      thresh= 1.000E-02 alpha_mix =  0.700 |ddv_scf|^2 =  2.086E-07

      iter #   2 total cpu time :  5014.0 secs   av.it.:   9.6
      thresh= 4.568E-05 alpha_mix =  0.700 |ddv_scf|^2 =  8.030E-09

      iter #   3 total cpu time :  5015.1 secs   av.it.:   9.5
      thresh= 8.961E-06 alpha_mix =  0.700 |ddv_scf|^2 =  6.026E-10

      iter #   4 total cpu time :  5018.7 secs   av.it.:   9.0
      thresh= 2.455E-06 alpha_mix =  0.700 |ddv_scf|^2 =  1.554E-13

      iter #   5 total cpu time :  5022.4 secs   av.it.:   9.2
      thresh= 3.943E-08 alpha_mix =  0.700 |ddv_scf|^2 =  1.221E-15

      iter #   6 total cpu time :  5024.2 secs   av.it.:   9.1
      thresh= 3.494E-09 alpha_mix =  0.700 |ddv_scf|^2 =  2.676E-17

     End of self-consistent calculation

     Convergence has been achieved 
 
     Number of q in the star =    1
     List of q in the star:
          1   0.000000000   0.000000000  -1.000000000

     Diagonalizing the dynamical matrix

     q = (    0.000000000   0.000000000  -1.000000000 ) 

 **************************************************************************
     freq (    1) =       9.414095 [THz] =     314.020401 [cm-1]
     freq (    2) =       9.414095 [THz] =     314.020401 [cm-1]
     freq (    3) =       9.414095 [THz] =     314.020401 [cm-1]
 **************************************************************************

     Mode symmetry, O_h (m-3m)  point group:

     freq (  1 -  3) =        314.0  [cm-1]   --> T_1u G_15  G_4-    
 
     init_run     :    109.26s CPU    136.60s WALL (      46 calls)
     electrons    :    273.87s CPU    276.62s WALL (      46 calls)

     Called by init_run:
     wfcinit      :      0.03s CPU      0.08s WALL (      46 calls)
     potinit      :    100.12s CPU    100.60s WALL (      46 calls)

     Called by electrons:
     c_bands      :    273.58s CPU    276.30s WALL (      46 calls)
     v_of_rho     :      1.98s CPU      1.98s WALL (      47 calls)
     newd         :      0.73s CPU      0.95s WALL (      47 calls)

     Called by c_bands:
     init_us_2    :      5.66s CPU      5.98s WALL (   28470 calls)
     cegterg      :    144.21s CPU    145.19s WALL (    2431 calls)

     Called by sum_band:

     Called by *egterg:
     h_psi        :    137.33s CPU    138.13s WALL (   40091 calls)
     s_psi        :     15.60s CPU     15.96s WALL (  455717 calls)
     g_psi        :      0.96s CPU      0.95s WALL (   35968 calls)
     cdiaghg      :      5.00s CPU      5.12s WALL (   37660 calls)

     Called by h_psi:
     add_vuspsi   :     10.36s CPU     10.55s WALL (  237247 calls)

     General routines
     calbec       :     10.68s CPU     11.10s WALL (  501617 calls)
     fft          :     32.40s CPU     32.40s WALL (   17860 calls)
     ffts         :      3.77s CPU      3.82s WALL (    5537 calls)
     fftw         :    527.21s CPU    531.57s WALL ( 1199032 calls)
     interpolate  :      0.26s CPU      0.27s WALL (      93 calls)
     davcio       :      0.31s CPU      0.57s WALL (    5080 calls)
 
     Parallel routines
     fft_scatter  :     31.04s CPU     31.20s WALL ( 1222429 calls)
 
     PHONON       :     1h 5m CPU        1h24m WALL

     INITIALIZATION: 
     phq_setup    :      4.88s CPU     38.43s WALL (      47 calls)
     phq_init     :    222.26s CPU    283.91s WALL (      47 calls)
 
     phq_init     :    222.26s CPU    283.91s WALL (      47 calls)
     init_vloc    :      0.05s CPU      0.06s WALL (      47 calls)
     init_us_1    :      6.20s CPU      6.23s WALL (      47 calls)
     newd         :      0.73s CPU      0.95s WALL (      47 calls)
     dvanqq       :      5.41s CPU      5.43s WALL (      47 calls)
     drho         :    209.00s CPU    209.65s WALL (      47 calls)
 
     DYNAMICAL MATRIX:
     dynmat0      :      1.08s CPU     34.21s WALL (      47 calls)
     phqscf       :   3094.64s CPU   3953.15s WALL (      47 calls)
     dynmatrix    :     72.51s CPU    110.65s WALL (      47 calls)
 
     phqscf       :   3094.64s CPU   3953.15s WALL (      47 calls)
     solve_linter :   3092.47s CPU   3869.69s WALL (     129 calls)
     drhodv       :      1.74s CPU      1.82s WALL (     129 calls)
 
     dynmat0      :      1.08s CPU     34.21s WALL (      47 calls)
     dynmat_us    :      0.82s CPU      0.86s WALL (      47 calls)
     d2ionq       :      0.16s CPU      0.18s WALL (      47 calls)
 
     dynmat_us    :      0.82s CPU      0.86s WALL (      47 calls)
     addusdynmat  :      0.00s CPU      0.00s WALL (      47 calls)
 
     phqscf       :   3094.64s CPU   3953.15s WALL (      47 calls)
     solve_linter :   3092.47s CPU   3869.69s WALL (     129 calls)
 
     solve_linter :   3092.47s CPU   3869.69s WALL (     129 calls)
     dvqpsi_us    :     17.33s CPU     17.55s WALL (    2544 calls)
     ortho        :      3.64s CPU      3.83s WALL (   21314 calls)
     cgsolve      :    403.89s CPU    407.45s WALL (   21314 calls)
     incdrhoscf   :     45.73s CPU     45.74s WALL (   21314 calls)
     addusddens   :     29.25s CPU     29.27s WALL (    1167 calls)
     vpsifft      :     37.28s CPU     37.98s WALL (   18770 calls)
     dv_of_drho   :     44.90s CPU     45.19s WALL (    1113 calls)
     mix_pot      :      5.61s CPU      5.62s WALL (    1038 calls)
     ef_shift     :      0.08s CPU      0.08s WALL (       7 calls)
     localdos     :      0.03s CPU      0.03s WALL (       1 calls)
     psymdvscf    :     15.65s CPU     15.62s WALL (     819 calls)
     newdq        :     26.56s CPU     26.69s WALL (    1038 calls)
     adddvscf     :      1.14s CPU      1.27s WALL (   18770 calls)
     drhodvus     :      0.26s CPU      0.28s WALL (     129 calls)
 
     dvqpsi_us    :     17.33s CPU     17.55s WALL (    2544 calls)
     dvqpsi_us_on :      1.02s CPU      0.92s WALL (    2544 calls)
 
     cgsolve      :    403.89s CPU    407.45s WALL (   21314 calls)
     ch_psi       :    398.84s CPU    402.43s WALL (  197156 calls)
 
     ch_psi       :    398.84s CPU    402.43s WALL (  197156 calls)
     h_psiq       :    382.00s CPU    385.51s WALL (  197156 calls)
     last         :     15.47s CPU     15.60s WALL (  197156 calls)
 
     h_psiq       :    382.00s CPU    385.51s WALL (  197156 calls)
     firstfft     :    186.25s CPU    188.20s WALL (  364960 calls)
     secondfft    :    161.18s CPU    162.41s WALL (  364960 calls)
     add_vuspsi   :     10.36s CPU     10.55s WALL (  237247 calls)
 
     incdrhoscf   :     45.73s CPU     45.74s WALL (   21314 calls)
     addusdbec    :      1.28s CPU      1.29s WALL (   23858 calls)
 
     drhodvus     :      0.26s CPU      0.28s WALL (     129 calls)
 
      General routines
     calbec       :     10.68s CPU     11.10s WALL (  501617 calls)
     fft          :     32.40s CPU     32.40s WALL (   17860 calls)
     ffts         :      3.77s CPU      3.82s WALL (    5537 calls)
     fftw         :    527.21s CPU    531.57s WALL ( 1199032 calls)
     cinterpolate :      6.62s CPU      6.65s WALL (    2368 calls)
     davcio       :      0.31s CPU      0.57s WALL (    5080 calls)
     write_rec    :      2.71s CPU    843.89s WALL (    1167 calls)
 
 
     PHONON       :     1h 5m CPU        1h24m WALL

 
   This run was terminated on:  22:10:58  23Jun2016            

=------------------------------------------------------------------------------=
   JOB DONE.
=------------------------------------------------------------------------------=
Application 22276187 resources: utime ~2615730s, stime ~11452s, Rss ~106436, inblocks ~479667140, outblocks ~2049590342
