
     Program PHONON v.5.2.0 starts on  2Jun2016 at 13:10:29 

     This program is part of the open-source Quantum ESPRESSO suite
     for quantum simulation of materials; please cite
         "P. Giannozzi et al., J. Phys.:Condens. Matter 21 395502 (2009);
          URL http://www.quantum-espresso.org", 
     in publications or presentations arising from this work. More details at
     http://www.quantum-espresso.org/quote

     Parallel version (MPI), running on   288 processors
     K-points division:     npool     =     288

     Reading data from directory:
     ./tmp/li-bcc.save

   Info: using nr1, nr2, nr3 values from input

   Info: using nr1, nr2, nr3 values from input

     IMPORTANT: XC functional enforced from input :
     Exchange-correlation      =  SLA  PW   PBX  PBC ( 1  4  3  4 0 0)
     Any further DFT definition will be discarded
     Please, verify this is what you really want

 
     G-vector sticks info
     --------------------
     sticks:   dense  smooth     PW     G-vecs:    dense   smooth      PW
     Sum        1047     531    169                21529     7707    1409
 


     Dynamical matrices for (10,10,10)  uniform grid of q-points
     (  47q-points):
       N         xq(1)         xq(2)         xq(3) 
       1   0.000000000   0.000000000   0.000000000
       2   0.000000000  -0.100000000   0.100000000
       3   0.000000000  -0.200000000   0.200000000
       4   0.000000000  -0.300000000   0.300000000
       5   0.000000000  -0.400000000   0.400000000
       6   0.000000000   0.500000000  -0.500000000
       7  -0.100000000  -0.100000000   0.200000000
       8  -0.100000000  -0.200000000   0.300000000
       9  -0.100000000  -0.300000000   0.400000000
      10  -0.100000000   0.600000000  -0.500000000
      11  -0.200000000  -0.200000000   0.400000000
      12  -0.200000000   0.700000000  -0.500000000
      13  -0.200000000   0.600000000  -0.400000000
      14  -0.300000000   0.700000000  -0.400000000
      15   0.000000000   0.000000000   0.200000000
      16   0.000000000  -0.100000000   0.300000000
      17   0.000000000  -0.200000000   0.400000000
      18   0.000000000  -0.300000000   0.500000000
      19   0.000000000   0.600000000  -0.400000000
      20  -0.100000000  -0.100000000   0.400000000
      21  -0.100000000  -0.200000000   0.500000000
      22  -0.100000000   0.700000000  -0.400000000
      23  -0.200000000   0.200000000   0.200000000
      24  -0.200000000   0.800000000  -0.400000000
      25  -0.200000000   0.700000000  -0.300000000
      26  -0.300000000   0.300000000   0.200000000
      27   0.600000000  -0.600000000   0.200000000
      28   0.600000000  -0.700000000   0.300000000
      29   0.500000000  -0.500000000   0.200000000
      30   0.500000000  -0.600000000   0.300000000
      31   0.400000000  -0.600000000   0.400000000
      32   0.000000000   0.000000000   0.400000000
      33   0.000000000  -0.100000000   0.500000000
      34   0.000000000  -0.200000000   0.600000000
      35   0.000000000   0.700000000  -0.300000000
      36  -0.100000000  -0.100000000   0.600000000
      37  -0.100000000   0.800000000  -0.300000000
      38  -0.200000000   0.800000000  -0.200000000
      39   0.600000000  -0.600000000   0.400000000
      40   0.500000000  -0.500000000   0.400000000
      41   0.000000000   0.000000000   0.600000000
      42   0.000000000  -0.100000000   0.700000000
      43   0.000000000   0.800000000  -0.200000000
      44  -0.100000000   0.900000000  -0.200000000
      45   0.000000000   0.000000000   0.800000000
      46   0.000000000   0.900000000  -0.100000000
      47   0.000000000   0.000000000  -1.000000000

     Calculation of q =    0.0000000   0.0000000   0.0000000

                                                                                

     bravais-lattice index     =            3
     lattice parameter (alat)  =       6.2403  a.u.
     unit-cell volume          =     121.5018 (a.u.)^3
     number of atoms/cell      =            1
     number of atomic types    =            1
     kinetic-energy cut-off    =      60.0000  Ry
     charge density cut-off    =     480.0000  Ry
     convergence threshold     =      1.0E-16
     beta                      =       0.7000
     number of iterations used =            4
     Exchange-correlation      =  SLA  PW   PBX  PBC ( 1  4  3  4 0 0)


     celldm(1)=    6.24028  celldm(2)=    0.00000  celldm(3)=    0.00000
     celldm(4)=    0.00000  celldm(5)=    0.00000  celldm(6)=    0.00000

     crystal axes: (cart. coord. in units of alat)
               a(1) = (  0.5000  0.5000  0.5000 )  
               a(2) = ( -0.5000  0.5000  0.5000 )  
               a(3) = ( -0.5000 -0.5000  0.5000 )  

     reciprocal axes: (cart. coord. in units 2 pi/alat)
               b(1) = (  1.0000  0.0000  1.0000 )  
               b(2) = ( -1.0000  1.0000  0.0000 )  
               b(3) = (  0.0000 -1.0000  1.0000 )  


     Atoms inside the unit cell: 

     Cartesian axes

     site n.  atom      mass           positions (alat units)
        1     Li   6.9410   tau(    1) = (    0.00000    0.00000    0.00000  )

     Computing dynamical matrix for 
                    q = (   0.0000000   0.0000000   0.0000000 )
 
     49 Sym.Ops. (with q -> -q+G )


     G cutoff =  473.4672  (  21529 G-vectors)     FFT grid: ( 40, 40, 40)
     G cutoff =  236.7336  (   7707 G-vectors)  smooth grid: ( 27, 27, 27)

     number of k points=   616  Marzari-Vanderbilt smearing, width (Ry)=  0.0200

     PseudoPot. # 1 for Li read from file:
     ../Li.pbe-s-gbrv14.UPF
     MD5 check sum: 7ca33c4f951f001da2db5c8738379802
     Pseudo is Ultrasoft, Zval =  3.0
     Generated by new atomic code, or converted to UPF format
     Using radial grid of  751 points,  5 beta functions with: 
                l(1) =   0
                l(2) =   0
                l(3) =   0
                l(4) =   1
                l(5) =   1
     Q(r) pseudized with 10 coefficients,  rinner =    1.150   1.150   1.150


     Mode symmetry, O_h (m-3m)  point group:


     Atomic displacements:
     There are   1 irreducible representations

     Representation     1      3 modes -T_1u G_15  G_4-  To be done



     Alpha used in Ewald sum =   2.8000
     PHONON       :     5.85s CPU        18.00s WALL



     Representation #  1 modes #   1  2  3

     Self-consistent Calculation
 
     Pert. #  1: Fermi energy shift (Ry) =     5.1160E-26    -2.1943E-37
     Pert. #  2: Fermi energy shift (Ry) =     4.6313E-26     0.0000E+00
     Pert. #  3: Fermi energy shift (Ry) =     1.4540E-26     9.4040E-38

      iter #   1 total cpu time :    18.8 secs   av.it.:   5.4
      thresh= 1.000E-02 alpha_mix =  0.700 |ddv_scf|^2 =  1.207E-07
 
     Pert. #  1: Fermi energy shift (Ry) =    -1.8956E-25     4.5918E-40
     Pert. #  2: Fermi energy shift (Ry) =    -1.5510E-25    -8.2652E-40
     Pert. #  3: Fermi energy shift (Ry) =    -3.4466E-26     2.6020E-40

      iter #   2 total cpu time :    25.8 secs   av.it.:   9.3
      thresh= 3.474E-05 alpha_mix =  0.700 |ddv_scf|^2 =  7.405E-09
 
     Pert. #  1: Fermi energy shift (Ry) =     4.0928E-26     2.2194E-40
     Pert. #  2: Fermi energy shift (Ry) =     2.1541E-26    -6.1224E-41
     Pert. #  3: Fermi energy shift (Ry) =    -1.2925E-26     6.1224E-41

      iter #   3 total cpu time :    29.6 secs   av.it.:   9.5
      thresh= 8.605E-06 alpha_mix =  0.700 |ddv_scf|^2 =  4.100E-11
 
     Pert. #  1: Fermi energy shift (Ry) =    -8.0779E-27     0.0000E+00
     Pert. #  2: Fermi energy shift (Ry) =    -2.3695E-26     1.9132E-42
     Pert. #  3: Fermi energy shift (Ry) =    -4.3082E-27     1.0523E-41

      iter #   4 total cpu time :    40.1 secs   av.it.:   9.3
      thresh= 6.403E-07 alpha_mix =  0.700 |ddv_scf|^2 =  1.119E-13
 
     Pert. #  1: Fermi energy shift (Ry) =    -2.5311E-26     1.0762E-42
     Pert. #  2: Fermi energy shift (Ry) =    -1.6156E-26    -2.3915E-43
     Pert. #  3: Fermi energy shift (Ry) =    -4.3082E-26    -1.6741E-42

      iter #   5 total cpu time :    43.2 secs   av.it.:   8.8
      thresh= 3.346E-08 alpha_mix =  0.700 |ddv_scf|^2 =  2.197E-15
 
     Pert. #  1: Fermi energy shift (Ry) =     4.1467E-26    -9.5662E-43
     Pert. #  2: Fermi energy shift (Ry) =     3.2312E-27    -4.7831E-43
     Pert. #  3: Fermi energy shift (Ry) =     3.0158E-26    -2.3915E-43

      iter #   6 total cpu time :    44.6 secs   av.it.:   8.4
      thresh= 4.688E-09 alpha_mix =  0.700 |ddv_scf|^2 =  6.035E-19

     End of self-consistent calculation

     Convergence has been achieved 
 
     Number of q in the star =    1
     List of q in the star:
          1   0.000000000   0.000000000   0.000000000

     Diagonalizing the dynamical matrix

     q = (    0.000000000   0.000000000   0.000000000 ) 

 **************************************************************************
     freq (    1) =      -0.108975 [THz] =      -3.635026 [cm-1]
     freq (    2) =      -0.108975 [THz] =      -3.635026 [cm-1]
     freq (    3) =      -0.108975 [THz] =      -3.635026 [cm-1]
 **************************************************************************

     Mode symmetry, O_h (m-3m)  point group:

     freq (  1 -  3) =         -3.6  [cm-1]   --> T_1u G_15  G_4- I  

     Calculation of q =    0.0000000  -0.1000000   0.1000000
 
     G-vector sticks info
     --------------------
     sticks:   dense  smooth     PW     G-vecs:    dense   smooth      PW
     Sum        1047     531    173                21529     7707    1433
 


     bravais-lattice index     =            3
     lattice parameter (alat)  =       6.2403  a.u.
     unit-cell volume          =     121.5018 (a.u.)^3
     number of atoms/cell      =            1
     number of atomic types    =            1
     number of electrons       =         3.00
     number of Kohn-Sham states=            6
     kinetic-energy cutoff     =      60.0000  Ry
     charge density cutoff     =     480.0000  Ry
     Exchange-correlation      =  SLA  PW   PBX  PBC ( 1  4  3  4 0 0)

     celldm(1)=   6.240282  celldm(2)=   0.000000  celldm(3)=   0.000000
     celldm(4)=   0.000000  celldm(5)=   0.000000  celldm(6)=   0.000000

     crystal axes: (cart. coord. in units of alat)
               a(1) = (   0.500000   0.500000   0.500000 )  
               a(2) = (  -0.500000   0.500000   0.500000 )  
               a(3) = (  -0.500000  -0.500000   0.500000 )  

     reciprocal axes: (cart. coord. in units 2 pi/alat)
               b(1) = (  1.000000  0.000000  1.000000 )  
               b(2) = ( -1.000000  1.000000  0.000000 )  
               b(3) = (  0.000000 -1.000000  1.000000 )  


     PseudoPot. # 1 for Li read from file:
     ../Li.pbe-s-gbrv14.UPF
     MD5 check sum: 7ca33c4f951f001da2db5c8738379802
     Pseudo is Ultrasoft, Zval =  3.0
     Generated by new atomic code, or converted to UPF format
     Using radial grid of  751 points,  5 beta functions with: 
                l(1) =   0
                l(2) =   0
                l(3) =   0
                l(4) =   1
                l(5) =   1
     Q(r) pseudized with 10 coefficients,  rinner =    1.150   1.150   1.150


     atomic species   valence    mass     pseudopotential
        Li             3.00     6.94100     Li( 1.00)

     48 Sym. Ops., with inversion, found



   Cartesian axes

     site n.     atom                  positions (alat units)
         1           Li  tau(   1) = (   0.0000000   0.0000000   0.0000000  )

     number of k points= 11760  Marzari-Vanderbilt smearing, width (Ry)=  0.0200

     Number of k-points >= 100: set verbosity='high' to print them.

     Dense  grid:    21529 G-vectors     FFT dimensions: (  40,  40,  40)

     Smooth grid:     7707 G-vectors     FFT dimensions: (  27,  27,  27)

     Largest allocated arrays     est. size (Mb)     dimensions
        Kohn-Sham Wavefunctions         0.09 Mb     (     968,    6)
        NL pseudopotentials             0.13 Mb     (     968,    9)
        Each V/rho on FFT grid          0.98 Mb     (   64000)
        Each G-vector array             0.16 Mb     (   21529)
        G-vector shells                 0.00 Mb     (     219)
     Largest temporary arrays     est. size (Mb)     dimensions
        Auxiliary wavefunctions         0.35 Mb     (     968,   24)
        Each subspace H/S matrix        0.01 Mb     (      24,   24)
        Each <psi_i|beta_j> matrix      0.00 Mb     (       9,    6)

     The potential is recalculated from file :
     ./tmp/_ph0/li-bcc.save/charge-density.dat

     Starting wfc are    5 atomic +    1 random wfc

     Band Structure Calculation
     Davidson diagonalization with overlap

     ethr =  3.33E-10,  avg # of iterations = 17.0

     total cpu time spent up to now is       11.5 secs

     End of band structure calculation

     Number of k-points >= 100: set verbosity='high' to print the bands.

     the Fermi energy is     1.3455 ev

                                                                                

     bravais-lattice index     =            3
     lattice parameter (alat)  =       6.2403  a.u.
     unit-cell volume          =     121.5018 (a.u.)^3
     number of atoms/cell      =            1
     number of atomic types    =            1
     kinetic-energy cut-off    =      60.0000  Ry
     charge density cut-off    =     480.0000  Ry
     convergence threshold     =      1.0E-16
     beta                      =       0.7000
     number of iterations used =            4
     Exchange-correlation      =  SLA  PW   PBX  PBC ( 1  4  3  4 0 0)


     celldm(1)=    6.24028  celldm(2)=    0.00000  celldm(3)=    0.00000
     celldm(4)=    0.00000  celldm(5)=    0.00000  celldm(6)=    0.00000

     crystal axes: (cart. coord. in units of alat)
               a(1) = (  0.5000  0.5000  0.5000 )  
               a(2) = ( -0.5000  0.5000  0.5000 )  
               a(3) = ( -0.5000 -0.5000  0.5000 )  

     reciprocal axes: (cart. coord. in units 2 pi/alat)
               b(1) = (  1.0000  0.0000  1.0000 )  
               b(2) = ( -1.0000  1.0000  0.0000 )  
               b(3) = (  0.0000 -1.0000  1.0000 )  


     Atoms inside the unit cell: 

     Cartesian axes

     site n.  atom      mass           positions (alat units)
        1     Li   6.9410   tau(    1) = (    0.00000    0.00000    0.00000  )

     Computing dynamical matrix for 
                    q = (   0.0000000  -0.1000000   0.1000000 )
 
      4 Sym.Ops. (no q -> -q+G )


     G cutoff =  473.4672  (  21529 G-vectors)     FFT grid: ( 40, 40, 40)
     G cutoff =  236.7336  (   7707 G-vectors)  smooth grid: ( 27, 27, 27)

     number of k points= 11760  Marzari-Vanderbilt smearing, width (Ry)=  0.0200

     PseudoPot. # 1 for Li read from file:
     ../Li.pbe-s-gbrv14.UPF
     MD5 check sum: 7ca33c4f951f001da2db5c8738379802
     Pseudo is Ultrasoft, Zval =  3.0
     Generated by new atomic code, or converted to UPF format
     Using radial grid of  751 points,  5 beta functions with: 
                l(1) =   0
                l(2) =   0
                l(3) =   0
                l(4) =   1
                l(5) =   1
     Q(r) pseudized with 10 coefficients,  rinner =    1.150   1.150   1.150


     Mode symmetry, C_2v (mm2)  point group:


     Atomic displacements:
     There are   3 irreducible representations

     Representation     1      1 modes -A_1  D_1  S_1  To be done

     Representation     2      1 modes -B_1  D_3  S_3  To be done

     Representation     3      1 modes -B_2  D_4  S_4  To be done



     Alpha used in Ewald sum =   2.8000
     PHONON       :  0m54.80s CPU     1m29.33s WALL



     Representation #  1 mode #   1

     Self-consistent Calculation

      iter #   1 total cpu time :    89.9 secs   av.it.:   6.4
      thresh= 1.000E-02 alpha_mix =  0.700 |ddv_scf|^2 =  3.008E-01

      iter #   2 total cpu time :   106.7 secs   av.it.:   8.2
      thresh= 1.000E-02 alpha_mix =  0.700 |ddv_scf|^2 =  5.848E+02

      iter #   3 total cpu time :   107.9 secs   av.it.:   8.2
      thresh= 1.000E-02 alpha_mix =  0.700 |ddv_scf|^2 =  1.111E-02

      iter #   4 total cpu time :   108.5 secs   av.it.:   3.5
      thresh= 1.000E-02 alpha_mix =  0.700 |ddv_scf|^2 =  1.606E-07

      iter #   5 total cpu time :   109.1 secs   av.it.:   7.8
      thresh= 4.007E-05 alpha_mix =  0.700 |ddv_scf|^2 =  1.194E-08

      iter #   6 total cpu time :   110.9 secs   av.it.:   7.5
      thresh= 1.093E-05 alpha_mix =  0.700 |ddv_scf|^2 =  1.684E-07

      iter #   7 total cpu time :   113.7 secs   av.it.:   3.3
      thresh= 4.104E-05 alpha_mix =  0.700 |ddv_scf|^2 =  8.218E-10

      iter #   8 total cpu time :   116.1 secs   av.it.:   6.2
      thresh= 2.867E-06 alpha_mix =  0.700 |ddv_scf|^2 =  5.581E-13

      iter #   9 total cpu time :   120.0 secs   av.it.:   8.3
      thresh= 7.470E-08 alpha_mix =  0.700 |ddv_scf|^2 =  7.957E-14

      iter #  10 total cpu time :   126.3 secs   av.it.:   7.9
      thresh= 2.821E-08 alpha_mix =  0.700 |ddv_scf|^2 =  2.881E-15

      iter #  11 total cpu time :   148.2 secs   av.it.:   6.6
      thresh= 5.368E-09 alpha_mix =  0.700 |ddv_scf|^2 =  8.295E-17

     End of self-consistent calculation

     Convergence has been achieved 


     Representation #  2 mode #   2

     Self-consistent Calculation

      iter #   1 total cpu time :   154.3 secs   av.it.:   5.3
      thresh= 1.000E-02 alpha_mix =  0.700 |ddv_scf|^2 =  1.090E-06

      iter #   2 total cpu time :   155.2 secs   av.it.:   8.5
      thresh= 1.044E-04 alpha_mix =  0.700 |ddv_scf|^2 =  6.673E-08

      iter #   3 total cpu time :   155.8 secs   av.it.:   8.8
      thresh= 2.583E-05 alpha_mix =  0.700 |ddv_scf|^2 =  3.865E-10

      iter #   4 total cpu time :   156.4 secs   av.it.:   8.4
      thresh= 1.966E-06 alpha_mix =  0.700 |ddv_scf|^2 =  9.791E-13

      iter #   5 total cpu time :   157.0 secs   av.it.:   8.0
      thresh= 9.895E-08 alpha_mix =  0.700 |ddv_scf|^2 =  1.905E-14

      iter #   6 total cpu time :   157.5 secs   av.it.:   7.6
      thresh= 1.380E-08 alpha_mix =  0.700 |ddv_scf|^2 =  5.708E-18

     End of self-consistent calculation

     Convergence has been achieved 


     Representation #  3 mode #   3

     Self-consistent Calculation

      iter #   1 total cpu time :   159.3 secs   av.it.:   5.3
      thresh= 1.000E-02 alpha_mix =  0.700 |ddv_scf|^2 =  1.103E-06

      iter #   2 total cpu time :   161.8 secs   av.it.:   8.5
      thresh= 1.050E-04 alpha_mix =  0.700 |ddv_scf|^2 =  6.736E-08

      iter #   3 total cpu time :   163.0 secs   av.it.:   8.8
      thresh= 2.595E-05 alpha_mix =  0.700 |ddv_scf|^2 =  4.435E-10

      iter #   4 total cpu time :   163.6 secs   av.it.:   8.3
      thresh= 2.106E-06 alpha_mix =  0.700 |ddv_scf|^2 =  9.511E-13

      iter #   5 total cpu time :   164.2 secs   av.it.:   8.1
      thresh= 9.752E-08 alpha_mix =  0.700 |ddv_scf|^2 =  1.768E-14

      iter #   6 total cpu time :   164.8 secs   av.it.:   7.5
      thresh= 1.330E-08 alpha_mix =  0.700 |ddv_scf|^2 =  5.105E-18

     End of self-consistent calculation

     Convergence has been achieved 
 
     Number of q in the star =   12
     List of q in the star:
          1   0.000000000  -0.100000000   0.100000000
          2  -0.100000000   0.000000000   0.100000000
          3   0.100000000   0.000000000   0.100000000
          4   0.000000000   0.100000000   0.100000000
          5   0.100000000   0.100000000   0.000000000
          6  -0.100000000   0.100000000   0.000000000
          7   0.100000000  -0.100000000   0.000000000
          8  -0.100000000  -0.100000000   0.000000000
          9  -0.100000000   0.000000000  -0.100000000
         10   0.000000000   0.100000000  -0.100000000
         11   0.000000000  -0.100000000  -0.100000000
         12   0.100000000   0.000000000  -0.100000000

     Diagonalizing the dynamical matrix

     q = (    0.000000000  -0.100000000   0.100000000 ) 

 **************************************************************************
     freq (    1) =       0.438055 [THz] =      14.611936 [cm-1]
     freq (    2) =       1.844941 [THz] =      61.540597 [cm-1]
     freq (    3) =       3.043500 [THz] =     101.520240 [cm-1]
 **************************************************************************

     Mode symmetry, C_2v (mm2)  point group:

     freq (  1 -  1) =         14.6  [cm-1]   --> B_1  D_3  S_3      
     freq (  2 -  2) =         61.5  [cm-1]   --> B_2  D_4  S_4      
     freq (  3 -  3) =        101.5  [cm-1]   --> A_1  D_1  S_1      

     Calculation of q =    0.0000000  -0.2000000   0.2000000
 
     G-vector sticks info
     --------------------
     sticks:   dense  smooth     PW     G-vecs:    dense   smooth      PW
     Sum        1047     531    173                21529     7707    1481
 


     bravais-lattice index     =            3
     lattice parameter (alat)  =       6.2403  a.u.
     unit-cell volume          =     121.5018 (a.u.)^3
     number of atoms/cell      =            1
     number of atomic types    =            1
     number of electrons       =         3.00
     number of Kohn-Sham states=            6
     kinetic-energy cutoff     =      60.0000  Ry
     charge density cutoff     =     480.0000  Ry
     Exchange-correlation      =  SLA  PW   PBX  PBC ( 1  4  3  4 0 0)

     celldm(1)=   6.240282  celldm(2)=   0.000000  celldm(3)=   0.000000
     celldm(4)=   0.000000  celldm(5)=   0.000000  celldm(6)=   0.000000

     crystal axes: (cart. coord. in units of alat)
               a(1) = (   0.500000   0.500000   0.500000 )  
               a(2) = (  -0.500000   0.500000   0.500000 )  
               a(3) = (  -0.500000  -0.500000   0.500000 )  

     reciprocal axes: (cart. coord. in units 2 pi/alat)
               b(1) = (  1.000000  0.000000  1.000000 )  
               b(2) = ( -1.000000  1.000000  0.000000 )  
               b(3) = (  0.000000 -1.000000  1.000000 )  


     PseudoPot. # 1 for Li read from file:
     ../Li.pbe-s-gbrv14.UPF
     MD5 check sum: 7ca33c4f951f001da2db5c8738379802
     Pseudo is Ultrasoft, Zval =  3.0
     Generated by new atomic code, or converted to UPF format
     Using radial grid of  751 points,  5 beta functions with: 
                l(1) =   0
                l(2) =   0
                l(3) =   0
                l(4) =   1
                l(5) =   1
     Q(r) pseudized with 10 coefficients,  rinner =    1.150   1.150   1.150


     atomic species   valence    mass     pseudopotential
        Li             3.00     6.94100     Li( 1.00)

     48 Sym. Ops., with inversion, found



   Cartesian axes

     site n.     atom                  positions (alat units)
         1           Li  tau(   1) = (   0.0000000   0.0000000   0.0000000  )

     number of k points= 11760  Marzari-Vanderbilt smearing, width (Ry)=  0.0200

     Number of k-points >= 100: set verbosity='high' to print them.

     Dense  grid:    21529 G-vectors     FFT dimensions: (  40,  40,  40)

     Smooth grid:     7707 G-vectors     FFT dimensions: (  27,  27,  27)

     Largest allocated arrays     est. size (Mb)     dimensions
        Kohn-Sham Wavefunctions         0.09 Mb     (     968,    6)
        NL pseudopotentials             0.13 Mb     (     968,    9)
        Each V/rho on FFT grid          0.98 Mb     (   64000)
        Each G-vector array             0.16 Mb     (   21529)
        G-vector shells                 0.00 Mb     (     219)
     Largest temporary arrays     est. size (Mb)     dimensions
        Auxiliary wavefunctions         0.35 Mb     (     968,   24)
        Each subspace H/S matrix        0.01 Mb     (      24,   24)
        Each <psi_i|beta_j> matrix      0.00 Mb     (       9,    6)

     The potential is recalculated from file :
     ./tmp/_ph0/li-bcc.save/charge-density.dat

     Starting wfc are    5 atomic +    1 random wfc

     Band Structure Calculation
     Davidson diagonalization with overlap

     ethr =  3.33E-10,  avg # of iterations = 17.0

     total cpu time spent up to now is       26.3 secs

     End of band structure calculation

     Number of k-points >= 100: set verbosity='high' to print the bands.

     the Fermi energy is     1.3455 ev

                                                                                

     bravais-lattice index     =            3
     lattice parameter (alat)  =       6.2403  a.u.
     unit-cell volume          =     121.5018 (a.u.)^3
     number of atoms/cell      =            1
     number of atomic types    =            1
     kinetic-energy cut-off    =      60.0000  Ry
     charge density cut-off    =     480.0000  Ry
     convergence threshold     =      1.0E-16
     beta                      =       0.7000
     number of iterations used =            4
     Exchange-correlation      =  SLA  PW   PBX  PBC ( 1  4  3  4 0 0)


     celldm(1)=    6.24028  celldm(2)=    0.00000  celldm(3)=    0.00000
     celldm(4)=    0.00000  celldm(5)=    0.00000  celldm(6)=    0.00000

     crystal axes: (cart. coord. in units of alat)
               a(1) = (  0.5000  0.5000  0.5000 )  
               a(2) = ( -0.5000  0.5000  0.5000 )  
               a(3) = ( -0.5000 -0.5000  0.5000 )  

     reciprocal axes: (cart. coord. in units 2 pi/alat)
               b(1) = (  1.0000  0.0000  1.0000 )  
               b(2) = ( -1.0000  1.0000  0.0000 )  
               b(3) = (  0.0000 -1.0000  1.0000 )  


     Atoms inside the unit cell: 

     Cartesian axes

     site n.  atom      mass           positions (alat units)
        1     Li   6.9410   tau(    1) = (    0.00000    0.00000    0.00000  )

     Computing dynamical matrix for 
                    q = (   0.0000000  -0.2000000   0.2000000 )
 
      4 Sym.Ops. (no q -> -q+G )


     G cutoff =  473.4672  (  21529 G-vectors)     FFT grid: ( 40, 40, 40)
     G cutoff =  236.7336  (   7707 G-vectors)  smooth grid: ( 27, 27, 27)

     number of k points= 11760  Marzari-Vanderbilt smearing, width (Ry)=  0.0200

     PseudoPot. # 1 for Li read from file:
     ../Li.pbe-s-gbrv14.UPF
     MD5 check sum: 7ca33c4f951f001da2db5c8738379802
     Pseudo is Ultrasoft, Zval =  3.0
     Generated by new atomic code, or converted to UPF format
     Using radial grid of  751 points,  5 beta functions with: 
                l(1) =   0
                l(2) =   0
                l(3) =   0
                l(4) =   1
                l(5) =   1
     Q(r) pseudized with 10 coefficients,  rinner =    1.150   1.150   1.150


     Mode symmetry, C_2v (mm2)  point group:


     Atomic displacements:
     There are   3 irreducible representations

     Representation     1      1 modes -A_1  D_1  S_1  To be done

     Representation     2      1 modes -B_1  D_3  S_3  To be done

     Representation     3      1 modes -B_2  D_4  S_4  To be done



     Alpha used in Ewald sum =   2.8000
     PHONON       :  1m54.92s CPU     2m56.80s WALL



     Representation #  1 mode #   1

     Self-consistent Calculation

      iter #   1 total cpu time :   177.3 secs   av.it.:   6.4
      thresh= 1.000E-02 alpha_mix =  0.700 |ddv_scf|^2 =  4.012E-03

      iter #   2 total cpu time :   184.8 secs   av.it.:   7.4
      thresh= 6.334E-03 alpha_mix =  0.700 |ddv_scf|^2 =  3.843E-01

      iter #   3 total cpu time :   193.2 secs   av.it.:   6.9
      thresh= 1.000E-02 alpha_mix =  0.700 |ddv_scf|^2 =  6.183E-08

      iter #   4 total cpu time :   193.8 secs   av.it.:   9.1
      thresh= 2.487E-05 alpha_mix =  0.700 |ddv_scf|^2 =  1.033E-08

      iter #   5 total cpu time :   194.4 secs   av.it.:   8.6
      thresh= 1.016E-05 alpha_mix =  0.700 |ddv_scf|^2 =  2.024E-10

      iter #   6 total cpu time :   196.4 secs   av.it.:   8.0
      thresh= 1.423E-06 alpha_mix =  0.700 |ddv_scf|^2 =  3.085E-13

      iter #   7 total cpu time :   200.9 secs   av.it.:   9.2
      thresh= 5.554E-08 alpha_mix =  0.700 |ddv_scf|^2 =  7.046E-12

      iter #   8 total cpu time :   204.4 secs   av.it.:   5.8
      thresh= 2.654E-07 alpha_mix =  0.700 |ddv_scf|^2 =  1.175E-13

      iter #   9 total cpu time :   221.7 secs   av.it.:   8.2
      thresh= 3.428E-08 alpha_mix =  0.700 |ddv_scf|^2 =  6.723E-14

      iter #  10 total cpu time :   225.3 secs   av.it.:   6.7
      thresh= 2.593E-08 alpha_mix =  0.700 |ddv_scf|^2 =  3.223E-17

     End of self-consistent calculation

     Convergence has been achieved 


     Representation #  2 mode #   2

     Self-consistent Calculation

      iter #   1 total cpu time :   228.2 secs   av.it.:   5.4
      thresh= 1.000E-02 alpha_mix =  0.700 |ddv_scf|^2 =  1.101E-06

      iter #   2 total cpu time :   228.8 secs   av.it.:   8.5
      thresh= 1.049E-04 alpha_mix =  0.700 |ddv_scf|^2 =  6.688E-08

      iter #   3 total cpu time :   230.8 secs   av.it.:   8.9
      thresh= 2.586E-05 alpha_mix =  0.700 |ddv_scf|^2 =  4.400E-10

      iter #   4 total cpu time :   236.3 secs   av.it.:   8.3
      thresh= 2.098E-06 alpha_mix =  0.700 |ddv_scf|^2 =  8.765E-13

      iter #   5 total cpu time :   241.8 secs   av.it.:   8.3
      thresh= 9.362E-08 alpha_mix =  0.700 |ddv_scf|^2 =  1.667E-14

      iter #   6 total cpu time :   246.5 secs   av.it.:   7.4
      thresh= 1.291E-08 alpha_mix =  0.700 |ddv_scf|^2 =  6.425E-18

     End of self-consistent calculation

     Convergence has been achieved 


     Representation #  3 mode #   3

     Self-consistent Calculation

      iter #   1 total cpu time :   251.3 secs   av.it.:   5.4
      thresh= 1.000E-02 alpha_mix =  0.700 |ddv_scf|^2 =  1.149E-06

      iter #   2 total cpu time :   258.9 secs   av.it.:   8.5
      thresh= 1.072E-04 alpha_mix =  0.700 |ddv_scf|^2 =  6.932E-08

      iter #   3 total cpu time :   264.3 secs   av.it.:   8.8
      thresh= 2.633E-05 alpha_mix =  0.700 |ddv_scf|^2 =  6.632E-10

      iter #   4 total cpu time :   269.7 secs   av.it.:   8.3
      thresh= 2.575E-06 alpha_mix =  0.700 |ddv_scf|^2 =  9.557E-13

      iter #   5 total cpu time :   271.6 secs   av.it.:   8.3
      thresh= 9.776E-08 alpha_mix =  0.700 |ddv_scf|^2 =  1.766E-14

      iter #   6 total cpu time :   277.8 secs   av.it.:   7.1
      thresh= 1.329E-08 alpha_mix =  0.700 |ddv_scf|^2 =  4.544E-18

     End of self-consistent calculation

     Convergence has been achieved 
 
     Number of q in the star =   12
     List of q in the star:
          1   0.000000000  -0.200000000   0.200000000
          2  -0.200000000   0.000000000   0.200000000
          3   0.200000000   0.000000000   0.200000000
          4   0.000000000   0.200000000   0.200000000
          5   0.200000000   0.200000000   0.000000000
          6  -0.200000000   0.200000000   0.000000000
          7   0.200000000  -0.200000000   0.000000000
          8  -0.200000000  -0.200000000   0.000000000
          9  -0.200000000   0.000000000  -0.200000000
         10   0.000000000   0.200000000  -0.200000000
         11   0.000000000  -0.200000000  -0.200000000
         12   0.200000000   0.000000000  -0.200000000

     Diagonalizing the dynamical matrix

     q = (    0.000000000  -0.200000000   0.200000000 ) 

 **************************************************************************
     freq (    1) =       0.816270 [THz] =      27.227833 [cm-1]
     freq (    2) =       3.474938 [THz] =     115.911442 [cm-1]
     freq (    3) =       6.310695 [THz] =     210.502140 [cm-1]
 **************************************************************************

     Mode symmetry, C_2v (mm2)  point group:

     freq (  1 -  1) =         27.2  [cm-1]   --> B_1  D_3  S_3      
     freq (  2 -  2) =        115.9  [cm-1]   --> B_2  D_4  S_4      
     freq (  3 -  3) =        210.5  [cm-1]   --> A_1  D_1  S_1      

     Calculation of q =    0.0000000  -0.3000000   0.3000000
 
     G-vector sticks info
     --------------------
     sticks:   dense  smooth     PW     G-vecs:    dense   smooth      PW
     Sum        1047     531    181                21529     7707    1553
 


     bravais-lattice index     =            3
     lattice parameter (alat)  =       6.2403  a.u.
     unit-cell volume          =     121.5018 (a.u.)^3
     number of atoms/cell      =            1
     number of atomic types    =            1
     number of electrons       =         3.00
     number of Kohn-Sham states=            6
     kinetic-energy cutoff     =      60.0000  Ry
     charge density cutoff     =     480.0000  Ry
     Exchange-correlation      =  SLA  PW   PBX  PBC ( 1  4  3  4 0 0)

     celldm(1)=   6.240282  celldm(2)=   0.000000  celldm(3)=   0.000000
     celldm(4)=   0.000000  celldm(5)=   0.000000  celldm(6)=   0.000000

     crystal axes: (cart. coord. in units of alat)
               a(1) = (   0.500000   0.500000   0.500000 )  
               a(2) = (  -0.500000   0.500000   0.500000 )  
               a(3) = (  -0.500000  -0.500000   0.500000 )  

     reciprocal axes: (cart. coord. in units 2 pi/alat)
               b(1) = (  1.000000  0.000000  1.000000 )  
               b(2) = ( -1.000000  1.000000  0.000000 )  
               b(3) = (  0.000000 -1.000000  1.000000 )  


     PseudoPot. # 1 for Li read from file:
     ../Li.pbe-s-gbrv14.UPF
     MD5 check sum: 7ca33c4f951f001da2db5c8738379802
     Pseudo is Ultrasoft, Zval =  3.0
     Generated by new atomic code, or converted to UPF format
     Using radial grid of  751 points,  5 beta functions with: 
                l(1) =   0
                l(2) =   0
                l(3) =   0
                l(4) =   1
                l(5) =   1
     Q(r) pseudized with 10 coefficients,  rinner =    1.150   1.150   1.150


     atomic species   valence    mass     pseudopotential
        Li             3.00     6.94100     Li( 1.00)

     48 Sym. Ops., with inversion, found



   Cartesian axes

     site n.     atom                  positions (alat units)
         1           Li  tau(   1) = (   0.0000000   0.0000000   0.0000000  )

     number of k points= 11760  Marzari-Vanderbilt smearing, width (Ry)=  0.0200

     Number of k-points >= 100: set verbosity='high' to print them.

     Dense  grid:    21529 G-vectors     FFT dimensions: (  40,  40,  40)

     Smooth grid:     7707 G-vectors     FFT dimensions: (  27,  27,  27)

     Largest allocated arrays     est. size (Mb)     dimensions
        Kohn-Sham Wavefunctions         0.09 Mb     (     968,    6)
        NL pseudopotentials             0.13 Mb     (     968,    9)
        Each V/rho on FFT grid          0.98 Mb     (   64000)
        Each G-vector array             0.16 Mb     (   21529)
        G-vector shells                 0.00 Mb     (     219)
     Largest temporary arrays     est. size (Mb)     dimensions
        Auxiliary wavefunctions         0.35 Mb     (     968,   24)
        Each subspace H/S matrix        0.01 Mb     (      24,   24)
        Each <psi_i|beta_j> matrix      0.00 Mb     (       9,    6)

     The potential is recalculated from file :
     ./tmp/_ph0/li-bcc.save/charge-density.dat

     Starting wfc are    5 atomic +    1 random wfc

     Band Structure Calculation
     Davidson diagonalization with overlap

     ethr =  3.33E-10,  avg # of iterations = 17.0

     total cpu time spent up to now is       33.3 secs

     End of band structure calculation

     Number of k-points >= 100: set verbosity='high' to print the bands.

     the Fermi energy is     1.3455 ev

                                                                                

     bravais-lattice index     =            3
     lattice parameter (alat)  =       6.2403  a.u.
     unit-cell volume          =     121.5018 (a.u.)^3
     number of atoms/cell      =            1
     number of atomic types    =            1
     kinetic-energy cut-off    =      60.0000  Ry
     charge density cut-off    =     480.0000  Ry
     convergence threshold     =      1.0E-16
     beta                      =       0.7000
     number of iterations used =            4
     Exchange-correlation      =  SLA  PW   PBX  PBC ( 1  4  3  4 0 0)


     celldm(1)=    6.24028  celldm(2)=    0.00000  celldm(3)=    0.00000
     celldm(4)=    0.00000  celldm(5)=    0.00000  celldm(6)=    0.00000

     crystal axes: (cart. coord. in units of alat)
               a(1) = (  0.5000  0.5000  0.5000 )  
               a(2) = ( -0.5000  0.5000  0.5000 )  
               a(3) = ( -0.5000 -0.5000  0.5000 )  

     reciprocal axes: (cart. coord. in units 2 pi/alat)
               b(1) = (  1.0000  0.0000  1.0000 )  
               b(2) = ( -1.0000  1.0000  0.0000 )  
               b(3) = (  0.0000 -1.0000  1.0000 )  


     Atoms inside the unit cell: 

     Cartesian axes

     site n.  atom      mass           positions (alat units)
        1     Li   6.9410   tau(    1) = (    0.00000    0.00000    0.00000  )

     Computing dynamical matrix for 
                    q = (   0.0000000  -0.3000000   0.3000000 )
 
      4 Sym.Ops. (no q -> -q+G )


     G cutoff =  473.4672  (  21529 G-vectors)     FFT grid: ( 40, 40, 40)
     G cutoff =  236.7336  (   7707 G-vectors)  smooth grid: ( 27, 27, 27)

     number of k points= 11760  Marzari-Vanderbilt smearing, width (Ry)=  0.0200

     PseudoPot. # 1 for Li read from file:
     ../Li.pbe-s-gbrv14.UPF
     MD5 check sum: 7ca33c4f951f001da2db5c8738379802
     Pseudo is Ultrasoft, Zval =  3.0
     Generated by new atomic code, or converted to UPF format
     Using radial grid of  751 points,  5 beta functions with: 
                l(1) =   0
                l(2) =   0
                l(3) =   0
                l(4) =   1
                l(5) =   1
     Q(r) pseudized with 10 coefficients,  rinner =    1.150   1.150   1.150


     Mode symmetry, C_2v (mm2)  point group:


     Atomic displacements:
     There are   3 irreducible representations

     Representation     1      1 modes -A_1  D_1  S_1  To be done

     Representation     2      1 modes -B_1  D_3  S_3  To be done

     Representation     3      1 modes -B_2  D_4  S_4  To be done



     Alpha used in Ewald sum =   2.8000
     PHONON       :  3m34.26s CPU     4m59.39s WALL



     Representation #  1 mode #   1

     Self-consistent Calculation

      iter #   1 total cpu time :   299.9 secs   av.it.:   6.4
      thresh= 1.000E-02 alpha_mix =  0.700 |ddv_scf|^2 =  2.825E-04

      iter #   2 total cpu time :   301.8 secs   av.it.:   7.9
      thresh= 1.681E-03 alpha_mix =  0.700 |ddv_scf|^2 =  3.607E-03

      iter #   3 total cpu time :   311.6 secs   av.it.:   6.4
      thresh= 6.006E-03 alpha_mix =  0.700 |ddv_scf|^2 =  7.940E-08

      iter #   4 total cpu time :   324.2 secs   av.it.:   8.8
      thresh= 2.818E-05 alpha_mix =  0.700 |ddv_scf|^2 =  2.724E-09

      iter #   5 total cpu time :   326.8 secs   av.it.:   8.8
      thresh= 5.219E-06 alpha_mix =  0.700 |ddv_scf|^2 =  1.743E-11

      iter #   6 total cpu time :   327.8 secs   av.it.:   8.8
      thresh= 4.174E-07 alpha_mix =  0.700 |ddv_scf|^2 =  3.001E-13

      iter #   7 total cpu time :   328.5 secs   av.it.:   9.4
      thresh= 5.478E-08 alpha_mix =  0.700 |ddv_scf|^2 =  6.695E-16

      iter #   8 total cpu time :   329.2 secs   av.it.:   9.5
      thresh= 2.587E-09 alpha_mix =  0.700 |ddv_scf|^2 =  2.458E-16

      iter #   9 total cpu time :   329.9 secs   av.it.:   8.1
      thresh= 1.568E-09 alpha_mix =  0.700 |ddv_scf|^2 =  6.651E-16

      iter #  10 total cpu time :   330.5 secs   av.it.:   7.4
      thresh= 2.579E-09 alpha_mix =  0.700 |ddv_scf|^2 =  1.162E-16

      iter #  11 total cpu time :   331.1 secs   av.it.:   6.8
      thresh= 1.078E-09 alpha_mix =  0.700 |ddv_scf|^2 =  1.016E-18

     End of self-consistent calculation

     Convergence has been achieved 


     Representation #  2 mode #   2

     Self-consistent Calculation

      iter #   1 total cpu time :   343.4 secs   av.it.:   5.4
      thresh= 1.000E-02 alpha_mix =  0.700 |ddv_scf|^2 =  1.116E-06

      iter #   2 total cpu time :   345.6 secs   av.it.:   8.5
      thresh= 1.057E-04 alpha_mix =  0.700 |ddv_scf|^2 =  6.712E-08

      iter #   3 total cpu time :   347.8 secs   av.it.:   8.9
      thresh= 2.591E-05 alpha_mix =  0.700 |ddv_scf|^2 =  5.289E-10

      iter #   4 total cpu time :   357.2 secs   av.it.:   8.2
      thresh= 2.300E-06 alpha_mix =  0.700 |ddv_scf|^2 =  8.078E-13

      iter #   5 total cpu time :   365.0 secs   av.it.:   8.4
      thresh= 8.988E-08 alpha_mix =  0.700 |ddv_scf|^2 =  1.695E-14

      iter #   6 total cpu time :   367.7 secs   av.it.:   7.3
      thresh= 1.302E-08 alpha_mix =  0.700 |ddv_scf|^2 =  7.187E-18

     End of self-consistent calculation

     Convergence has been achieved 


     Representation #  3 mode #   3

     Self-consistent Calculation

      iter #   1 total cpu time :   385.5 secs   av.it.:   5.5
      thresh= 1.000E-02 alpha_mix =  0.700 |ddv_scf|^2 =  1.209E-06

      iter #   2 total cpu time :   386.8 secs   av.it.:   8.5
      thresh= 1.099E-04 alpha_mix =  0.700 |ddv_scf|^2 =  7.189E-08

      iter #   3 total cpu time :   387.6 secs   av.it.:   8.8
      thresh= 2.681E-05 alpha_mix =  0.700 |ddv_scf|^2 =  9.893E-10

      iter #   4 total cpu time :   388.2 secs   av.it.:   8.2
      thresh= 3.145E-06 alpha_mix =  0.700 |ddv_scf|^2 =  1.077E-12

      iter #   5 total cpu time :   389.7 secs   av.it.:   8.4
      thresh= 1.038E-07 alpha_mix =  0.700 |ddv_scf|^2 =  2.045E-14

      iter #   6 total cpu time :   392.3 secs   av.it.:   7.4
      thresh= 1.430E-08 alpha_mix =  0.700 |ddv_scf|^2 =  4.041E-18

     End of self-consistent calculation

     Convergence has been achieved 
 
     Number of q in the star =   12
     List of q in the star:
          1   0.000000000  -0.300000000   0.300000000
          2  -0.300000000   0.000000000   0.300000000
          3   0.300000000   0.000000000   0.300000000
          4   0.000000000   0.300000000   0.300000000
          5   0.300000000   0.300000000   0.000000000
          6  -0.300000000   0.300000000   0.000000000
          7   0.300000000  -0.300000000   0.000000000
          8  -0.300000000  -0.300000000   0.000000000
          9  -0.300000000   0.000000000  -0.300000000
         10   0.000000000   0.300000000  -0.300000000
         11   0.000000000  -0.300000000  -0.300000000
         12   0.300000000   0.000000000  -0.300000000

     Diagonalizing the dynamical matrix

     q = (    0.000000000  -0.300000000   0.300000000 ) 

 **************************************************************************
     freq (    1) =       1.144897 [THz] =      38.189645 [cm-1]
     freq (    2) =       4.740927 [THz] =     158.140313 [cm-1]
     freq (    3) =       9.021789 [THz] =     300.934499 [cm-1]
 **************************************************************************

     Mode symmetry, C_2v (mm2)  point group:

     freq (  1 -  1) =         38.2  [cm-1]   --> B_1  D_3  S_3      
     freq (  2 -  2) =        158.1  [cm-1]   --> B_2  D_4  S_4      
     freq (  3 -  3) =        300.9  [cm-1]   --> A_1  D_1  S_1      

     Calculation of q =    0.0000000  -0.4000000   0.4000000
 
     G-vector sticks info
     --------------------
     sticks:   dense  smooth     PW     G-vecs:    dense   smooth      PW
     Sum        1047     531    181                21529     7707    1601
 


     bravais-lattice index     =            3
     lattice parameter (alat)  =       6.2403  a.u.
     unit-cell volume          =     121.5018 (a.u.)^3
     number of atoms/cell      =            1
     number of atomic types    =            1
     number of electrons       =         3.00
     number of Kohn-Sham states=            6
     kinetic-energy cutoff     =      60.0000  Ry
     charge density cutoff     =     480.0000  Ry
     Exchange-correlation      =  SLA  PW   PBX  PBC ( 1  4  3  4 0 0)

     celldm(1)=   6.240282  celldm(2)=   0.000000  celldm(3)=   0.000000
     celldm(4)=   0.000000  celldm(5)=   0.000000  celldm(6)=   0.000000

     crystal axes: (cart. coord. in units of alat)
               a(1) = (   0.500000   0.500000   0.500000 )  
               a(2) = (  -0.500000   0.500000   0.500000 )  
               a(3) = (  -0.500000  -0.500000   0.500000 )  

     reciprocal axes: (cart. coord. in units 2 pi/alat)
               b(1) = (  1.000000  0.000000  1.000000 )  
               b(2) = ( -1.000000  1.000000  0.000000 )  
               b(3) = (  0.000000 -1.000000  1.000000 )  


     PseudoPot. # 1 for Li read from file:
     ../Li.pbe-s-gbrv14.UPF
     MD5 check sum: 7ca33c4f951f001da2db5c8738379802
     Pseudo is Ultrasoft, Zval =  3.0
     Generated by new atomic code, or converted to UPF format
     Using radial grid of  751 points,  5 beta functions with: 
                l(1) =   0
                l(2) =   0
                l(3) =   0
                l(4) =   1
                l(5) =   1
     Q(r) pseudized with 10 coefficients,  rinner =    1.150   1.150   1.150


     atomic species   valence    mass     pseudopotential
        Li             3.00     6.94100     Li( 1.00)

     48 Sym. Ops., with inversion, found



   Cartesian axes

     site n.     atom                  positions (alat units)
         1           Li  tau(   1) = (   0.0000000   0.0000000   0.0000000  )

     number of k points= 11760  Marzari-Vanderbilt smearing, width (Ry)=  0.0200

     Number of k-points >= 100: set verbosity='high' to print them.

     Dense  grid:    21529 G-vectors     FFT dimensions: (  40,  40,  40)

     Smooth grid:     7707 G-vectors     FFT dimensions: (  27,  27,  27)

     Largest allocated arrays     est. size (Mb)     dimensions
        Kohn-Sham Wavefunctions         0.09 Mb     (     968,    6)
        NL pseudopotentials             0.13 Mb     (     968,    9)
        Each V/rho on FFT grid          0.98 Mb     (   64000)
        Each G-vector array             0.16 Mb     (   21529)
        G-vector shells                 0.00 Mb     (     219)
     Largest temporary arrays     est. size (Mb)     dimensions
        Auxiliary wavefunctions         0.35 Mb     (     968,   24)
        Each subspace H/S matrix        0.01 Mb     (      24,   24)
        Each <psi_i|beta_j> matrix      0.00 Mb     (       9,    6)

     The potential is recalculated from file :
     ./tmp/_ph0/li-bcc.save/charge-density.dat

     Starting wfc are    5 atomic +    1 random wfc

     Band Structure Calculation
     Davidson diagonalization with overlap

     ethr =  3.33E-10,  avg # of iterations = 17.0

     total cpu time spent up to now is       43.2 secs

     End of band structure calculation

     Number of k-points >= 100: set verbosity='high' to print the bands.

     the Fermi energy is     1.3455 ev

                                                                                

     bravais-lattice index     =            3
     lattice parameter (alat)  =       6.2403  a.u.
     unit-cell volume          =     121.5018 (a.u.)^3
     number of atoms/cell      =            1
     number of atomic types    =            1
     kinetic-energy cut-off    =      60.0000  Ry
     charge density cut-off    =     480.0000  Ry
     convergence threshold     =      1.0E-16
     beta                      =       0.7000
     number of iterations used =            4
     Exchange-correlation      =  SLA  PW   PBX  PBC ( 1  4  3  4 0 0)


     celldm(1)=    6.24028  celldm(2)=    0.00000  celldm(3)=    0.00000
     celldm(4)=    0.00000  celldm(5)=    0.00000  celldm(6)=    0.00000

     crystal axes: (cart. coord. in units of alat)
               a(1) = (  0.5000  0.5000  0.5000 )  
               a(2) = ( -0.5000  0.5000  0.5000 )  
               a(3) = ( -0.5000 -0.5000  0.5000 )  

     reciprocal axes: (cart. coord. in units 2 pi/alat)
               b(1) = (  1.0000  0.0000  1.0000 )  
               b(2) = ( -1.0000  1.0000  0.0000 )  
               b(3) = (  0.0000 -1.0000  1.0000 )  


     Atoms inside the unit cell: 

     Cartesian axes

     site n.  atom      mass           positions (alat units)
        1     Li   6.9410   tau(    1) = (    0.00000    0.00000    0.00000  )

     Computing dynamical matrix for 
                    q = (   0.0000000  -0.4000000   0.4000000 )
 
      4 Sym.Ops. (no q -> -q+G )


     G cutoff =  473.4672  (  21529 G-vectors)     FFT grid: ( 40, 40, 40)
     G cutoff =  236.7336  (   7707 G-vectors)  smooth grid: ( 27, 27, 27)

     number of k points= 11760  Marzari-Vanderbilt smearing, width (Ry)=  0.0200

     PseudoPot. # 1 for Li read from file:
     ../Li.pbe-s-gbrv14.UPF
     MD5 check sum: 7ca33c4f951f001da2db5c8738379802
     Pseudo is Ultrasoft, Zval =  3.0
     Generated by new atomic code, or converted to UPF format
     Using radial grid of  751 points,  5 beta functions with: 
                l(1) =   0
                l(2) =   0
                l(3) =   0
                l(4) =   1
                l(5) =   1
     Q(r) pseudized with 10 coefficients,  rinner =    1.150   1.150   1.150


     Mode symmetry, C_2v (mm2)  point group:


     Atomic displacements:
     There are   3 irreducible representations

     Representation     1      1 modes -A_1  D_1  S_1  To be done

     Representation     2      1 modes -B_1  D_3  S_3  To be done

     Representation     3      1 modes -B_2  D_4  S_4  To be done



     Alpha used in Ewald sum =   2.8000
     PHONON       :  5m 2.71s CPU     6m51.56s WALL



     Representation #  1 mode #   1

     Self-consistent Calculation

      iter #   1 total cpu time :   412.1 secs   av.it.:   6.4
      thresh= 1.000E-02 alpha_mix =  0.700 |ddv_scf|^2 =  4.109E-05

      iter #   2 total cpu time :   415.8 secs   av.it.:   8.5
      thresh= 6.410E-04 alpha_mix =  0.700 |ddv_scf|^2 =  8.821E-05

      iter #   3 total cpu time :   419.0 secs   av.it.:   7.2
      thresh= 9.392E-04 alpha_mix =  0.700 |ddv_scf|^2 =  6.782E-08

      iter #   4 total cpu time :   424.6 secs   av.it.:   8.6
      thresh= 2.604E-05 alpha_mix =  0.700 |ddv_scf|^2 =  3.648E-09

      iter #   5 total cpu time :   437.1 secs   av.it.:   8.7
      thresh= 6.040E-06 alpha_mix =  0.700 |ddv_scf|^2 =  4.266E-12

      iter #   6 total cpu time :   439.3 secs   av.it.:   8.9
      thresh= 2.065E-07 alpha_mix =  0.700 |ddv_scf|^2 =  2.049E-13

      iter #   7 total cpu time :   441.8 secs   av.it.:   8.8
      thresh= 4.527E-08 alpha_mix =  0.700 |ddv_scf|^2 =  9.210E-16

      iter #   8 total cpu time :   444.6 secs   av.it.:   9.4
      thresh= 3.035E-09 alpha_mix =  0.700 |ddv_scf|^2 =  6.930E-17

     End of self-consistent calculation

     Convergence has been achieved 


     Representation #  2 mode #   2

     Self-consistent Calculation

      iter #   1 total cpu time :   446.8 secs   av.it.:   5.5
      thresh= 1.000E-02 alpha_mix =  0.700 |ddv_scf|^2 =  1.130E-06

      iter #   2 total cpu time :   460.9 secs   av.it.:   8.6
      thresh= 1.063E-04 alpha_mix =  0.700 |ddv_scf|^2 =  6.733E-08

      iter #   3 total cpu time :   461.5 secs   av.it.:   8.9
      thresh= 2.595E-05 alpha_mix =  0.700 |ddv_scf|^2 =  6.203E-10

      iter #   4 total cpu time :   463.8 secs   av.it.:   8.1
      thresh= 2.491E-06 alpha_mix =  0.700 |ddv_scf|^2 =  7.574E-13

      iter #   5 total cpu time :   464.4 secs   av.it.:   8.4
      thresh= 8.703E-08 alpha_mix =  0.700 |ddv_scf|^2 =  1.759E-14

      iter #   6 total cpu time :   465.9 secs   av.it.:   7.6
      thresh= 1.326E-08 alpha_mix =  0.700 |ddv_scf|^2 =  7.319E-18

     End of self-consistent calculation

     Convergence has been achieved 


     Representation #  3 mode #   3

     Self-consistent Calculation

      iter #   1 total cpu time :   477.6 secs   av.it.:   5.6
      thresh= 1.000E-02 alpha_mix =  0.700 |ddv_scf|^2 =  1.259E-06

      iter #   2 total cpu time :   482.2 secs   av.it.:   8.6
      thresh= 1.122E-04 alpha_mix =  0.700 |ddv_scf|^2 =  7.408E-08

      iter #   3 total cpu time :   492.9 secs   av.it.:   8.8
      thresh= 2.722E-05 alpha_mix =  0.700 |ddv_scf|^2 =  1.298E-09

      iter #   4 total cpu time :   494.9 secs   av.it.:   8.1
      thresh= 3.603E-06 alpha_mix =  0.700 |ddv_scf|^2 =  1.204E-12

      iter #   5 total cpu time :   497.3 secs   av.it.:   8.4
      thresh= 1.097E-07 alpha_mix =  0.700 |ddv_scf|^2 =  2.178E-14

      iter #   6 total cpu time :   497.9 secs   av.it.:   7.7
      thresh= 1.476E-08 alpha_mix =  0.700 |ddv_scf|^2 =  3.546E-18

     End of self-consistent calculation

     Convergence has been achieved 
 
     Number of q in the star =   12
     List of q in the star:
          1   0.000000000  -0.400000000   0.400000000
          2  -0.400000000   0.000000000   0.400000000
          3   0.400000000   0.000000000   0.400000000
          4   0.000000000   0.400000000   0.400000000
          5   0.400000000   0.400000000   0.000000000
          6  -0.400000000   0.400000000   0.000000000
          7   0.400000000  -0.400000000   0.000000000
          8  -0.400000000  -0.400000000   0.000000000
          9  -0.400000000   0.000000000  -0.400000000
         10   0.000000000   0.400000000  -0.400000000
         11   0.000000000  -0.400000000  -0.400000000
         12   0.400000000   0.000000000  -0.400000000

     Diagonalizing the dynamical matrix

     q = (    0.000000000  -0.400000000   0.400000000 ) 

 **************************************************************************
     freq (    1) =       1.412174 [THz] =      47.105050 [cm-1]
     freq (    2) =       5.553677 [THz] =     185.250728 [cm-1]
     freq (    3) =      10.662820 [THz] =     355.673403 [cm-1]
 **************************************************************************

     Mode symmetry, C_2v (mm2)  point group:

     freq (  1 -  1) =         47.1  [cm-1]   --> B_1  D_3  S_3      
     freq (  2 -  2) =        185.3  [cm-1]   --> B_2  D_4  S_4      
     freq (  3 -  3) =        355.7  [cm-1]   --> A_1  D_1  S_1      

     Calculation of q =    0.0000000   0.5000000  -0.5000000
 
     G-vector sticks info
     --------------------
     sticks:   dense  smooth     PW     G-vecs:    dense   smooth      PW
     Sum        1047     531    197                21529     7707    1721
 


     bravais-lattice index     =            3
     lattice parameter (alat)  =       6.2403  a.u.
     unit-cell volume          =     121.5018 (a.u.)^3
     number of atoms/cell      =            1
     number of atomic types    =            1
     number of electrons       =         3.00
     number of Kohn-Sham states=            6
     kinetic-energy cutoff     =      60.0000  Ry
     charge density cutoff     =     480.0000  Ry
     Exchange-correlation      =  SLA  PW   PBX  PBC ( 1  4  3  4 0 0)

     celldm(1)=   6.240282  celldm(2)=   0.000000  celldm(3)=   0.000000
     celldm(4)=   0.000000  celldm(5)=   0.000000  celldm(6)=   0.000000

     crystal axes: (cart. coord. in units of alat)
               a(1) = (   0.500000   0.500000   0.500000 )  
               a(2) = (  -0.500000   0.500000   0.500000 )  
               a(3) = (  -0.500000  -0.500000   0.500000 )  

     reciprocal axes: (cart. coord. in units 2 pi/alat)
               b(1) = (  1.000000  0.000000  1.000000 )  
               b(2) = ( -1.000000  1.000000  0.000000 )  
               b(3) = (  0.000000 -1.000000  1.000000 )  


     PseudoPot. # 1 for Li read from file:
     ../Li.pbe-s-gbrv14.UPF
     MD5 check sum: 7ca33c4f951f001da2db5c8738379802
     Pseudo is Ultrasoft, Zval =  3.0
     Generated by new atomic code, or converted to UPF format
     Using radial grid of  751 points,  5 beta functions with: 
                l(1) =   0
                l(2) =   0
                l(3) =   0
                l(4) =   1
                l(5) =   1
     Q(r) pseudized with 10 coefficients,  rinner =    1.150   1.150   1.150


     atomic species   valence    mass     pseudopotential
        Li             3.00     6.94100     Li( 1.00)

     48 Sym. Ops., with inversion, found



   Cartesian axes

     site n.     atom                  positions (alat units)
         1           Li  tau(   1) = (   0.0000000   0.0000000   0.0000000  )

     number of k points=  6090  Marzari-Vanderbilt smearing, width (Ry)=  0.0200

     Number of k-points >= 100: set verbosity='high' to print them.

     Dense  grid:    21529 G-vectors     FFT dimensions: (  40,  40,  40)

     Smooth grid:     7707 G-vectors     FFT dimensions: (  27,  27,  27)

     Largest allocated arrays     est. size (Mb)     dimensions
        Kohn-Sham Wavefunctions         0.09 Mb     (     968,    6)
        NL pseudopotentials             0.13 Mb     (     968,    9)
        Each V/rho on FFT grid          0.98 Mb     (   64000)
        Each G-vector array             0.16 Mb     (   21529)
        G-vector shells                 0.00 Mb     (     219)
     Largest temporary arrays     est. size (Mb)     dimensions
        Auxiliary wavefunctions         0.35 Mb     (     968,   24)
        Each subspace H/S matrix        0.01 Mb     (      24,   24)
        Each <psi_i|beta_j> matrix      0.00 Mb     (       9,    6)

     The potential is recalculated from file :
     ./tmp/_ph0/li-bcc.save/charge-density.dat

     Starting wfc are    5 atomic +    1 random wfc

     Band Structure Calculation
     Davidson diagonalization with overlap

     ethr =  3.33E-10,  avg # of iterations = 17.0

     total cpu time spent up to now is       46.6 secs

     End of band structure calculation

     Number of k-points >= 100: set verbosity='high' to print the bands.

     the Fermi energy is     1.3455 ev

                                                                                

     bravais-lattice index     =            3
     lattice parameter (alat)  =       6.2403  a.u.
     unit-cell volume          =     121.5018 (a.u.)^3
     number of atoms/cell      =            1
     number of atomic types    =            1
     kinetic-energy cut-off    =      60.0000  Ry
     charge density cut-off    =     480.0000  Ry
     convergence threshold     =      1.0E-16
     beta                      =       0.7000
     number of iterations used =            4
     Exchange-correlation      =  SLA  PW   PBX  PBC ( 1  4  3  4 0 0)


     celldm(1)=    6.24028  celldm(2)=    0.00000  celldm(3)=    0.00000
     celldm(4)=    0.00000  celldm(5)=    0.00000  celldm(6)=    0.00000

     crystal axes: (cart. coord. in units of alat)
               a(1) = (  0.5000  0.5000  0.5000 )  
               a(2) = ( -0.5000  0.5000  0.5000 )  
               a(3) = ( -0.5000 -0.5000  0.5000 )  

     reciprocal axes: (cart. coord. in units 2 pi/alat)
               b(1) = (  1.0000  0.0000  1.0000 )  
               b(2) = ( -1.0000  1.0000  0.0000 )  
               b(3) = (  0.0000 -1.0000  1.0000 )  


     Atoms inside the unit cell: 

     Cartesian axes

     site n.  atom      mass           positions (alat units)
        1     Li   6.9410   tau(    1) = (    0.00000    0.00000    0.00000  )

     Computing dynamical matrix for 
                    q = (   0.0000000   0.5000000  -0.5000000 )
 
      9 Sym.Ops. (with q -> -q+G )


     G cutoff =  473.4672  (  21529 G-vectors)     FFT grid: ( 40, 40, 40)
     G cutoff =  236.7336  (   7707 G-vectors)  smooth grid: ( 27, 27, 27)

     number of k points=  6090  Marzari-Vanderbilt smearing, width (Ry)=  0.0200

     PseudoPot. # 1 for Li read from file:
     ../Li.pbe-s-gbrv14.UPF
     MD5 check sum: 7ca33c4f951f001da2db5c8738379802
     Pseudo is Ultrasoft, Zval =  3.0
     Generated by new atomic code, or converted to UPF format
     Using radial grid of  751 points,  5 beta functions with: 
                l(1) =   0
                l(2) =   0
                l(3) =   0
                l(4) =   1
                l(5) =   1
     Q(r) pseudized with 10 coefficients,  rinner =    1.150   1.150   1.150


     Mode symmetry, D_2h (mmm)  point group:


     Atomic displacements:
     There are   3 irreducible representations

     Representation     1      1 modes -B_1u  To be done

     Representation     2      1 modes -B_2u  To be done

     Representation     3      1 modes -B_3u  To be done



     Alpha used in Ewald sum =   2.8000
     PHONON       :  6m16.54s CPU     8m25.93s WALL



     Representation #  1 mode #   1

     Self-consistent Calculation

      iter #   1 total cpu time :   506.3 secs   av.it.:   5.7
      thresh= 1.000E-02 alpha_mix =  0.700 |ddv_scf|^2 =  1.279E-06

      iter #   2 total cpu time :   508.2 secs   av.it.:   8.5
      thresh= 1.131E-04 alpha_mix =  0.700 |ddv_scf|^2 =  7.495E-08

      iter #   3 total cpu time :   512.0 secs   av.it.:   8.8
      thresh= 2.738E-05 alpha_mix =  0.700 |ddv_scf|^2 =  1.428E-09

      iter #   4 total cpu time :   515.3 secs   av.it.:   8.1
      thresh= 3.778E-06 alpha_mix =  0.700 |ddv_scf|^2 =  1.257E-12

      iter #   5 total cpu time :   516.3 secs   av.it.:   8.4
      thresh= 1.121E-07 alpha_mix =  0.700 |ddv_scf|^2 =  2.172E-14

      iter #   6 total cpu time :   518.7 secs   av.it.:   7.7
      thresh= 1.474E-08 alpha_mix =  0.700 |ddv_scf|^2 =  3.330E-18

     End of self-consistent calculation

     Convergence has been achieved 


     Representation #  2 mode #   2

     Self-consistent Calculation

      iter #   1 total cpu time :   541.1 secs   av.it.:   5.5
      thresh= 1.000E-02 alpha_mix =  0.700 |ddv_scf|^2 =  1.136E-06

      iter #   2 total cpu time :   551.7 secs   av.it.:   8.6
      thresh= 1.066E-04 alpha_mix =  0.700 |ddv_scf|^2 =  6.740E-08

      iter #   3 total cpu time :   556.3 secs   av.it.:   8.9
      thresh= 2.596E-05 alpha_mix =  0.700 |ddv_scf|^2 =  6.597E-10

      iter #   4 total cpu time :   564.8 secs   av.it.:   8.0
      thresh= 2.568E-06 alpha_mix =  0.700 |ddv_scf|^2 =  7.361E-13

      iter #   5 total cpu time :   576.5 secs   av.it.:   8.4
      thresh= 8.580E-08 alpha_mix =  0.700 |ddv_scf|^2 =  1.778E-14

      iter #   6 total cpu time :   585.2 secs   av.it.:   7.7
      thresh= 1.333E-08 alpha_mix =  0.700 |ddv_scf|^2 =  7.087E-18

     End of self-consistent calculation

     Convergence has been achieved 


     Representation #  3 mode #   3

     Self-consistent Calculation

      iter #   1 total cpu time :   589.2 secs   av.it.:   6.3
      thresh= 1.000E-02 alpha_mix =  0.700 |ddv_scf|^2 =  1.575E-05

      iter #   2 total cpu time :   594.2 secs   av.it.:   8.4
      thresh= 3.968E-04 alpha_mix =  0.700 |ddv_scf|^2 =  5.285E-06

      iter #   3 total cpu time :   596.2 secs   av.it.:   7.8
      thresh= 2.299E-04 alpha_mix =  0.700 |ddv_scf|^2 =  1.948E-08

      iter #   4 total cpu time :   599.0 secs   av.it.:   8.6
      thresh= 1.396E-05 alpha_mix =  0.700 |ddv_scf|^2 =  1.085E-11

      iter #   5 total cpu time :   617.1 secs   av.it.:   8.1
      thresh= 3.293E-07 alpha_mix =  0.700 |ddv_scf|^2 =  6.107E-13

      iter #   6 total cpu time :   619.6 secs   av.it.:   8.5
      thresh= 7.815E-08 alpha_mix =  0.700 |ddv_scf|^2 =  2.844E-15

      iter #   7 total cpu time :   621.9 secs   av.it.:   8.4
      thresh= 5.333E-09 alpha_mix =  0.700 |ddv_scf|^2 =  2.942E-18

     End of self-consistent calculation

     Convergence has been achieved 
 
     Number of q in the star =    6
     List of q in the star:
          1   0.000000000   0.500000000  -0.500000000
          2  -0.500000000  -0.500000000   0.000000000
          3   0.500000000  -0.500000000   0.000000000
          4   0.500000000   0.000000000   0.500000000
          5   0.500000000   0.000000000  -0.500000000
          6   0.000000000  -0.500000000  -0.500000000

     Diagonalizing the dynamical matrix

     q = (    0.000000000   0.500000000  -0.500000000 ) 

 **************************************************************************
     freq (    1) =       1.522387 [THz] =      50.781365 [cm-1]
     freq (    2) =       5.837547 [THz] =     194.719600 [cm-1]
     freq (    3) =      11.212017 [THz] =     373.992623 [cm-1]
 **************************************************************************

     Mode symmetry, D_2h (mmm)  point group:

     freq (  1 -  1) =         50.8  [cm-1]   --> B_2u               
     freq (  2 -  2) =        194.7  [cm-1]   --> B_1u               
     freq (  3 -  3) =        374.0  [cm-1]   --> B_3u               

     Calculation of q =   -0.1000000  -0.1000000   0.2000000
 
     G-vector sticks info
     --------------------
     sticks:   dense  smooth     PW     G-vecs:    dense   smooth      PW
     Sum        1047     531    173                21529     7707    1481
 


     bravais-lattice index     =            3
     lattice parameter (alat)  =       6.2403  a.u.
     unit-cell volume          =     121.5018 (a.u.)^3
     number of atoms/cell      =            1
     number of atomic types    =            1
     number of electrons       =         3.00
     number of Kohn-Sham states=            6
     kinetic-energy cutoff     =      60.0000  Ry
     charge density cutoff     =     480.0000  Ry
     Exchange-correlation      =  SLA  PW   PBX  PBC ( 1  4  3  4 0 0)

     celldm(1)=   6.240282  celldm(2)=   0.000000  celldm(3)=   0.000000
     celldm(4)=   0.000000  celldm(5)=   0.000000  celldm(6)=   0.000000

     crystal axes: (cart. coord. in units of alat)
               a(1) = (   0.500000   0.500000   0.500000 )  
               a(2) = (  -0.500000   0.500000   0.500000 )  
               a(3) = (  -0.500000  -0.500000   0.500000 )  

     reciprocal axes: (cart. coord. in units 2 pi/alat)
               b(1) = (  1.000000  0.000000  1.000000 )  
               b(2) = ( -1.000000  1.000000  0.000000 )  
               b(3) = (  0.000000 -1.000000  1.000000 )  


     PseudoPot. # 1 for Li read from file:
     ../Li.pbe-s-gbrv14.UPF
     MD5 check sum: 7ca33c4f951f001da2db5c8738379802
     Pseudo is Ultrasoft, Zval =  3.0
     Generated by new atomic code, or converted to UPF format
     Using radial grid of  751 points,  5 beta functions with: 
                l(1) =   0
                l(2) =   0
                l(3) =   0
                l(4) =   1
                l(5) =   1
     Q(r) pseudized with 10 coefficients,  rinner =    1.150   1.150   1.150


     atomic species   valence    mass     pseudopotential
        Li             3.00     6.94100     Li( 1.00)

     48 Sym. Ops., with inversion, found



   Cartesian axes

     site n.     atom                  positions (alat units)
         1           Li  tau(   1) = (   0.0000000   0.0000000   0.0000000  )

     number of k points= 22736  Marzari-Vanderbilt smearing, width (Ry)=  0.0200

     Number of k-points >= 100: set verbosity='high' to print them.

     Dense  grid:    21529 G-vectors     FFT dimensions: (  40,  40,  40)

     Smooth grid:     7707 G-vectors     FFT dimensions: (  27,  27,  27)

     Largest allocated arrays     est. size (Mb)     dimensions
        Kohn-Sham Wavefunctions         0.09 Mb     (     968,    6)
        NL pseudopotentials             0.13 Mb     (     968,    9)
        Each V/rho on FFT grid          0.98 Mb     (   64000)
        Each G-vector array             0.16 Mb     (   21529)
        G-vector shells                 0.00 Mb     (     219)
     Largest temporary arrays     est. size (Mb)     dimensions
        Auxiliary wavefunctions         0.35 Mb     (     968,   24)
        Each subspace H/S matrix        0.01 Mb     (      24,   24)
        Each <psi_i|beta_j> matrix      0.00 Mb     (       9,    6)

     The potential is recalculated from file :
     ./tmp/_ph0/li-bcc.save/charge-density.dat

     Starting wfc are    5 atomic +    1 random wfc

     Band Structure Calculation
     Davidson diagonalization with overlap

     ethr =  3.33E-10,  avg # of iterations = 17.0

     total cpu time spent up to now is       57.1 secs

     End of band structure calculation

     Number of k-points >= 100: set verbosity='high' to print the bands.

     the Fermi energy is     1.3455 ev

                                                                                

     bravais-lattice index     =            3
     lattice parameter (alat)  =       6.2403  a.u.
     unit-cell volume          =     121.5018 (a.u.)^3
     number of atoms/cell      =            1
     number of atomic types    =            1
     kinetic-energy cut-off    =      60.0000  Ry
     charge density cut-off    =     480.0000  Ry
     convergence threshold     =      1.0E-16
     beta                      =       0.7000
     number of iterations used =            4
     Exchange-correlation      =  SLA  PW   PBX  PBC ( 1  4  3  4 0 0)


     celldm(1)=    6.24028  celldm(2)=    0.00000  celldm(3)=    0.00000
     celldm(4)=    0.00000  celldm(5)=    0.00000  celldm(6)=    0.00000

     crystal axes: (cart. coord. in units of alat)
               a(1) = (  0.5000  0.5000  0.5000 )  
               a(2) = ( -0.5000  0.5000  0.5000 )  
               a(3) = ( -0.5000 -0.5000  0.5000 )  

     reciprocal axes: (cart. coord. in units 2 pi/alat)
               b(1) = (  1.0000  0.0000  1.0000 )  
               b(2) = ( -1.0000  1.0000  0.0000 )  
               b(3) = (  0.0000 -1.0000  1.0000 )  


     Atoms inside the unit cell: 

     Cartesian axes

     site n.  atom      mass           positions (alat units)
        1     Li   6.9410   tau(    1) = (    0.00000    0.00000    0.00000  )

     Computing dynamical matrix for 
                    q = (  -0.1000000  -0.1000000   0.2000000 )
 
      2 Sym.Ops. (no q -> -q+G )


     G cutoff =  473.4672  (  21529 G-vectors)     FFT grid: ( 40, 40, 40)
     G cutoff =  236.7336  (   7707 G-vectors)  smooth grid: ( 27, 27, 27)

     number of k points= 22736  Marzari-Vanderbilt smearing, width (Ry)=  0.0200

     PseudoPot. # 1 for Li read from file:
     ../Li.pbe-s-gbrv14.UPF
     MD5 check sum: 7ca33c4f951f001da2db5c8738379802
     Pseudo is Ultrasoft, Zval =  3.0
     Generated by new atomic code, or converted to UPF format
     Using radial grid of  751 points,  5 beta functions with: 
                l(1) =   0
                l(2) =   0
                l(3) =   0
                l(4) =   1
                l(5) =   1
     Q(r) pseudized with 10 coefficients,  rinner =    1.150   1.150   1.150


     Mode symmetry, C_s (m)     point group:


     Atomic displacements:
     There are   3 irreducible representations

     Representation     1      1 modes -A'  To be done

     Representation     2      1 modes -A'  To be done

     Representation     3      1 modes -A''  To be done



     Alpha used in Ewald sum =   2.8000
     PHONON       :  8m 2.57s CPU    10m50.04s WALL



     Representation #  1 mode #   1

     Self-consistent Calculation

      iter #   1 total cpu time :   651.0 secs   av.it.:   6.1
      thresh= 1.000E-02 alpha_mix =  0.700 |ddv_scf|^2 =  1.008E-03

      iter #   2 total cpu time :   656.0 secs   av.it.:   7.4
      thresh= 3.175E-03 alpha_mix =  0.700 |ddv_scf|^2 =  1.881E-01

      iter #   3 total cpu time :   659.9 secs   av.it.:   6.1
      thresh= 1.000E-02 alpha_mix =  0.700 |ddv_scf|^2 =  1.718E-07

      iter #   4 total cpu time :   675.0 secs   av.it.:   8.8
      thresh= 4.145E-05 alpha_mix =  0.700 |ddv_scf|^2 =  4.955E-09

      iter #   5 total cpu time :   685.4 secs   av.it.:   8.9
      thresh= 7.039E-06 alpha_mix =  0.700 |ddv_scf|^2 =  5.854E-11

      iter #   6 total cpu time :   696.0 secs   av.it.:   8.7
      thresh= 7.651E-07 alpha_mix =  0.700 |ddv_scf|^2 =  2.931E-09

      iter #   7 total cpu time :   697.6 secs   av.it.:   5.1
      thresh= 5.414E-06 alpha_mix =  0.700 |ddv_scf|^2 =  6.095E-12

      iter #   8 total cpu time :   700.5 secs   av.it.:   7.0
      thresh= 2.469E-07 alpha_mix =  0.700 |ddv_scf|^2 =  5.484E-14

      iter #   9 total cpu time :   711.2 secs   av.it.:   7.3
      thresh= 2.342E-08 alpha_mix =  0.700 |ddv_scf|^2 =  4.234E-15

      iter #  10 total cpu time :   713.1 secs   av.it.:   7.7
      thresh= 6.507E-09 alpha_mix =  0.700 |ddv_scf|^2 =  9.494E-18

     End of self-consistent calculation

     Convergence has been achieved 


     Representation #  2 mode #   2

     Self-consistent Calculation

      iter #   1 total cpu time :   715.0 secs   av.it.:   6.3
      thresh= 1.000E-02 alpha_mix =  0.700 |ddv_scf|^2 =  9.126E-03

      iter #   2 total cpu time :   716.0 secs   av.it.:   7.2
      thresh= 9.553E-03 alpha_mix =  0.700 |ddv_scf|^2 =  1.705E+00

      iter #   3 total cpu time :   716.9 secs   av.it.:   7.1
      thresh= 1.000E-02 alpha_mix =  0.700 |ddv_scf|^2 =  1.222E-06

      iter #   4 total cpu time :   717.9 secs   av.it.:   7.9
      thresh= 1.106E-04 alpha_mix =  0.700 |ddv_scf|^2 =  1.899E-08

      iter #   5 total cpu time :   718.9 secs   av.it.:   8.6
      thresh= 1.378E-05 alpha_mix =  0.700 |ddv_scf|^2 =  2.644E-10

      iter #   6 total cpu time :   719.8 secs   av.it.:   8.0
      thresh= 1.626E-06 alpha_mix =  0.700 |ddv_scf|^2 =  6.010E-09

      iter #   7 total cpu time :   721.6 secs   av.it.:   5.1
      thresh= 7.752E-06 alpha_mix =  0.700 |ddv_scf|^2 =  1.729E-12

      iter #   8 total cpu time :   727.6 secs   av.it.:   8.5
      thresh= 1.315E-07 alpha_mix =  0.700 |ddv_scf|^2 =  5.574E-14

      iter #   9 total cpu time :   737.1 secs   av.it.:   8.3
      thresh= 2.361E-08 alpha_mix =  0.700 |ddv_scf|^2 =  1.849E-14

      iter #  10 total cpu time :   738.0 secs   av.it.:   6.7
      thresh= 1.360E-08 alpha_mix =  0.700 |ddv_scf|^2 =  4.138E-16

      iter #  11 total cpu time :   740.0 secs   av.it.:   7.6
      thresh= 2.034E-09 alpha_mix =  0.700 |ddv_scf|^2 =  3.386E-18

     End of self-consistent calculation

     Convergence has been achieved 


     Representation #  3 mode #   3

     Self-consistent Calculation

      iter #   1 total cpu time :   741.9 secs   av.it.:   5.5
      thresh= 1.000E-02 alpha_mix =  0.700 |ddv_scf|^2 =  1.136E-06

      iter #   2 total cpu time :   744.0 secs   av.it.:   8.6
      thresh= 1.066E-04 alpha_mix =  0.700 |ddv_scf|^2 =  6.821E-08

      iter #   3 total cpu time :   747.5 secs   av.it.:   8.8
      thresh= 2.612E-05 alpha_mix =  0.700 |ddv_scf|^2 =  6.534E-10

      iter #   4 total cpu time :   749.2 secs   av.it.:   8.2
      thresh= 2.556E-06 alpha_mix =  0.700 |ddv_scf|^2 =  1.074E-12

      iter #   5 total cpu time :   752.0 secs   av.it.:   8.1
      thresh= 1.036E-07 alpha_mix =  0.700 |ddv_scf|^2 =  1.667E-14

      iter #   6 total cpu time :   753.1 secs   av.it.:   7.8
      thresh= 1.291E-08 alpha_mix =  0.700 |ddv_scf|^2 =  1.372E-17

     End of self-consistent calculation

     Convergence has been achieved 
 
     Number of q in the star =   24
     List of q in the star:
          1  -0.100000000  -0.100000000   0.200000000
          2  -0.100000000  -0.200000000   0.100000000
          3   0.100000000  -0.200000000   0.100000000
          4   0.100000000   0.200000000  -0.100000000
          5   0.100000000   0.100000000  -0.200000000
          6  -0.100000000   0.200000000  -0.100000000
          7  -0.100000000   0.100000000  -0.200000000
          8   0.200000000   0.100000000  -0.100000000
          9  -0.200000000   0.100000000   0.100000000
         10   0.200000000  -0.100000000   0.100000000
         11  -0.200000000  -0.100000000  -0.100000000
         12  -0.100000000  -0.100000000  -0.200000000
         13  -0.100000000   0.100000000   0.200000000
         14  -0.100000000   0.200000000   0.100000000
         15  -0.100000000  -0.200000000  -0.100000000
         16   0.100000000   0.100000000   0.200000000
         17   0.100000000  -0.200000000  -0.100000000
         18   0.200000000  -0.100000000  -0.100000000
         19   0.200000000   0.100000000   0.100000000
         20  -0.200000000   0.100000000  -0.100000000
         21  -0.200000000  -0.100000000   0.100000000
         22   0.100000000  -0.100000000  -0.200000000
         23   0.100000000  -0.100000000   0.200000000
         24   0.100000000   0.200000000   0.100000000

     Diagonalizing the dynamical matrix

     q = (   -0.100000000  -0.100000000   0.200000000 ) 

 **************************************************************************
     freq (    1) =       1.679436 [THz] =      56.019947 [cm-1]
     freq (    2) =       2.929678 [THz] =      97.723533 [cm-1]
     freq (    3) =       5.274065 [THz] =     175.923867 [cm-1]
 **************************************************************************

     Mode symmetry, C_s (m)     point group:

     freq (  1 -  1) =         56.0  [cm-1]   --> A'                 
     freq (  2 -  2) =         97.7  [cm-1]   --> A''                
     freq (  3 -  3) =        175.9  [cm-1]   --> A'                 

     Calculation of q =   -0.1000000  -0.2000000   0.3000000
 
     G-vector sticks info
     --------------------
     sticks:   dense  smooth     PW     G-vecs:    dense   smooth      PW
     Sum        1047     531    173                21529     7707    1505
 


     bravais-lattice index     =            3
     lattice parameter (alat)  =       6.2403  a.u.
     unit-cell volume          =     121.5018 (a.u.)^3
     number of atoms/cell      =            1
     number of atomic types    =            1
     number of electrons       =         3.00
     number of Kohn-Sham states=            6
     kinetic-energy cutoff     =      60.0000  Ry
     charge density cutoff     =     480.0000  Ry
     Exchange-correlation      =  SLA  PW   PBX  PBC ( 1  4  3  4 0 0)

     celldm(1)=   6.240282  celldm(2)=   0.000000  celldm(3)=   0.000000
     celldm(4)=   0.000000  celldm(5)=   0.000000  celldm(6)=   0.000000

     crystal axes: (cart. coord. in units of alat)
               a(1) = (   0.500000   0.500000   0.500000 )  
               a(2) = (  -0.500000   0.500000   0.500000 )  
               a(3) = (  -0.500000  -0.500000   0.500000 )  

     reciprocal axes: (cart. coord. in units 2 pi/alat)
               b(1) = (  1.000000  0.000000  1.000000 )  
               b(2) = ( -1.000000  1.000000  0.000000 )  
               b(3) = (  0.000000 -1.000000  1.000000 )  


     PseudoPot. # 1 for Li read from file:
     ../Li.pbe-s-gbrv14.UPF
     MD5 check sum: 7ca33c4f951f001da2db5c8738379802
     Pseudo is Ultrasoft, Zval =  3.0
     Generated by new atomic code, or converted to UPF format
     Using radial grid of  751 points,  5 beta functions with: 
                l(1) =   0
                l(2) =   0
                l(3) =   0
                l(4) =   1
                l(5) =   1
     Q(r) pseudized with 10 coefficients,  rinner =    1.150   1.150   1.150


     atomic species   valence    mass     pseudopotential
        Li             3.00     6.94100     Li( 1.00)

     48 Sym. Ops., with inversion, found



   Cartesian axes

     site n.     atom                  positions (alat units)
         1           Li  tau(   1) = (   0.0000000   0.0000000   0.0000000  )

     number of k points= 43904  Marzari-Vanderbilt smearing, width (Ry)=  0.0200

     Number of k-points >= 100: set verbosity='high' to print them.

     Dense  grid:    21529 G-vectors     FFT dimensions: (  40,  40,  40)

     Smooth grid:     7707 G-vectors     FFT dimensions: (  27,  27,  27)

     Largest allocated arrays     est. size (Mb)     dimensions
        Kohn-Sham Wavefunctions         0.09 Mb     (     968,    6)
        NL pseudopotentials             0.13 Mb     (     968,    9)
        Each V/rho on FFT grid          0.98 Mb     (   64000)
        Each G-vector array             0.16 Mb     (   21529)
        G-vector shells                 0.00 Mb     (     219)
     Largest temporary arrays     est. size (Mb)     dimensions
        Auxiliary wavefunctions         0.35 Mb     (     968,   24)
        Each subspace H/S matrix        0.01 Mb     (      24,   24)
        Each <psi_i|beta_j> matrix      0.00 Mb     (       9,    6)

     The potential is recalculated from file :
     ./tmp/_ph0/li-bcc.save/charge-density.dat

     Starting wfc are    5 atomic +    1 random wfc

     Band Structure Calculation
     Davidson diagonalization with overlap

     ethr =  3.33E-10,  avg # of iterations = 17.0

[...]
        1     Li   6.9410   tau(    1) = (    0.00000    0.00000    0.00000  )

     Computing dynamical matrix for 
                    q = (   0.0000000   0.9000000  -0.1000000 )
 
      4 Sym.Ops. (no q -> -q+G )


     G cutoff =  473.4672  (  21529 G-vectors)     FFT grid: ( 40, 40, 40)
     G cutoff =  236.7336  (   7707 G-vectors)  smooth grid: ( 27, 27, 27)

     number of k points= 11760  Marzari-Vanderbilt smearing, width (Ry)=  0.0200

     PseudoPot. # 1 for Li read from file:
     ../Li.pbe-s-gbrv14.UPF
     MD5 check sum: 7ca33c4f951f001da2db5c8738379802
     Pseudo is Ultrasoft, Zval =  3.0
     Generated by new atomic code, or converted to UPF format
     Using radial grid of  751 points,  5 beta functions with: 
                l(1) =   0
                l(2) =   0
                l(3) =   0
                l(4) =   1
                l(5) =   1
     Q(r) pseudized with 10 coefficients,  rinner =    1.150   1.150   1.150


     Mode symmetry, C_2v (mm2)  point group:


     Atomic displacements:
     There are   3 irreducible representations

     Representation     1      1 modes -A_1  D_1  S_1  To be done

     Representation     2      1 modes -B_1  D_3  S_3  To be done

     Representation     3      1 modes -B_2  D_4  S_4  To be done



     Alpha used in Ewald sum =   2.8000
     PHONON       : 29m35.03s CPU    37m34.93s WALL



     Representation #  1 mode #   1

     Self-consistent Calculation

      iter #   1 total cpu time :  2255.5 secs   av.it.:   6.2
      thresh= 1.000E-02 alpha_mix =  0.700 |ddv_scf|^2 =  2.321E-06

      iter #   2 total cpu time :  2258.0 secs   av.it.:   8.8
      thresh= 1.523E-04 alpha_mix =  0.700 |ddv_scf|^2 =  9.587E-08

      iter #   3 total cpu time :  2259.6 secs   av.it.:   8.7
      thresh= 3.096E-05 alpha_mix =  0.700 |ddv_scf|^2 =  6.469E-09

      iter #   4 total cpu time :  2269.2 secs   av.it.:   8.7
      thresh= 8.043E-06 alpha_mix =  0.700 |ddv_scf|^2 =  6.425E-11

      iter #   5 total cpu time :  2296.0 secs   av.it.:   8.9
      thresh= 8.015E-07 alpha_mix =  0.700 |ddv_scf|^2 =  2.298E-13

      iter #   6 total cpu time :  2297.6 secs   av.it.:   9.3
      thresh= 4.793E-08 alpha_mix =  0.700 |ddv_scf|^2 =  2.271E-15

      iter #   7 total cpu time :  2298.8 secs   av.it.:   9.4
      thresh= 4.766E-09 alpha_mix =  0.700 |ddv_scf|^2 =  1.224E-16

      iter #   8 total cpu time :  2300.6 secs   av.it.:   9.3
      thresh= 1.106E-09 alpha_mix =  0.700 |ddv_scf|^2 =  2.713E-19

     End of self-consistent calculation

     Convergence has been achieved 


     Representation #  2 mode #   2

     Self-consistent Calculation

      iter #   1 total cpu time :  2301.9 secs   av.it.:   6.2
      thresh= 1.000E-02 alpha_mix =  0.700 |ddv_scf|^2 =  2.788E-06

      iter #   2 total cpu time :  2303.0 secs   av.it.:   8.7
      thresh= 1.670E-04 alpha_mix =  0.700 |ddv_scf|^2 =  1.077E-07

      iter #   3 total cpu time :  2306.1 secs   av.it.:   8.5
      thresh= 3.282E-05 alpha_mix =  0.700 |ddv_scf|^2 =  7.360E-09

      iter #   4 total cpu time :  2307.6 secs   av.it.:   8.5
      thresh= 8.579E-06 alpha_mix =  0.700 |ddv_scf|^2 =  7.963E-11

      iter #   5 total cpu time :  2310.1 secs   av.it.:   8.6
      thresh= 8.923E-07 alpha_mix =  0.700 |ddv_scf|^2 =  5.956E-14

      iter #   6 total cpu time :  2312.8 secs   av.it.:   8.4
      thresh= 2.441E-08 alpha_mix =  0.700 |ddv_scf|^2 =  6.855E-16

      iter #   7 total cpu time :  2315.6 secs   av.it.:   8.3
      thresh= 2.618E-09 alpha_mix =  0.700 |ddv_scf|^2 =  6.851E-18

     End of self-consistent calculation

     Convergence has been achieved 


     Representation #  3 mode #   3

     Self-consistent Calculation

      iter #   1 total cpu time :  2321.7 secs   av.it.:   6.0
      thresh= 1.000E-02 alpha_mix =  0.700 |ddv_scf|^2 =  2.056E-06

      iter #   2 total cpu time :  2323.5 secs   av.it.:   8.6
      thresh= 1.434E-04 alpha_mix =  0.700 |ddv_scf|^2 =  7.756E-08

      iter #   3 total cpu time :  2327.5 secs   av.it.:   8.5
      thresh= 2.785E-05 alpha_mix =  0.700 |ddv_scf|^2 =  5.101E-09

      iter #   4 total cpu time :  2328.7 secs   av.it.:   7.9
      thresh= 7.142E-06 alpha_mix =  0.700 |ddv_scf|^2 =  1.247E-12

      iter #   5 total cpu time :  2329.7 secs   av.it.:   8.4
      thresh= 1.117E-07 alpha_mix =  0.700 |ddv_scf|^2 =  1.380E-14

      iter #   6 total cpu time :  2333.2 secs   av.it.:   8.4
      thresh= 1.175E-08 alpha_mix =  0.700 |ddv_scf|^2 =  2.042E-16

      iter #   7 total cpu time :  2334.0 secs   av.it.:   8.3
      thresh= 1.429E-09 alpha_mix =  0.700 |ddv_scf|^2 =  1.657E-19

     End of self-consistent calculation

     Convergence has been achieved 
 
     Number of q in the star =   12
     List of q in the star:
          1   0.000000000   0.900000000  -0.100000000
          2  -0.900000000   0.000000000  -0.100000000
          3   0.000000000  -0.900000000  -0.100000000
          4   0.900000000   0.000000000  -0.100000000
          5  -0.100000000  -0.900000000   0.000000000
          6   0.100000000  -0.900000000   0.000000000
          7  -0.100000000   0.900000000   0.000000000
          8   0.100000000   0.900000000   0.000000000
          9   0.900000000   0.000000000   0.100000000
         10   0.000000000   0.100000000  -0.900000000
         11   0.000000000  -0.100000000  -0.900000000
         12   0.100000000   0.000000000  -0.900000000

     Diagonalizing the dynamical matrix

     q = (    0.000000000   0.900000000  -0.100000000 ) 

 **************************************************************************
     freq (    1) =      10.160351 [THz] =     338.912843 [cm-1]
     freq (    2) =      10.672439 [THz] =     355.994262 [cm-1]
     freq (    3) =      10.696062 [THz] =     356.782239 [cm-1]
 **************************************************************************

     Mode symmetry, C_2v (mm2)  point group:

     freq (  1 -  1) =        338.9  [cm-1]   --> A_1  D_1  S_1      
     freq (  2 -  2) =        356.0  [cm-1]   --> B_2  D_4  S_4      
     freq (  3 -  3) =        356.8  [cm-1]   --> B_1  D_3  S_3      

     Calculation of q =    0.0000000   0.0000000  -1.0000000
 
     G-vector sticks info
     --------------------
     sticks:   dense  smooth     PW     G-vecs:    dense   smooth      PW
     Sum        1047     531    197                21529     7707    1721
 


     bravais-lattice index     =            3
     lattice parameter (alat)  =       6.2403  a.u.
     unit-cell volume          =     121.5018 (a.u.)^3
     number of atoms/cell      =            1
     number of atomic types    =            1
     number of electrons       =         3.00
     number of Kohn-Sham states=            6
     kinetic-energy cutoff     =      60.0000  Ry
     charge density cutoff     =     480.0000  Ry
     Exchange-correlation      =  SLA  PW   PBX  PBC ( 1  4  3  4 0 0)

     celldm(1)=   6.240282  celldm(2)=   0.000000  celldm(3)=   0.000000
     celldm(4)=   0.000000  celldm(5)=   0.000000  celldm(6)=   0.000000

     crystal axes: (cart. coord. in units of alat)
               a(1) = (   0.500000   0.500000   0.500000 )  
               a(2) = (  -0.500000   0.500000   0.500000 )  
               a(3) = (  -0.500000  -0.500000   0.500000 )  

     reciprocal axes: (cart. coord. in units 2 pi/alat)
               b(1) = (  1.000000  0.000000  1.000000 )  
               b(2) = ( -1.000000  1.000000  0.000000 )  
               b(3) = (  0.000000 -1.000000  1.000000 )  


     PseudoPot. # 1 for Li read from file:
     ../Li.pbe-s-gbrv14.UPF
     MD5 check sum: 7ca33c4f951f001da2db5c8738379802
     Pseudo is Ultrasoft, Zval =  3.0
     Generated by new atomic code, or converted to UPF format
     Using radial grid of  751 points,  5 beta functions with: 
                l(1) =   0
                l(2) =   0
                l(3) =   0
                l(4) =   1
                l(5) =   1
     Q(r) pseudized with 10 coefficients,  rinner =    1.150   1.150   1.150


     atomic species   valence    mass     pseudopotential
        Li             3.00     6.94100     Li( 1.00)

     48 Sym. Ops., with inversion, found



   Cartesian axes

     site n.     atom                  positions (alat units)
         1           Li  tau(   1) = (   0.0000000   0.0000000   0.0000000  )

     number of k points=  1232  Marzari-Vanderbilt smearing, width (Ry)=  0.0200

     Number of k-points >= 100: set verbosity='high' to print them.

     Dense  grid:    21529 G-vectors     FFT dimensions: (  40,  40,  40)

     Smooth grid:     7707 G-vectors     FFT dimensions: (  27,  27,  27)

     Largest allocated arrays     est. size (Mb)     dimensions
        Kohn-Sham Wavefunctions         0.09 Mb     (     968,    6)
        NL pseudopotentials             0.13 Mb     (     968,    9)
        Each V/rho on FFT grid          0.98 Mb     (   64000)
        Each G-vector array             0.16 Mb     (   21529)
        G-vector shells                 0.00 Mb     (     219)
     Largest temporary arrays     est. size (Mb)     dimensions
        Auxiliary wavefunctions         0.35 Mb     (     968,   24)
        Each subspace H/S matrix        0.01 Mb     (      24,   24)
        Each <psi_i|beta_j> matrix      0.00 Mb     (       9,    6)

     The potential is recalculated from file :
     ./tmp/_ph0/li-bcc.save/charge-density.dat

     Starting wfc are    5 atomic +    1 random wfc

     Band Structure Calculation
     Davidson diagonalization with overlap

     ethr =  3.33E-10,  avg # of iterations = 17.1

     total cpu time spent up to now is      238.4 secs

     End of band structure calculation

     Number of k-points >= 100: set verbosity='high' to print the bands.

     the Fermi energy is     1.3455 ev

                                                                                

     bravais-lattice index     =            3
     lattice parameter (alat)  =       6.2403  a.u.
     unit-cell volume          =     121.5018 (a.u.)^3
     number of atoms/cell      =            1
     number of atomic types    =            1
     kinetic-energy cut-off    =      60.0000  Ry
     charge density cut-off    =     480.0000  Ry
     convergence threshold     =      1.0E-16
     beta                      =       0.7000
     number of iterations used =            4
     Exchange-correlation      =  SLA  PW   PBX  PBC ( 1  4  3  4 0 0)


     celldm(1)=    6.24028  celldm(2)=    0.00000  celldm(3)=    0.00000
     celldm(4)=    0.00000  celldm(5)=    0.00000  celldm(6)=    0.00000

     crystal axes: (cart. coord. in units of alat)
               a(1) = (  0.5000  0.5000  0.5000 )  
               a(2) = ( -0.5000  0.5000  0.5000 )  
               a(3) = ( -0.5000 -0.5000  0.5000 )  

     reciprocal axes: (cart. coord. in units 2 pi/alat)
               b(1) = (  1.0000  0.0000  1.0000 )  
               b(2) = ( -1.0000  1.0000  0.0000 )  
               b(3) = (  0.0000 -1.0000  1.0000 )  


     Atoms inside the unit cell: 

     Cartesian axes

     site n.  atom      mass           positions (alat units)
        1     Li   6.9410   tau(    1) = (    0.00000    0.00000    0.00000  )

     Computing dynamical matrix for 
                    q = (   0.0000000   0.0000000  -1.0000000 )
 
     49 Sym.Ops. (with q -> -q+G )


     G cutoff =  473.4672  (  21529 G-vectors)     FFT grid: ( 40, 40, 40)
     G cutoff =  236.7336  (   7707 G-vectors)  smooth grid: ( 27, 27, 27)

     number of k points=  1232  Marzari-Vanderbilt smearing, width (Ry)=  0.0200

     PseudoPot. # 1 for Li read from file:
     ../Li.pbe-s-gbrv14.UPF
     MD5 check sum: 7ca33c4f951f001da2db5c8738379802
     Pseudo is Ultrasoft, Zval =  3.0
     Generated by new atomic code, or converted to UPF format
     Using radial grid of  751 points,  5 beta functions with: 
                l(1) =   0
                l(2) =   0
                l(3) =   0
                l(4) =   1
                l(5) =   1
     Q(r) pseudized with 10 coefficients,  rinner =    1.150   1.150   1.150


     Mode symmetry, O_h (m-3m)  point group:


     Atomic displacements:
     There are   1 irreducible representations

     Representation     1      3 modes -T_1u G_15  G_4-  To be done



     Alpha used in Ewald sum =   2.8000
     PHONON       : 30m41.16s CPU    39m11.27s WALL



     Representation #  1 modes #   1  2  3

     Self-consistent Calculation

      iter #   1 total cpu time :  2352.0 secs   av.it.:   6.2
      thresh= 1.000E-02 alpha_mix =  0.700 |ddv_scf|^2 =  2.401E-07

      iter #   2 total cpu time :  2365.2 secs   av.it.:   9.5
      thresh= 4.900E-05 alpha_mix =  0.700 |ddv_scf|^2 =  8.715E-09

      iter #   3 total cpu time :  2377.2 secs   av.it.:   9.5
      thresh= 9.335E-06 alpha_mix =  0.700 |ddv_scf|^2 =  6.091E-10

      iter #   4 total cpu time :  2389.5 secs   av.it.:   8.9
      thresh= 2.468E-06 alpha_mix =  0.700 |ddv_scf|^2 =  1.270E-13

      iter #   5 total cpu time :  2394.6 secs   av.it.:   9.2
      thresh= 3.564E-08 alpha_mix =  0.700 |ddv_scf|^2 =  1.308E-15

      iter #   6 total cpu time :  2397.5 secs   av.it.:   9.1
      thresh= 3.616E-09 alpha_mix =  0.700 |ddv_scf|^2 =  1.936E-17

     End of self-consistent calculation

     Convergence has been achieved 
 
     Number of q in the star =    1
     List of q in the star:
          1   0.000000000   0.000000000  -1.000000000

     Diagonalizing the dynamical matrix

     q = (    0.000000000   0.000000000  -1.000000000 ) 

 **************************************************************************
     freq (    1) =      10.964221 [THz] =     365.727031 [cm-1]
     freq (    2) =      10.964221 [THz] =     365.727031 [cm-1]
     freq (    3) =      10.964221 [THz] =     365.727031 [cm-1]
 **************************************************************************

     Mode symmetry, O_h (m-3m)  point group:

     freq (  1 -  3) =        365.7  [cm-1]   --> T_1u G_15  G_4-    
 
     init_run     :     40.58s CPU     59.46s WALL (      19 calls)
     electrons    :    124.18s CPU    126.07s WALL (      19 calls)

     Called by init_run:
     wfcinit      :      0.00s CPU      0.40s WALL (      19 calls)
     potinit      :     36.95s CPU     37.40s WALL (      19 calls)

     Called by electrons:
     c_bands      :    124.12s CPU    126.01s WALL (      19 calls)
     v_of_rho     :      0.82s CPU      0.82s WALL (      20 calls)
     newd         :      0.27s CPU      0.35s WALL (      20 calls)

     Called by c_bands:
     init_us_2    :      2.88s CPU      2.99s WALL (   17106 calls)
     cegterg      :     68.88s CPU     69.42s WALL (    1424 calls)

     Called by sum_band:

     Called by *egterg:
     h_psi        :     66.05s CPU     66.79s WALL (   22628 calls)
     s_psi        :      4.07s CPU      4.22s WALL (  278171 calls)
     g_psi        :      0.45s CPU      0.47s WALL (   20124 calls)
     cdiaghg      :      3.03s CPU      2.88s WALL (   21204 calls)

     Called by h_psi:
     add_vuspsi   :      2.50s CPU      2.55s WALL (  143960 calls)

     General routines
     calbec       :      5.72s CPU      5.81s WALL (  306710 calls)
     fft          :     11.50s CPU     11.54s WALL (    6872 calls)
     ffts         :      1.46s CPU      1.52s WALL (    2773 calls)
     fftw         :    254.70s CPU    257.88s WALL (  725954 calls)
     interpolate  :      0.10s CPU      0.10s WALL (      38 calls)
     davcio       :      0.14s CPU      0.34s WALL (    3240 calls)
 
     Parallel routines
     fft_scatter  :     15.08s CPU     15.31s WALL (  735599 calls)
 
     PHONON       : 31m27.23s CPU    40m 2.02s WALL

     INITIALIZATION: 
     phq_setup    :      1.95s CPU     15.91s WALL (      19 calls)
     phq_init     :     80.26s CPU    102.61s WALL (      19 calls)
 
     phq_init     :     80.26s CPU    102.61s WALL (      19 calls)
     init_vloc    :      0.02s CPU      0.02s WALL (      20 calls)
     init_us_1    :      2.56s CPU      2.56s WALL (      20 calls)
     newd         :      0.27s CPU      0.35s WALL (      20 calls)
     dvanqq       :      1.82s CPU      1.84s WALL (      19 calls)
     drho         :     75.50s CPU     75.80s WALL (      19 calls)
 
     DYNAMICAL MATRIX:
     dynmat0      :      0.49s CPU     10.83s WALL (      19 calls)
     phqscf       :   1519.18s CPU   1909.20s WALL (      19 calls)
     dynmatrix    :     54.87s CPU     60.91s WALL (      19 calls)
 
     phqscf       :   1519.18s CPU   1909.20s WALL (      19 calls)
     solve_linter :   1518.23s CPU   1853.35s WALL (      49 calls)
     drhodv       :      0.81s CPU      0.87s WALL (      49 calls)
 
     dynmat0      :      0.49s CPU     10.83s WALL (      19 calls)
     dynmat_us    :      0.40s CPU      0.42s WALL (      19 calls)
     d2ionq       :      0.06s CPU      0.06s WALL (      19 calls)
 
     dynmat_us    :      0.40s CPU      0.42s WALL (      19 calls)
     addusdynmat  :      0.00s CPU      0.00s WALL (      19 calls)
 
     phqscf       :   1519.18s CPU   1909.20s WALL (      19 calls)
     solve_linter :   1518.23s CPU   1853.35s WALL (      49 calls)
 
     solve_linter :   1518.23s CPU   1853.35s WALL (      49 calls)
     dvqpsi_us    :      8.60s CPU      8.79s WALL (    1620 calls)
     ortho        :      1.60s CPU      1.51s WALL (   12879 calls)
     cgsolve      :    191.93s CPU    194.17s WALL (   12879 calls)
     incdrhoscf   :     21.48s CPU     21.87s WALL (   12879 calls)
     addusddens   :      9.10s CPU      9.16s WALL (     425 calls)
     vpsifft      :     17.83s CPU     17.84s WALL (   11259 calls)
     dv_of_drho   :     15.82s CPU     16.02s WALL (     427 calls)
     mix_pot      :      2.32s CPU      2.31s WALL (     376 calls)
     psymdvscf    :      7.46s CPU      7.46s WALL (     324 calls)
     newdq        :      8.59s CPU      8.64s WALL (     376 calls)
     adddvscf     :      0.52s CPU      0.58s WALL (   11259 calls)
     drhodvus     :      0.13s CPU      0.11s WALL (      49 calls)
 
     dvqpsi_us    :      8.60s CPU      8.79s WALL (    1620 calls)
     dvqpsi_us_on :      0.42s CPU      0.43s WALL (    1620 calls)
 
     cgsolve      :    191.93s CPU    194.17s WALL (   12879 calls)
     ch_psi       :    189.53s CPU    191.75s WALL (  121332 calls)
 
     ch_psi       :    189.53s CPU    191.75s WALL (  121332 calls)
     h_psiq       :    183.08s CPU    185.23s WALL (  121332 calls)
     last         :      5.70s CPU      5.76s WALL (  121332 calls)
 
     h_psiq       :    183.08s CPU    185.23s WALL (  121332 calls)
     firstfft     :     92.52s CPU     93.76s WALL (  221766 calls)
     secondfft    :     77.76s CPU     78.59s WALL (  221766 calls)
     add_vuspsi   :      2.50s CPU      2.55s WALL (  143960 calls)
 
     incdrhoscf   :     21.48s CPU     21.87s WALL (   12879 calls)
     addusdbec    :      0.68s CPU      0.67s WALL (   14499 calls)
 
     drhodvus     :      0.13s CPU      0.11s WALL (      49 calls)
 
      General routines
     calbec       :      5.72s CPU      5.81s WALL (  306710 calls)
     fft          :     11.50s CPU     11.54s WALL (    6872 calls)
     ffts         :      1.46s CPU      1.52s WALL (    2773 calls)
     fftw         :    254.70s CPU    257.88s WALL (  725954 calls)
     cinterpolate :      2.34s CPU      2.30s WALL (     911 calls)
     davcio       :      0.14s CPU      0.34s WALL (    3240 calls)
     write_rec    :      0.95s CPU    381.65s WALL (     425 calls)
 
 
     PHONON       : 31m27.23s CPU    40m 2.02s WALL

 
   This run was terminated on:  15:17:27   3Jun2016            

=------------------------------------------------------------------------------=
   JOB DONE.
=------------------------------------------------------------------------------=
Application 21909321 resources: utime ~622984s, stime ~2993s, Rss ~111156, inblocks ~126201674, outblocks ~430841995
