
     Program PHONON v.6.1 (svn rev. 13369) starts on 31Jan2018 at 22: 5: 8 

     This program is part of the open-source Quantum ESPRESSO suite
     for quantum simulation of materials; please cite
         "P. Giannozzi et al., J. Phys.:Condens. Matter 21 395502 (2009);
          URL http://www.quantum-espresso.org", 
     in publications or presentations arising from this work. More details at
     http://www.quantum-espresso.org/quote

     Parallel version (MPI), running on    64 processors
     K-points division:     npool     =       4
     R & G space division:  proc/nbgrp/npool/nimage =      16

     Reading data from directory:
     ./na.fcc.save

   Info: using nr1, nr2, nr3 values from input

   Info: using nr1, nr2, nr3 values from input

     IMPORTANT: XC functional enforced from input :
     Exchange-correlation      = SLA  PW   PBE  PBE ( 1  4  3  4 0 0)
     Any further DFT definition will be discarded
     Please, verify this is what you really want


     Parallelization info
     --------------------
     sticks:   dense  smooth     PW     G-vecs:    dense   smooth      PW
     Min          51      26      9                  973      348      70
     Max          52      27     10                  977      350      72
     Sum         823     421    151                15593     5577    1139



     Dynamical matrices for ( 6, 6, 6)  uniform grid of q-points
     (  16q-points):
       N         xq(1)         xq(2)         xq(3) 
       1   0.000000000   0.000000000   0.000000000
       2  -0.166666667   0.166666667  -0.166666667
       3  -0.333333333   0.333333333  -0.333333333
       4   0.500000000  -0.500000000   0.500000000
       5   0.000000000   0.333333333   0.000000000
       6  -0.166666667   0.500000000  -0.166666667
       7   0.666666667  -0.333333333   0.666666667
       8   0.500000000  -0.166666667   0.500000000
       9   0.333333333   0.000000000   0.333333333
      10   0.000000000   0.666666667   0.000000000
      11   0.833333333  -0.166666667   0.833333333
      12   0.666666667  -0.000000000   0.666666667
      13   0.000000000  -1.000000000   0.000000000
      14   0.666666667  -0.333333333   1.000000000
      15   0.500000000  -0.166666667   0.833333333
      16  -0.333333333  -1.000000000   0.000000000

     Calculation of q =    0.0000000   0.0000000   0.0000000

                                                                                

     bravais-lattice index     =            2
     lattice parameter (alat)  =       8.6500  a.u.
     unit-cell volume          =     161.8037 (a.u.)^3
     number of atoms/cell      =            1
     number of atomic types    =            1
     kinetic-energy cut-off    =      40.0000  Ry
     charge density cut-off    =     320.0000  Ry
     convergence threshold     =      1.0E-16
     beta                      =       0.7000
     number of iterations used =            4
     Exchange-correlation      = SLA  PW   PBE  PBE ( 1  4  3  4 0 0)


     celldm(1)=    8.65000  celldm(2)=    0.00000  celldm(3)=    0.00000
     celldm(4)=    0.00000  celldm(5)=    0.00000  celldm(6)=    0.00000

     crystal axes: (cart. coord. in units of alat)
               a(1) = ( -0.5000  0.0000  0.5000 )  
               a(2) = (  0.0000  0.5000  0.5000 )  
               a(3) = ( -0.5000  0.5000  0.0000 )  

     reciprocal axes: (cart. coord. in units 2 pi/alat)
               b(1) = ( -1.0000 -1.0000  1.0000 )  
               b(2) = (  1.0000  1.0000  1.0000 )  
               b(3) = ( -1.0000  1.0000 -1.0000 )  


     Atoms inside the unit cell: 

     Cartesian axes

     site n.  atom      mass           positions (alat units)
        1     Na  22.9900   tau(    1) = (    0.00000    0.00000    0.00000  )

     Computing dynamical matrix for 
                    q = (   0.0000000   0.0000000   0.0000000 )

     49 Sym.Ops. (with q -> -q+G )


     G cutoff =  606.4883  (    974 G-vectors)     FFT grid: ( 36, 36, 36)
     G cutoff =  303.2442  (    350 G-vectors)  smooth grid: ( 25, 25, 25)

     number of k points=   770  Marzari-Vanderbilt smearing, width (Ry)=  0.0200

     PseudoPot. # 1 for Na read from file:
     /home/s1333534/quantum_espresso/qe-6.1/pseudo/Na_pbe_v1.uspp.F.UPF
     MD5 check sum: 76a99c7e9422403d3e93cbc85ab7bccb
     Pseudo is Ultrasoft, Zval =  9.0
     Generated by new atomic code, or converted to UPF format
     Using radial grid of  819 points,  5 beta functions with: 
                l(1) =   0
                l(2) =   0
                l(3) =   1
                l(4) =   1
                l(5) =   2
     Q(r) pseudized with  8 coefficients,  rinner =    1.250   1.250   1.250
                                                       1.250   1.250

     Mode symmetry, O_h (m-3m)  point group:


     Atomic displacements:
     There are   1 irreducible representations

     Representation     1      3 modes -T_1u G_15  G_4-  To be done



     Alpha used in Ewald sum =   2.8000
     PHONON       :     7.36s CPU         7.98s WALL



     Representation #  1 modes #   1  2  3

     Self-consistent Calculation

     Pert. #  1: Fermi energy shift (Ry) =    -1.0340E-25     2.1943E-37
     Pert. #  2: Fermi energy shift (Ry) =     6.2469E-26    -1.5673E-38
     Pert. #  3: Fermi energy shift (Ry) =     3.2312E-26     2.0375E-37

      iter #   1 total cpu time :    15.3 secs   av.it.:   5.4
      thresh= 1.000E-02 alpha_mix =  0.700 |ddv_scf|^2 =  1.479E-06

     Pert. #  1: Fermi energy shift (Ry) =    -3.4466E-26    -2.4489E-40
     Pert. #  2: Fermi energy shift (Ry) =    -4.9545E-26     1.3469E-39
     Pert. #  3: Fermi energy shift (Ry) =     4.5236E-26    -2.2041E-39

      iter #   2 total cpu time :    24.1 secs   av.it.:   8.4
      thresh= 1.216E-04 alpha_mix =  0.700 |ddv_scf|^2 =  2.922E-08

     Pert. #  1: Fermi energy shift (Ry) =    -4.3082E-27    -3.0612E-41
     Pert. #  2: Fermi energy shift (Ry) =     0.0000E+00     1.6837E-40
     Pert. #  3: Fermi energy shift (Ry) =     7.5394E-27    -2.7551E-40

      iter #   3 total cpu time :    32.8 secs   av.it.:   8.6
      thresh= 1.709E-05 alpha_mix =  0.700 |ddv_scf|^2 =  2.956E-10

     Pert. #  1: Fermi energy shift (Ry) =     8.0779E-27     9.5662E-42
     Pert. #  2: Fermi energy shift (Ry) =    -8.0779E-28     2.1524E-42
     Pert. #  3: Fermi energy shift (Ry) =     1.5617E-26     3.5873E-43

      iter #   4 total cpu time :    41.1 secs   av.it.:   8.1
      thresh= 1.719E-06 alpha_mix =  0.700 |ddv_scf|^2 =  9.628E-13

     Pert. #  1: Fermi energy shift (Ry) =     3.2312E-27    -1.9132E-42
     Pert. #  2: Fermi energy shift (Ry) =     2.1003E-26     1.0523E-41
     Pert. #  3: Fermi energy shift (Ry) =     1.0771E-27    -1.7219E-41

      iter #   5 total cpu time :    49.5 secs   av.it.:   8.4
      thresh= 9.812E-08 alpha_mix =  0.700 |ddv_scf|^2 =  4.676E-15

     Pert. #  1: Fermi energy shift (Ry) =    -4.3082E-27    -2.1046E-41
     Pert. #  2: Fermi energy shift (Ry) =     1.8849E-26    -1.9132E-42
     Pert. #  3: Fermi energy shift (Ry) =    -7.8087E-27    -8.6096E-42

      iter #   6 total cpu time :    58.0 secs   av.it.:   8.4
      thresh= 6.838E-09 alpha_mix =  0.700 |ddv_scf|^2 =  3.591E-17

     End of self-consistent calculation

     Convergence has been achieved 

     Number of q in the star =    1
     List of q in the star:
          1   0.000000000   0.000000000   0.000000000

     Diagonalizing the dynamical matrix

     q = (    0.000000000   0.000000000   0.000000000 ) 

 **************************************************************************
     freq (    1) =      -0.138455 [THz] =      -4.618368 [cm-1]
     freq (    2) =      -0.138455 [THz] =      -4.618368 [cm-1]
     freq (    3) =      -0.138455 [THz] =      -4.618368 [cm-1]
 **************************************************************************

     Mode symmetry, O_h (m-3m)  point group:

     freq (  1 -  3) =         -4.6  [cm-1]   --> T_1u G_15  G_4- I  

     Calculation of q =   -0.1666667   0.1666667  -0.1666667

   Info: using nr1, nr2, nr3 values from input

   Info: using nr1, nr2, nr3 values from input

     Parallelization info
     --------------------
     sticks:   dense  smooth     PW     G-vecs:    dense   smooth      PW
     Min          51      26      9                  973      348      76
     Max          52      27     10                  977      350      79
     Sum         823     421    151                15593     5577    1243



     bravais-lattice index     =            2
     lattice parameter (alat)  =       8.6500  a.u.
     unit-cell volume          =     161.8037 (a.u.)^3
     number of atoms/cell      =            1
     number of atomic types    =            1
     number of electrons       =         9.00
     number of Kohn-Sham states=            9
     kinetic-energy cutoff     =      40.0000  Ry
     charge density cutoff     =     320.0000  Ry
     Exchange-correlation      = SLA  PW   PBE  PBE ( 1  4  3  4 0 0)

     celldm(1)=   8.650000  celldm(2)=   0.000000  celldm(3)=   0.000000
     celldm(4)=   0.000000  celldm(5)=   0.000000  celldm(6)=   0.000000

     crystal axes: (cart. coord. in units of alat)
               a(1) = (  -0.500000   0.000000   0.500000 )  
               a(2) = (   0.000000   0.500000   0.500000 )  
               a(3) = (  -0.500000   0.500000   0.000000 )  

     reciprocal axes: (cart. coord. in units 2 pi/alat)
               b(1) = ( -1.000000 -1.000000  1.000000 )  
               b(2) = (  1.000000  1.000000  1.000000 )  
               b(3) = ( -1.000000  1.000000 -1.000000 )  


     PseudoPot. # 1 for Na read from file:
     /home/s1333534/quantum_espresso/qe-6.1/pseudo/Na_pbe_v1.uspp.F.UPF
     MD5 check sum: 76a99c7e9422403d3e93cbc85ab7bccb
     Pseudo is Ultrasoft, Zval =  9.0
     Generated by new atomic code, or converted to UPF format
     Using radial grid of  819 points,  5 beta functions with: 
                l(1) =   0
                l(2) =   0
                l(3) =   1
                l(4) =   1
                l(5) =   2
     Q(r) pseudized with  8 coefficients,  rinner =    1.250   1.250   1.250
                                                       1.250   1.250

     atomic species   valence    mass     pseudopotential
        Na             9.00    22.99000     Na( 1.00)

     48 Sym. Ops., with inversion, found



   Cartesian axes

     site n.     atom                  positions (alat units)
         1           Na  tau(   1) = (   0.0000000   0.0000000   0.0000000  )

     number of k points= 11480  Marzari-Vanderbilt smearing, width (Ry)=  0.0200

     Number of k-points >= 100: set verbosity='high' to print them.

     Dense  grid:    15593 G-vectors     FFT dimensions: (  36,  36,  36)

     Smooth grid:     5577 G-vectors     FFT dimensions: (  25,  25,  25)

     Estimated max dynamical RAM per process >       0.54MB

     Estimated total allocated dynamical RAM >      34.26MB

     The potential is recalculated from file :
     ./_ph0/na.fcc.save/charge-density.dat

     Starting wfc are    5 atomic +    4 random wfc

     Band Structure Calculation
     Davidson diagonalization with overlap

     ethr =  1.11E-10,  avg # of iterations = 16.9

     total cpu time spent up to now is      129.9 secs

     End of band structure calculation

     Number of k-points >= 100: set verbosity='high' to print the bands.

     the Fermi energy is     3.9205 ev

     Writing output data file na.fcc.save

                                                                                

     bravais-lattice index     =            2
     lattice parameter (alat)  =       8.6500  a.u.
     unit-cell volume          =     161.8037 (a.u.)^3
     number of atoms/cell      =            1
     number of atomic types    =            1
     kinetic-energy cut-off    =      40.0000  Ry
     charge density cut-off    =     320.0000  Ry
     convergence threshold     =      1.0E-16
     beta                      =       0.7000
     number of iterations used =            4
     Exchange-correlation      = SLA  PW   PBE  PBE ( 1  4  3  4 0 0)


     celldm(1)=    8.65000  celldm(2)=    0.00000  celldm(3)=    0.00000
     celldm(4)=    0.00000  celldm(5)=    0.00000  celldm(6)=    0.00000

     crystal axes: (cart. coord. in units of alat)
               a(1) = ( -0.5000  0.0000  0.5000 )  
               a(2) = (  0.0000  0.5000  0.5000 )  
               a(3) = ( -0.5000  0.5000  0.0000 )  

     reciprocal axes: (cart. coord. in units 2 pi/alat)
               b(1) = ( -1.0000 -1.0000  1.0000 )  
               b(2) = (  1.0000  1.0000  1.0000 )  
               b(3) = ( -1.0000  1.0000 -1.0000 )  


     Atoms inside the unit cell: 

     Cartesian axes

     site n.  atom      mass           positions (alat units)
        1     Na  22.9900   tau(    1) = (    0.00000    0.00000    0.00000  )

     Computing dynamical matrix for 
                    q = (  -0.1666667   0.1666667  -0.1666667 )

      6 Sym.Ops. (no q -> -q+G )


     G cutoff =  606.4883  (    974 G-vectors)     FFT grid: ( 36, 36, 36)
     G cutoff =  303.2442  (    350 G-vectors)  smooth grid: ( 25, 25, 25)

     number of k points= 11480  Marzari-Vanderbilt smearing, width (Ry)=  0.0200

     PseudoPot. # 1 for Na read from file:
     /home/s1333534/quantum_espresso/qe-6.1/pseudo/Na_pbe_v1.uspp.F.UPF
     MD5 check sum: 76a99c7e9422403d3e93cbc85ab7bccb
     Pseudo is Ultrasoft, Zval =  9.0
     Generated by new atomic code, or converted to UPF format
     Using radial grid of  819 points,  5 beta functions with: 
                l(1) =   0
                l(2) =   0
                l(3) =   1
                l(4) =   1
                l(5) =   2
     Q(r) pseudized with  8 coefficients,  rinner =    1.250   1.250   1.250
                                                       1.250   1.250

     Mode symmetry, C_3v (3m)   point group:


     Atomic displacements:
     There are   2 irreducible representations

     Representation     1      1 modes -A_1  L_1  To be done

     Representation     2      2 modes -E    L_3  To be done



     Alpha used in Ewald sum =   2.8000
     PHONON       :  3m33.49s CPU     3m49.46s WALL



     Representation #  1 mode #   1

     Self-consistent Calculation

      iter #   1 total cpu time :   246.2 secs   av.it.:   5.7
      thresh= 1.000E-02 alpha_mix =  0.700 |ddv_scf|^2 =  4.418E-02

      iter #   2 total cpu time :   263.1 secs   av.it.:   6.8
      thresh= 1.000E-02 alpha_mix =  0.700 |ddv_scf|^2 =  6.091E+00

      iter #   3 total cpu time :   279.8 secs   av.it.:   6.8
      thresh= 1.000E-02 alpha_mix =  0.700 |ddv_scf|^2 =  7.945E-07

      iter #   4 total cpu time :   297.9 secs   av.it.:   7.7
      thresh= 8.913E-05 alpha_mix =  0.700 |ddv_scf|^2 =  1.130E-07

      iter #   5 total cpu time :   315.1 secs   av.it.:   7.4
      thresh= 3.362E-05 alpha_mix =  0.700 |ddv_scf|^2 =  6.194E-09

      iter #   6 total cpu time :   333.1 secs   av.it.:   7.4
      thresh= 7.870E-06 alpha_mix =  0.700 |ddv_scf|^2 =  3.863E-11

      iter #   7 total cpu time :   353.0 secs   av.it.:   8.0
      thresh= 6.215E-07 alpha_mix =  0.700 |ddv_scf|^2 =  4.819E-10

      iter #   8 total cpu time :   369.2 secs   av.it.:   6.5
      thresh= 2.195E-06 alpha_mix =  0.700 |ddv_scf|^2 =  1.778E-10

      iter #   9 total cpu time :   385.3 secs   av.it.:   6.6
      thresh= 1.333E-06 alpha_mix =  0.700 |ddv_scf|^2 =  5.044E-13

      iter #  10 total cpu time :   402.5 secs   av.it.:   7.4
      thresh= 7.102E-08 alpha_mix =  0.700 |ddv_scf|^2 =  1.168E-13

      iter #  11 total cpu time :   419.4 secs   av.it.:   7.1
      thresh= 3.418E-08 alpha_mix =  0.700 |ddv_scf|^2 =  1.188E-15

      iter #  12 total cpu time :   437.6 secs   av.it.:   7.7
      thresh= 3.447E-09 alpha_mix =  0.700 |ddv_scf|^2 =  4.958E-16

      iter #  13 total cpu time :   454.9 secs   av.it.:   7.4
      thresh= 2.227E-09 alpha_mix =  0.700 |ddv_scf|^2 =  5.488E-17

     End of self-consistent calculation

     Convergence has been achieved 


     Representation #  2 modes #   2  3

     Self-consistent Calculation

      iter #   1 total cpu time :   487.8 secs   av.it.:   5.6
      thresh= 1.000E-02 alpha_mix =  0.700 |ddv_scf|^2 =  3.391E-06

      iter #   2 total cpu time :   526.6 secs   av.it.:   8.4
      thresh= 1.841E-04 alpha_mix =  0.700 |ddv_scf|^2 =  6.516E-08

      iter #   3 total cpu time :   566.0 secs   av.it.:   8.6
      thresh= 2.553E-05 alpha_mix =  0.700 |ddv_scf|^2 =  7.778E-10

      iter #   4 total cpu time :   603.6 secs   av.it.:   8.3
      thresh= 2.789E-06 alpha_mix =  0.700 |ddv_scf|^2 =  2.564E-12

      iter #   5 total cpu time :   642.1 secs   av.it.:   8.5
      thresh= 1.601E-07 alpha_mix =  0.700 |ddv_scf|^2 =  1.018E-14

      iter #   6 total cpu time :   680.0 secs   av.it.:   8.3
      thresh= 1.009E-08 alpha_mix =  0.700 |ddv_scf|^2 =  1.355E-16

      iter #   7 total cpu time :   718.5 secs   av.it.:   8.6
      thresh= 1.164E-09 alpha_mix =  0.700 |ddv_scf|^2 =  1.178E-19

     End of self-consistent calculation

     Convergence has been achieved 

     Number of q in the star =    8
     List of q in the star:
          1  -0.166666667   0.166666667  -0.166666667
          2   0.166666667   0.166666667   0.166666667
          3  -0.166666667  -0.166666667  -0.166666667
          4   0.166666667  -0.166666667   0.166666667
          5   0.166666667  -0.166666667  -0.166666667
          6   0.166666667   0.166666667  -0.166666667
          7  -0.166666667  -0.166666667   0.166666667
          8  -0.166666667   0.166666667   0.166666667

     Diagonalizing the dynamical matrix

     q = (   -0.166666667   0.166666667  -0.166666667 ) 

 **************************************************************************
     freq (    1) =       1.088623 [THz] =      36.312552 [cm-1]
     freq (    2) =       1.088623 [THz] =      36.312552 [cm-1]
     freq (    3) =       3.377458 [THz] =     112.659871 [cm-1]
 **************************************************************************

     Mode symmetry, C_3v (3m)   point group:

     freq (  1 -  2) =         36.3  [cm-1]   --> E    L_3           
     freq (  3 -  3) =        112.7  [cm-1]   --> A_1  L_1           

     Calculation of q =   -0.3333333   0.3333333  -0.3333333

   Info: using nr1, nr2, nr3 values from input

   Info: using nr1, nr2, nr3 values from input

     Parallelization info
     --------------------
     sticks:   dense  smooth     PW     G-vecs:    dense   smooth      PW
     Min          51      26     10                  973      348      84
     Max          52      27     11                  977      350      86
     Sum         823     421    163                15593     5577    1363



     bravais-lattice index     =            2
     lattice parameter (alat)  =       8.6500  a.u.
     unit-cell volume          =     161.8037 (a.u.)^3
     number of atoms/cell      =            1
     number of atomic types    =            1
     number of electrons       =         9.00
     number of Kohn-Sham states=            9
     kinetic-energy cutoff     =      40.0000  Ry
     charge density cutoff     =     320.0000  Ry
     Exchange-correlation      = SLA  PW   PBE  PBE ( 1  4  3  4 0 0)

     celldm(1)=   8.650000  celldm(2)=   0.000000  celldm(3)=   0.000000
     celldm(4)=   0.000000  celldm(5)=   0.000000  celldm(6)=   0.000000

     crystal axes: (cart. coord. in units of alat)
               a(1) = (  -0.500000   0.000000   0.500000 )  
               a(2) = (   0.000000   0.500000   0.500000 )  
               a(3) = (  -0.500000   0.500000   0.000000 )  

     reciprocal axes: (cart. coord. in units 2 pi/alat)
               b(1) = ( -1.000000 -1.000000  1.000000 )  
               b(2) = (  1.000000  1.000000  1.000000 )  
               b(3) = ( -1.000000  1.000000 -1.000000 )  


     PseudoPot. # 1 for Na read from file:
     /home/s1333534/quantum_espresso/qe-6.1/pseudo/Na_pbe_v1.uspp.F.UPF
     MD5 check sum: 76a99c7e9422403d3e93cbc85ab7bccb
     Pseudo is Ultrasoft, Zval =  9.0
     Generated by new atomic code, or converted to UPF format
     Using radial grid of  819 points,  5 beta functions with: 
                l(1) =   0
                l(2) =   0
                l(3) =   1
                l(4) =   1
                l(5) =   2
     Q(r) pseudized with  8 coefficients,  rinner =    1.250   1.250   1.250
                                                       1.250   1.250

     atomic species   valence    mass     pseudopotential
        Na             9.00    22.99000     Na( 1.00)

     48 Sym. Ops., with inversion, found



   Cartesian axes

     site n.     atom                  positions (alat units)
         1           Na  tau(   1) = (   0.0000000   0.0000000   0.0000000  )

     number of k points= 11480  Marzari-Vanderbilt smearing, width (Ry)=  0.0200

     Number of k-points >= 100: set verbosity='high' to print them.

     Dense  grid:    15593 G-vectors     FFT dimensions: (  36,  36,  36)

     Smooth grid:     5577 G-vectors     FFT dimensions: (  25,  25,  25)

     Estimated max dynamical RAM per process >       0.54MB

     Estimated total allocated dynamical RAM >      34.26MB

     The potential is recalculated from file :
     ./_ph0/na.fcc.save/charge-density.dat

     Starting wfc are    5 atomic +    4 random wfc

     Band Structure Calculation
     Davidson diagonalization with overlap

     ethr =  1.11E-10,  avg # of iterations = 16.9

     total cpu time spent up to now is      296.5 secs

     End of band structure calculation

     Number of k-points >= 100: set verbosity='high' to print the bands.

     the Fermi energy is     3.9205 ev

     Writing output data file na.fcc.save

                                                                                

     bravais-lattice index     =            2
     lattice parameter (alat)  =       8.6500  a.u.
     unit-cell volume          =     161.8037 (a.u.)^3
     number of atoms/cell      =            1
     number of atomic types    =            1
     kinetic-energy cut-off    =      40.0000  Ry
     charge density cut-off    =     320.0000  Ry
     convergence threshold     =      1.0E-16
     beta                      =       0.7000
     number of iterations used =            4
     Exchange-correlation      = SLA  PW   PBE  PBE ( 1  4  3  4 0 0)


     celldm(1)=    8.65000  celldm(2)=    0.00000  celldm(3)=    0.00000
     celldm(4)=    0.00000  celldm(5)=    0.00000  celldm(6)=    0.00000

     crystal axes: (cart. coord. in units of alat)
               a(1) = ( -0.5000  0.0000  0.5000 )  
               a(2) = (  0.0000  0.5000  0.5000 )  
               a(3) = ( -0.5000  0.5000  0.0000 )  

     reciprocal axes: (cart. coord. in units 2 pi/alat)
               b(1) = ( -1.0000 -1.0000  1.0000 )  
               b(2) = (  1.0000  1.0000  1.0000 )  
               b(3) = ( -1.0000  1.0000 -1.0000 )  


     Atoms inside the unit cell: 

     Cartesian axes

     site n.  atom      mass           positions (alat units)
        1     Na  22.9900   tau(    1) = (    0.00000    0.00000    0.00000  )

     Computing dynamical matrix for 
                    q = (  -0.3333333   0.3333333  -0.3333333 )

      6 Sym.Ops. (no q -> -q+G )


     G cutoff =  606.4883  (    974 G-vectors)     FFT grid: ( 36, 36, 36)
     G cutoff =  303.2442  (    350 G-vectors)  smooth grid: ( 25, 25, 25)

     number of k points= 11480  Marzari-Vanderbilt smearing, width (Ry)=  0.0200

     PseudoPot. # 1 for Na read from file:
     /home/s1333534/quantum_espresso/qe-6.1/pseudo/Na_pbe_v1.uspp.F.UPF
     MD5 check sum: 76a99c7e9422403d3e93cbc85ab7bccb
     Pseudo is Ultrasoft, Zval =  9.0
     Generated by new atomic code, or converted to UPF format
     Using radial grid of  819 points,  5 beta functions with: 
                l(1) =   0
                l(2) =   0
                l(3) =   1
                l(4) =   1
                l(5) =   2
     Q(r) pseudized with  8 coefficients,  rinner =    1.250   1.250   1.250
                                                       1.250   1.250

     Mode symmetry, C_3v (3m)   point group:


     Atomic displacements:
     There are   2 irreducible representations

     Representation     1      1 modes -A_1  L_1  To be done

     Representation     2      2 modes -E    L_3  To be done



     Alpha used in Ewald sum =   2.8000
     PHONON       : 13m33.88s CPU    14m56.38s WALL



     Representation #  1 mode #   1

     Self-consistent Calculation

      iter #   1 total cpu time :   914.2 secs   av.it.:   5.8
      thresh= 1.000E-02 alpha_mix =  0.700 |ddv_scf|^2 =  7.566E-04

      iter #   2 total cpu time :   931.9 secs   av.it.:   6.7
      thresh= 2.751E-03 alpha_mix =  0.700 |ddv_scf|^2 =  4.180E-03

      iter #   3 total cpu time :   948.0 secs   av.it.:   6.0
      thresh= 6.465E-03 alpha_mix =  0.700 |ddv_scf|^2 =  7.965E-07

      iter #   4 total cpu time :   967.2 secs   av.it.:   7.7
      thresh= 8.925E-05 alpha_mix =  0.700 |ddv_scf|^2 =  1.001E-08

      iter #   5 total cpu time :   987.4 secs   av.it.:   8.3
      thresh= 1.001E-05 alpha_mix =  0.700 |ddv_scf|^2 =  8.472E-10

      iter #   6 total cpu time :  1006.9 secs   av.it.:   8.0
      thresh= 2.911E-06 alpha_mix =  0.700 |ddv_scf|^2 =  1.894E-11

      iter #   7 total cpu time :  1025.6 secs   av.it.:   7.6
      thresh= 4.352E-07 alpha_mix =  0.700 |ddv_scf|^2 =  3.957E-13

      iter #   8 total cpu time :  1045.6 secs   av.it.:   7.7
      thresh= 6.291E-08 alpha_mix =  0.700 |ddv_scf|^2 =  9.183E-16

      iter #   9 total cpu time :  1064.6 secs   av.it.:   7.7
      thresh= 3.030E-09 alpha_mix =  0.700 |ddv_scf|^2 =  2.972E-16

      iter #  10 total cpu time :  1082.9 secs   av.it.:   7.3
      thresh= 1.724E-09 alpha_mix =  0.700 |ddv_scf|^2 =  6.545E-16

      iter #  11 total cpu time :  1100.2 secs   av.it.:   6.7
      thresh= 2.558E-09 alpha_mix =  0.700 |ddv_scf|^2 =  6.021E-18

     End of self-consistent calculation

     Convergence has been achieved 


     Representation #  2 modes #   2  3

     Self-consistent Calculation

      iter #   1 total cpu time :  1134.8 secs   av.it.:   5.6
      thresh= 1.000E-02 alpha_mix =  0.700 |ddv_scf|^2 =  3.508E-06

      iter #   2 total cpu time :  1175.5 secs   av.it.:   8.3
      thresh= 1.873E-04 alpha_mix =  0.700 |ddv_scf|^2 =  6.431E-08

      iter #   3 total cpu time :  1219.1 secs   av.it.:   8.6
      thresh= 2.536E-05 alpha_mix =  0.700 |ddv_scf|^2 =  9.792E-10

      iter #   4 total cpu time :  1258.9 secs   av.it.:   8.3
      thresh= 3.129E-06 alpha_mix =  0.700 |ddv_scf|^2 =  3.312E-12

      iter #   5 total cpu time :  1299.7 secs   av.it.:   8.5
      thresh= 1.820E-07 alpha_mix =  0.700 |ddv_scf|^2 =  9.783E-15

      iter #   6 total cpu time :  1339.9 secs   av.it.:   8.2
      thresh= 9.891E-09 alpha_mix =  0.700 |ddv_scf|^2 =  2.118E-16

      iter #   7 total cpu time :  1381.5 secs   av.it.:   8.5
      thresh= 1.455E-09 alpha_mix =  0.700 |ddv_scf|^2 =  1.847E-19

     End of self-consistent calculation

     Convergence has been achieved 

     Number of q in the star =    8
     List of q in the star:
          1  -0.333333333   0.333333333  -0.333333333
          2   0.333333333   0.333333333   0.333333333
          3  -0.333333333  -0.333333333  -0.333333333
          4   0.333333333  -0.333333333   0.333333333
          5   0.333333333  -0.333333333  -0.333333333
          6   0.333333333   0.333333333  -0.333333333
          7  -0.333333333  -0.333333333   0.333333333
          8  -0.333333333   0.333333333   0.333333333

     Diagonalizing the dynamical matrix

     q = (   -0.333333333   0.333333333  -0.333333333 ) 

 **************************************************************************
     freq (    1) =       1.889075 [THz] =      63.012764 [cm-1]
     freq (    2) =       1.889075 [THz] =      63.012764 [cm-1]
     freq (    3) =       5.929261 [THz] =     197.778866 [cm-1]
 **************************************************************************

     Mode symmetry, C_3v (3m)   point group:

     freq (  1 -  2) =         63.0  [cm-1]   --> E    L_3           
     freq (  3 -  3) =        197.8  [cm-1]   --> A_1  L_1           

     Calculation of q =    0.5000000  -0.5000000   0.5000000

   Info: using nr1, nr2, nr3 values from input

   Info: using nr1, nr2, nr3 values from input

     Parallelization info
     --------------------
     sticks:   dense  smooth     PW     G-vecs:    dense   smooth      PW
     Min          51      26     10                  973      348      87
     Max          52      27     11                  977      350      90
     Sum         823     421    163                15593     5577    1411



     bravais-lattice index     =            2
     lattice parameter (alat)  =       8.6500  a.u.
     unit-cell volume          =     161.8037 (a.u.)^3
     number of atoms/cell      =            1
     number of atomic types    =            1
     number of electrons       =         9.00
     number of Kohn-Sham states=            9
     kinetic-energy cutoff     =      40.0000  Ry
     charge density cutoff     =     320.0000  Ry
     Exchange-correlation      = SLA  PW   PBE  PBE ( 1  4  3  4 0 0)

     celldm(1)=   8.650000  celldm(2)=   0.000000  celldm(3)=   0.000000
     celldm(4)=   0.000000  celldm(5)=   0.000000  celldm(6)=   0.000000

     crystal axes: (cart. coord. in units of alat)
               a(1) = (  -0.500000   0.000000   0.500000 )  
               a(2) = (   0.000000   0.500000   0.500000 )  
               a(3) = (  -0.500000   0.500000   0.000000 )  

     reciprocal axes: (cart. coord. in units 2 pi/alat)
               b(1) = ( -1.000000 -1.000000  1.000000 )  
               b(2) = (  1.000000  1.000000  1.000000 )  
               b(3) = ( -1.000000  1.000000 -1.000000 )  


     PseudoPot. # 1 for Na read from file:
     /home/s1333534/quantum_espresso/qe-6.1/pseudo/Na_pbe_v1.uspp.F.UPF
     MD5 check sum: 76a99c7e9422403d3e93cbc85ab7bccb
     Pseudo is Ultrasoft, Zval =  9.0
     Generated by new atomic code, or converted to UPF format
     Using radial grid of  819 points,  5 beta functions with: 
                l(1) =   0
                l(2) =   0
                l(3) =   1
                l(4) =   1
                l(5) =   2
     Q(r) pseudized with  8 coefficients,  rinner =    1.250   1.250   1.250
                                                       1.250   1.250

     atomic species   valence    mass     pseudopotential
        Na             9.00    22.99000     Na( 1.00)

     48 Sym. Ops., with inversion, found



   Cartesian axes

     site n.     atom                  positions (alat units)
         1           Na  tau(   1) = (   0.0000000   0.0000000   0.0000000  )

     number of k points=  5740  Marzari-Vanderbilt smearing, width (Ry)=  0.0200

     Number of k-points >= 100: set verbosity='high' to print them.

     Dense  grid:    15593 G-vectors     FFT dimensions: (  36,  36,  36)

     Smooth grid:     5577 G-vectors     FFT dimensions: (  25,  25,  25)

     Estimated max dynamical RAM per process >       0.54MB

     Estimated total allocated dynamical RAM >      34.26MB

     The potential is recalculated from file :
     ./_ph0/na.fcc.save/charge-density.dat

     Starting wfc are    5 atomic +    4 random wfc

     Band Structure Calculation
     Davidson diagonalization with overlap

     ethr =  1.11E-10,  avg # of iterations = 17.0

     total cpu time spent up to now is      398.5 secs

     End of band structure calculation

     Number of k-points >= 100: set verbosity='high' to print the bands.

     the Fermi energy is     3.9205 ev

     Writing output data file na.fcc.save

                                                                                

     bravais-lattice index     =            2
     lattice parameter (alat)  =       8.6500  a.u.
     unit-cell volume          =     161.8037 (a.u.)^3
     number of atoms/cell      =            1
     number of atomic types    =            1
     kinetic-energy cut-off    =      40.0000  Ry
     charge density cut-off    =     320.0000  Ry
     convergence threshold     =      1.0E-16
     beta                      =       0.7000
     number of iterations used =            4
     Exchange-correlation      = SLA  PW   PBE  PBE ( 1  4  3  4 0 0)


     celldm(1)=    8.65000  celldm(2)=    0.00000  celldm(3)=    0.00000
     celldm(4)=    0.00000  celldm(5)=    0.00000  celldm(6)=    0.00000

     crystal axes: (cart. coord. in units of alat)
               a(1) = ( -0.5000  0.0000  0.5000 )  
               a(2) = (  0.0000  0.5000  0.5000 )  
               a(3) = ( -0.5000  0.5000  0.0000 )  

     reciprocal axes: (cart. coord. in units 2 pi/alat)
               b(1) = ( -1.0000 -1.0000  1.0000 )  
               b(2) = (  1.0000  1.0000  1.0000 )  
               b(3) = ( -1.0000  1.0000 -1.0000 )  


     Atoms inside the unit cell: 

     Cartesian axes

     site n.  atom      mass           positions (alat units)
        1     Na  22.9900   tau(    1) = (    0.00000    0.00000    0.00000  )

     Computing dynamical matrix for 
                    q = (   0.5000000  -0.5000000   0.5000000 )

     13 Sym.Ops. (with q -> -q+G )


     G cutoff =  606.4883  (    974 G-vectors)     FFT grid: ( 36, 36, 36)
     G cutoff =  303.2442  (    350 G-vectors)  smooth grid: ( 25, 25, 25)

     number of k points=  5740  Marzari-Vanderbilt smearing, width (Ry)=  0.0200

     PseudoPot. # 1 for Na read from file:
     /home/s1333534/quantum_espresso/qe-6.1/pseudo/Na_pbe_v1.uspp.F.UPF
     MD5 check sum: 76a99c7e9422403d3e93cbc85ab7bccb
     Pseudo is Ultrasoft, Zval =  9.0
     Generated by new atomic code, or converted to UPF format
     Using radial grid of  819 points,  5 beta functions with: 
                l(1) =   0
                l(2) =   0
                l(3) =   1
                l(4) =   1
                l(5) =   2
     Q(r) pseudized with  8 coefficients,  rinner =    1.250   1.250   1.250
                                                       1.250   1.250

     Mode symmetry, D_3d (-3m)  point group:


     Atomic displacements:
     There are   2 irreducible representations

     Representation     1      1 modes -A_2u L_2'  To be done

     Representation     2      2 modes -E_u  L_3'  To be done



     Alpha used in Ewald sum =   2.8000
     PHONON       : 22m 9.81s CPU    24m29.81s WALL



     Representation #  1 mode #   1

     Self-consistent Calculation

      iter #   1 total cpu time :  1478.9 secs   av.it.:   5.8
      thresh= 1.000E-02 alpha_mix =  0.700 |ddv_scf|^2 =  1.547E-04

      iter #   2 total cpu time :  1488.5 secs   av.it.:   7.0
      thresh= 1.244E-03 alpha_mix =  0.700 |ddv_scf|^2 =  8.720E-05

      iter #   3 total cpu time :  1497.6 secs   av.it.:   6.9
      thresh= 9.338E-04 alpha_mix =  0.700 |ddv_scf|^2 =  8.728E-08

      iter #   4 total cpu time :  1507.7 secs   av.it.:   7.9
      thresh= 2.954E-05 alpha_mix =  0.700 |ddv_scf|^2 =  3.238E-10

      iter #   5 total cpu time :  1516.7 secs   av.it.:   6.9
      thresh= 1.800E-06 alpha_mix =  0.700 |ddv_scf|^2 =  8.130E-12

      iter #   6 total cpu time :  1525.9 secs   av.it.:   6.6
      thresh= 2.851E-07 alpha_mix =  0.700 |ddv_scf|^2 =  1.359E-14

      iter #   7 total cpu time :  1535.4 secs   av.it.:   7.3
      thresh= 1.166E-08 alpha_mix =  0.700 |ddv_scf|^2 =  1.668E-17

     End of self-consistent calculation

     Convergence has been achieved 


     Representation #  2 modes #   2  3

     Self-consistent Calculation

      iter #   1 total cpu time :  1553.3 secs   av.it.:   5.5
      thresh= 1.000E-02 alpha_mix =  0.700 |ddv_scf|^2 =  3.563E-06

      iter #   2 total cpu time :  1573.9 secs   av.it.:   8.3
      thresh= 1.888E-04 alpha_mix =  0.700 |ddv_scf|^2 =  6.412E-08

      iter #   3 total cpu time :  1595.4 secs   av.it.:   8.6
      thresh= 2.532E-05 alpha_mix =  0.700 |ddv_scf|^2 =  1.066E-09

      iter #   4 total cpu time :  1615.3 secs   av.it.:   7.9
      thresh= 3.266E-06 alpha_mix =  0.700 |ddv_scf|^2 =  3.588E-12

      iter #   5 total cpu time :  1635.9 secs   av.it.:   8.2
      thresh= 1.894E-07 alpha_mix =  0.700 |ddv_scf|^2 =  9.765E-15

      iter #   6 total cpu time :  1656.2 secs   av.it.:   8.0
      thresh= 9.882E-09 alpha_mix =  0.700 |ddv_scf|^2 =  2.327E-16

      iter #   7 total cpu time :  1677.0 secs   av.it.:   8.2
      thresh= 1.525E-09 alpha_mix =  0.700 |ddv_scf|^2 =  1.692E-19

     End of self-consistent calculation

     Convergence has been achieved 

     Number of q in the star =    4
     List of q in the star:
          1   0.500000000  -0.500000000   0.500000000
          2   0.500000000   0.500000000   0.500000000
          3  -0.500000000   0.500000000   0.500000000
          4   0.500000000   0.500000000  -0.500000000

     Diagonalizing the dynamical matrix

     q = (    0.500000000  -0.500000000   0.500000000 ) 

 **************************************************************************
     freq (    1) =       2.189487 [THz] =      73.033426 [cm-1]
     freq (    2) =       2.189487 [THz] =      73.033426 [cm-1]
     freq (    3) =       6.877457 [THz] =     229.407279 [cm-1]
 **************************************************************************

     Mode symmetry, D_3d (-3m)  point group:

     freq (  1 -  2) =         73.0  [cm-1]   --> E_u  L_3'          
     freq (  3 -  3) =        229.4  [cm-1]   --> A_2u L_2'          

     Calculation of q =    0.0000000   0.3333333   0.0000000

   Info: using nr1, nr2, nr3 values from input

   Info: using nr1, nr2, nr3 values from input

     Parallelization info
     --------------------
     sticks:   dense  smooth     PW     G-vecs:    dense   smooth      PW
     Min          51      26      9                  973      348      76
     Max          52      27     10                  977      350      79
     Sum         823     421    151                15593     5577    1243



     bravais-lattice index     =            2
     lattice parameter (alat)  =       8.6500  a.u.
     unit-cell volume          =     161.8037 (a.u.)^3
     number of atoms/cell      =            1
     number of atomic types    =            1
     number of electrons       =         9.00
     number of Kohn-Sham states=            9
     kinetic-energy cutoff     =      40.0000  Ry
     charge density cutoff     =     320.0000  Ry
     Exchange-correlation      = SLA  PW   PBE  PBE ( 1  4  3  4 0 0)

     celldm(1)=   8.650000  celldm(2)=   0.000000  celldm(3)=   0.000000
     celldm(4)=   0.000000  celldm(5)=   0.000000  celldm(6)=   0.000000

     crystal axes: (cart. coord. in units of alat)
               a(1) = (  -0.500000   0.000000   0.500000 )  
               a(2) = (   0.000000   0.500000   0.500000 )  
               a(3) = (  -0.500000   0.500000   0.000000 )  

     reciprocal axes: (cart. coord. in units 2 pi/alat)
               b(1) = ( -1.000000 -1.000000  1.000000 )  
               b(2) = (  1.000000  1.000000  1.000000 )  
               b(3) = ( -1.000000  1.000000 -1.000000 )  


     PseudoPot. # 1 for Na read from file:
     /home/s1333534/quantum_espresso/qe-6.1/pseudo/Na_pbe_v1.uspp.F.UPF
     MD5 check sum: 76a99c7e9422403d3e93cbc85ab7bccb
     Pseudo is Ultrasoft, Zval =  9.0
     Generated by new atomic code, or converted to UPF format
     Using radial grid of  819 points,  5 beta functions with: 
                l(1) =   0
                l(2) =   0
                l(3) =   1
                l(4) =   1
                l(5) =   2
     Q(r) pseudized with  8 coefficients,  rinner =    1.250   1.250   1.250
                                                       1.250   1.250

     atomic species   valence    mass     pseudopotential
        Na             9.00    22.99000     Na( 1.00)

     48 Sym. Ops., with inversion, found



   Cartesian axes

     site n.     atom                  positions (alat units)
         1           Na  tau(   1) = (   0.0000000   0.0000000   0.0000000  )

     number of k points=  8400  Marzari-Vanderbilt smearing, width (Ry)=  0.0200

     Number of k-points >= 100: set verbosity='high' to print them.

     Dense  grid:    15593 G-vectors     FFT dimensions: (  36,  36,  36)

     Smooth grid:     5577 G-vectors     FFT dimensions: (  25,  25,  25)

     Estimated max dynamical RAM per process >       0.54MB

     Estimated total allocated dynamical RAM >      34.26MB

     The potential is recalculated from file :
     ./_ph0/na.fcc.save/charge-density.dat

     Starting wfc are    5 atomic +    4 random wfc

     Band Structure Calculation
     Davidson diagonalization with overlap

     ethr =  1.11E-10,  avg # of iterations = 16.9

     total cpu time spent up to now is      508.1 secs

     End of band structure calculation

     Number of k-points >= 100: set verbosity='high' to print the bands.

     the Fermi energy is     3.9205 ev

     Writing output data file na.fcc.save

                                                                                

     bravais-lattice index     =            2
     lattice parameter (alat)  =       8.6500  a.u.
     unit-cell volume          =     161.8037 (a.u.)^3
     number of atoms/cell      =            1
     number of atomic types    =            1
     kinetic-energy cut-off    =      40.0000  Ry
     charge density cut-off    =     320.0000  Ry
     convergence threshold     =      1.0E-16
     beta                      =       0.7000
     number of iterations used =            4
     Exchange-correlation      = SLA  PW   PBE  PBE ( 1  4  3  4 0 0)


     celldm(1)=    8.65000  celldm(2)=    0.00000  celldm(3)=    0.00000
     celldm(4)=    0.00000  celldm(5)=    0.00000  celldm(6)=    0.00000

     crystal axes: (cart. coord. in units of alat)
               a(1) = ( -0.5000  0.0000  0.5000 )  
               a(2) = (  0.0000  0.5000  0.5000 )  
               a(3) = ( -0.5000  0.5000  0.0000 )  

     reciprocal axes: (cart. coord. in units 2 pi/alat)
               b(1) = ( -1.0000 -1.0000  1.0000 )  
               b(2) = (  1.0000  1.0000  1.0000 )  
               b(3) = ( -1.0000  1.0000 -1.0000 )  


     Atoms inside the unit cell: 

     Cartesian axes

     site n.  atom      mass           positions (alat units)
        1     Na  22.9900   tau(    1) = (    0.00000    0.00000    0.00000  )

     Computing dynamical matrix for 
                    q = (   0.0000000   0.3333333   0.0000000 )

      8 Sym.Ops. (no q -> -q+G )


     G cutoff =  606.4883  (    974 G-vectors)     FFT grid: ( 36, 36, 36)
     G cutoff =  303.2442  (    350 G-vectors)  smooth grid: ( 25, 25, 25)

     number of k points=  8400  Marzari-Vanderbilt smearing, width (Ry)=  0.0200

     PseudoPot. # 1 for Na read from file:
     /home/s1333534/quantum_espresso/qe-6.1/pseudo/Na_pbe_v1.uspp.F.UPF
     MD5 check sum: 76a99c7e9422403d3e93cbc85ab7bccb
     Pseudo is Ultrasoft, Zval =  9.0
     Generated by new atomic code, or converted to UPF format
     Using radial grid of  819 points,  5 beta functions with: 
                l(1) =   0
                l(2) =   0
                l(3) =   1
                l(4) =   1
                l(5) =   2
     Q(r) pseudized with  8 coefficients,  rinner =    1.250   1.250   1.250
                                                       1.250   1.250

     Mode symmetry, C_4v (4mm)  point group:


     Atomic displacements:
     There are   2 irreducible representations

     Representation     1      1 modes -A_1  G_1 D_1  To be done

     Representation     2      2 modes -E    G_5 D_5  To be done



     Alpha used in Ewald sum =   2.8000
     PHONON       : 27m11.41s CPU    29m59.87s WALL



     Representation #  1 mode #   1

     Self-consistent Calculation

      iter #   1 total cpu time :  1812.5 secs   av.it.:   5.7
      thresh= 1.000E-02 alpha_mix =  0.700 |ddv_scf|^2 =  1.897E-02

      iter #   2 total cpu time :  1824.6 secs   av.it.:   6.6
      thresh= 1.000E-02 alpha_mix =  0.700 |ddv_scf|^2 =  1.426E+00

      iter #   3 total cpu time :  1836.2 secs   av.it.:   6.6
      thresh= 1.000E-02 alpha_mix =  0.700 |ddv_scf|^2 =  3.185E-06

      iter #   4 total cpu time :  1848.9 secs   av.it.:   7.3
      thresh= 1.785E-04 alpha_mix =  0.700 |ddv_scf|^2 =  1.148E-07

      iter #   5 total cpu time :  1861.6 secs   av.it.:   7.4
      thresh= 3.389E-05 alpha_mix =  0.700 |ddv_scf|^2 =  2.153E-09

      iter #   6 total cpu time :  1874.5 secs   av.it.:   7.6
      thresh= 4.640E-06 alpha_mix =  0.700 |ddv_scf|^2 =  4.621E-11

      iter #   7 total cpu time :  1888.3 secs   av.it.:   7.9
      thresh= 6.798E-07 alpha_mix =  0.700 |ddv_scf|^2 =  3.832E-10

      iter #   8 total cpu time :  1899.3 secs   av.it.:   6.1
      thresh= 1.958E-06 alpha_mix =  0.700 |ddv_scf|^2 =  5.488E-11

      iter #   9 total cpu time :  1911.2 secs   av.it.:   6.6
      thresh= 7.408E-07 alpha_mix =  0.700 |ddv_scf|^2 =  8.717E-13

      iter #  10 total cpu time :  1923.7 secs   av.it.:   7.1
      thresh= 9.337E-08 alpha_mix =  0.700 |ddv_scf|^2 =  3.605E-14

      iter #  11 total cpu time :  1936.6 secs   av.it.:   7.4
      thresh= 1.899E-08 alpha_mix =  0.700 |ddv_scf|^2 =  6.163E-16

      iter #  12 total cpu time :  1950.8 secs   av.it.:   7.9
      thresh= 2.483E-09 alpha_mix =  0.700 |ddv_scf|^2 =  1.091E-16

      iter #  13 total cpu time :  1963.7 secs   av.it.:   7.5
      thresh= 1.045E-09 alpha_mix =  0.700 |ddv_scf|^2 =  1.943E-17

     End of self-consistent calculation

     Convergence has been achieved 


     Representation #  2 modes #   2  3

     Self-consistent Calculation

      iter #   1 total cpu time :  1987.9 secs   av.it.:   5.6
      thresh= 1.000E-02 alpha_mix =  0.700 |ddv_scf|^2 =  3.597E-06

      iter #   2 total cpu time :  2016.5 secs   av.it.:   8.4
      thresh= 1.897E-04 alpha_mix =  0.700 |ddv_scf|^2 =  6.175E-08

      iter #   3 total cpu time :  2045.2 secs   av.it.:   8.6
      thresh= 2.485E-05 alpha_mix =  0.700 |ddv_scf|^2 =  1.292E-09

      iter #   4 total cpu time :  2072.9 secs   av.it.:   8.3
      thresh= 3.594E-06 alpha_mix =  0.700 |ddv_scf|^2 =  4.136E-12

      iter #   5 total cpu time :  2101.9 secs   av.it.:   8.4
      thresh= 2.034E-07 alpha_mix =  0.700 |ddv_scf|^2 =  8.150E-15

      iter #   6 total cpu time :  2129.1 secs   av.it.:   8.1
      thresh= 9.028E-09 alpha_mix =  0.700 |ddv_scf|^2 =  2.675E-16

      iter #   7 total cpu time :  2156.8 secs   av.it.:   8.3
      thresh= 1.636E-09 alpha_mix =  0.700 |ddv_scf|^2 =  2.287E-19

     End of self-consistent calculation

     Convergence has been achieved 

     Number of q in the star =    6
     List of q in the star:
          1   0.000000000   0.333333333   0.000000000
          2   0.333333333   0.000000000   0.000000000
          3   0.000000000   0.000000000   0.333333333
          4   0.000000000  -0.333333333   0.000000000
          5  -0.333333333   0.000000000   0.000000000
          6   0.000000000   0.000000000  -0.333333333

     Diagonalizing the dynamical matrix

     q = (    0.000000000   0.333333333   0.000000000 ) 

 **************************************************************************
     freq (    1) =       1.969765 [THz] =      65.704300 [cm-1]
     freq (    2) =       1.969765 [THz] =      65.704300 [cm-1]
     freq (    3) =       3.211306 [THz] =     107.117637 [cm-1]
 **************************************************************************

     Mode symmetry, C_4v (4mm)  point group:

     freq (  1 -  2) =         65.7  [cm-1]   --> E    G_5 D_5       
     freq (  3 -  3) =        107.1  [cm-1]   --> A_1  G_1 D_1       

     Calculation of q =   -0.1666667   0.5000000  -0.1666667

   Info: using nr1, nr2, nr3 values from input

   Info: using nr1, nr2, nr3 values from input

     Parallelization info
     --------------------
     sticks:   dense  smooth     PW     G-vecs:    dense   smooth      PW
     Min          51      26     10                  973      348      84
     Max          52      27     11                  977      350      86
     Sum         823     421    163                15593     5577    1363



     bravais-lattice index     =            2
     lattice parameter (alat)  =       8.6500  a.u.
     unit-cell volume          =     161.8037 (a.u.)^3
     number of atoms/cell      =            1
     number of atomic types    =            1
     number of electrons       =         9.00
     number of Kohn-Sham states=            9
     kinetic-energy cutoff     =      40.0000  Ry
     charge density cutoff     =     320.0000  Ry
     Exchange-correlation      = SLA  PW   PBE  PBE ( 1  4  3  4 0 0)

     celldm(1)=   8.650000  celldm(2)=   0.000000  celldm(3)=   0.000000
     celldm(4)=   0.000000  celldm(5)=   0.000000  celldm(6)=   0.000000

     crystal axes: (cart. coord. in units of alat)
               a(1) = (  -0.500000   0.000000   0.500000 )  
               a(2) = (   0.000000   0.500000   0.500000 )  
               a(3) = (  -0.500000   0.500000   0.000000 )  

     reciprocal axes: (cart. coord. in units 2 pi/alat)
               b(1) = ( -1.000000 -1.000000  1.000000 )  
               b(2) = (  1.000000  1.000000  1.000000 )  
               b(3) = ( -1.000000  1.000000 -1.000000 )  


     PseudoPot. # 1 for Na read from file:
     /home/s1333534/quantum_espresso/qe-6.1/pseudo/Na_pbe_v1.uspp.F.UPF
     MD5 check sum: 76a99c7e9422403d3e93cbc85ab7bccb
     Pseudo is Ultrasoft, Zval =  9.0
     Generated by new atomic code, or converted to UPF format
     Using radial grid of  819 points,  5 beta functions with: 
                l(1) =   0
                l(2) =   0
                l(3) =   1
                l(4) =   1
                l(5) =   2
     Q(r) pseudized with  8 coefficients,  rinner =    1.250   1.250   1.250
                                                       1.250   1.250

     atomic species   valence    mass     pseudopotential
        Na             9.00    22.99000     Na( 1.00)

     48 Sym. Ops., with inversion, found



   Cartesian axes

     site n.     atom                  positions (alat units)
         1           Na  tau(   1) = (   0.0000000   0.0000000   0.0000000  )

     number of k points= 32800  Marzari-Vanderbilt smearing, width (Ry)=  0.0200

     Number of k-points >= 100: set verbosity='high' to print them.

     Dense  grid:    15593 G-vectors     FFT dimensions: (  36,  36,  36)

     Smooth grid:     5577 G-vectors     FFT dimensions: (  25,  25,  25)

     Estimated max dynamical RAM per process >       0.54MB

     Estimated total allocated dynamical RAM >      34.26MB

     The potential is recalculated from file :
     ./_ph0/na.fcc.save/charge-density.dat

     Starting wfc are    5 atomic +    4 random wfc

     Band Structure Calculation
     Davidson diagonalization with overlap

     ethr =  1.11E-10,  avg # of iterations = 16.9

     total cpu time spent up to now is      910.9 secs

     End of band structure calculation

     Number of k-points >= 100: set verbosity='high' to print the bands.

     the Fermi energy is     3.9205 ev

     Writing output data file na.fcc.save

                                                                                

     bravais-lattice index     =            2
     lattice parameter (alat)  =       8.6500  a.u.
     unit-cell volume          =     161.8037 (a.u.)^3
     number of atoms/cell      =            1
     number of atomic types    =            1
     kinetic-energy cut-off    =      40.0000  Ry
     charge density cut-off    =     320.0000  Ry
     convergence threshold     =      1.0E-16
     beta                      =       0.7000
     number of iterations used =            4
     Exchange-correlation      = SLA  PW   PBE  PBE ( 1  4  3  4 0 0)


     celldm(1)=    8.65000  celldm(2)=    0.00000  celldm(3)=    0.00000
     celldm(4)=    0.00000  celldm(5)=    0.00000  celldm(6)=    0.00000

     crystal axes: (cart. coord. in units of alat)
               a(1) = ( -0.5000  0.0000  0.5000 )  
               a(2) = (  0.0000  0.5000  0.5000 )  
               a(3) = ( -0.5000  0.5000  0.0000 )  

     reciprocal axes: (cart. coord. in units 2 pi/alat)
               b(1) = ( -1.0000 -1.0000  1.0000 )  
               b(2) = (  1.0000  1.0000  1.0000 )  
               b(3) = ( -1.0000  1.0000 -1.0000 )  


     Atoms inside the unit cell: 

     Cartesian axes

     site n.  atom      mass           positions (alat units)
        1     Na  22.9900   tau(    1) = (    0.00000    0.00000    0.00000  )

     Computing dynamical matrix for 
                    q = (  -0.1666667   0.5000000  -0.1666667 )

      2 Sym.Ops. (no q -> -q+G )


     G cutoff =  606.4883  (    974 G-vectors)     FFT grid: ( 36, 36, 36)
     G cutoff =  303.2442  (    350 G-vectors)  smooth grid: ( 25, 25, 25)

     number of k points= 32800  Marzari-Vanderbilt smearing, width (Ry)=  0.0200

     PseudoPot. # 1 for Na read from file:
     /home/s1333534/quantum_espresso/qe-6.1/pseudo/Na_pbe_v1.uspp.F.UPF
     MD5 check sum: 76a99c7e9422403d3e93cbc85ab7bccb
     Pseudo is Ultrasoft, Zval =  9.0
     Generated by new atomic code, or converted to UPF format
     Using radial grid of  819 points,  5 beta functions with: 
                l(1) =   0
                l(2) =   0
                l(3) =   1
                l(4) =   1
                l(5) =   2
     Q(r) pseudized with  8 coefficients,  rinner =    1.250   1.250   1.250
                                                       1.250   1.250

     Mode symmetry, C_s (m)     point group:


     Atomic displacements:
     There are   3 irreducible representations

     Representation     1      1 modes -A'  To be done

     Representation     2      1 modes -A'  To be done

     Representation     3      1 modes -A''  To be done



     Alpha used in Ewald sum =   2.8000
     PHONON       : 40m17.16s CPU    44m18.25s WALL



     Representation #  1 mode #   1

     Self-consistent Calculation

      iter #   1 total cpu time :  2712.6 secs   av.it.:   5.8
      thresh= 1.000E-02 alpha_mix =  0.700 |ddv_scf|^2 =  8.400E-04

      iter #   2 total cpu time :  2766.8 secs   av.it.:   6.9
      thresh= 2.898E-03 alpha_mix =  0.700 |ddv_scf|^2 =  5.900E-03

      iter #   3 total cpu time :  2814.2 secs   av.it.:   5.8
      thresh= 7.681E-03 alpha_mix =  0.700 |ddv_scf|^2 =  8.665E-07

      iter #   4 total cpu time :  2873.6 secs   av.it.:   7.8
      thresh= 9.309E-05 alpha_mix =  0.700 |ddv_scf|^2 =  5.270E-09

      iter #   5 total cpu time :  2937.4 secs   av.it.:   8.4
      thresh= 7.260E-06 alpha_mix =  0.700 |ddv_scf|^2 =  9.209E-10

      iter #   6 total cpu time :  2997.0 secs   av.it.:   8.0
      thresh= 3.035E-06 alpha_mix =  0.700 |ddv_scf|^2 =  1.881E-11

      iter #   7 total cpu time :  3056.3 secs   av.it.:   7.8
      thresh= 4.337E-07 alpha_mix =  0.700 |ddv_scf|^2 =  2.588E-11

      iter #   8 total cpu time :  3108.6 secs   av.it.:   6.6
      thresh= 5.087E-07 alpha_mix =  0.700 |ddv_scf|^2 =  3.557E-12

      iter #   9 total cpu time :  3167.1 secs   av.it.:   7.4
      thresh= 1.886E-07 alpha_mix =  0.700 |ddv_scf|^2 =  6.961E-13

      iter #  10 total cpu time :  3222.2 secs   av.it.:   7.0
      thresh= 8.343E-08 alpha_mix =  0.700 |ddv_scf|^2 =  5.460E-15

      iter #  11 total cpu time :  3284.7 secs   av.it.:   8.4
      thresh= 7.389E-09 alpha_mix =  0.700 |ddv_scf|^2 =  3.844E-16

      iter #  12 total cpu time :  3345.2 secs   av.it.:   8.1
      thresh= 1.961E-09 alpha_mix =  0.700 |ddv_scf|^2 =  4.894E-17

     End of self-consistent calculation

     Convergence has been achieved 


     Representation #  2 mode #   2

     Self-consistent Calculation

      iter #   1 total cpu time :  3401.1 secs   av.it.:   5.8
      thresh= 1.000E-02 alpha_mix =  0.700 |ddv_scf|^2 =  1.418E-04

      iter #   2 total cpu time :  3459.7 secs   av.it.:   7.4
      thresh= 1.191E-03 alpha_mix =  0.700 |ddv_scf|^2 =  8.961E-04

      iter #   3 total cpu time :  3508.6 secs   av.it.:   5.9
      thresh= 2.993E-03 alpha_mix =  0.700 |ddv_scf|^2 =  2.327E-07

      iter #   4 total cpu time :  3571.9 secs   av.it.:   8.1
      thresh= 4.824E-05 alpha_mix =  0.700 |ddv_scf|^2 =  6.370E-09

      iter #   5 total cpu time :  3633.5 secs   av.it.:   8.1
      thresh= 7.981E-06 alpha_mix =  0.700 |ddv_scf|^2 =  2.779E-10

      iter #   6 total cpu time :  3694.9 secs   av.it.:   8.2
      thresh= 1.667E-06 alpha_mix =  0.700 |ddv_scf|^2 =  1.741E-11

      iter #   7 total cpu time :  3754.7 secs   av.it.:   7.8
      thresh= 4.172E-07 alpha_mix =  0.700 |ddv_scf|^2 =  7.917E-13

      iter #   8 total cpu time :  3812.6 secs   av.it.:   7.6
      thresh= 8.898E-08 alpha_mix =  0.700 |ddv_scf|^2 =  4.200E-13

      iter #   9 total cpu time :  3863.8 secs   av.it.:   6.3
      thresh= 6.481E-08 alpha_mix =  0.700 |ddv_scf|^2 =  2.156E-14

      iter #  10 total cpu time :  3920.5 secs   av.it.:   7.4
      thresh= 1.468E-08 alpha_mix =  0.700 |ddv_scf|^2 =  2.527E-14

      iter #  11 total cpu time :  3970.4 secs   av.it.:   6.2
      thresh= 1.590E-08 alpha_mix =  0.700 |ddv_scf|^2 =  1.239E-16

      iter #  12 total cpu time :  4030.6 secs   av.it.:   7.9
      thresh= 1.113E-09 alpha_mix =  0.700 |ddv_scf|^2 =  3.260E-18

     End of self-consistent calculation

     Convergence has been achieved 


     Representation #  3 mode #   3

     Self-consistent Calculation

      iter #   1 total cpu time :  4085.9 secs   av.it.:   5.5
      thresh= 1.000E-02 alpha_mix =  0.700 |ddv_scf|^2 =  1.529E-05

      iter #   2 total cpu time :  4145.4 secs   av.it.:   7.8
      thresh= 3.910E-04 alpha_mix =  0.700 |ddv_scf|^2 =  2.354E-07

      iter #   3 total cpu time :  4206.3 secs   av.it.:   8.0
      thresh= 4.852E-05 alpha_mix =  0.700 |ddv_scf|^2 =  7.413E-09

      iter #   4 total cpu time :  4263.6 secs   av.it.:   7.6
      thresh= 8.610E-06 alpha_mix =  0.700 |ddv_scf|^2 =  2.464E-11

      iter #   5 total cpu time :  4323.1 secs   av.it.:   7.8
      thresh= 4.964E-07 alpha_mix =  0.700 |ddv_scf|^2 =  3.041E-14

      iter #   6 total cpu time :  4379.8 secs   av.it.:   7.4
      thresh= 1.744E-08 alpha_mix =  0.700 |ddv_scf|^2 =  1.510E-15

      iter #   7 total cpu time :  4438.6 secs   av.it.:   7.6
      thresh= 3.885E-09 alpha_mix =  0.700 |ddv_scf|^2 =  1.263E-18

     End of self-consistent calculation

     Convergence has been achieved 

     Number of q in the star =   24
     List of q in the star:
          1  -0.166666667   0.500000000  -0.166666667
          2   0.166666667   0.500000000   0.166666667
          3  -0.166666667   0.500000000   0.166666667
          4   0.166666667   0.500000000  -0.166666667
          5   0.500000000  -0.166666667   0.166666667
          6   0.166666667  -0.166666667   0.500000000
          7  -0.166666667  -0.500000000  -0.166666667
          8   0.166666667  -0.500000000  -0.166666667
          9  -0.166666667  -0.500000000   0.166666667
         10   0.500000000  -0.166666667  -0.166666667
         11  -0.500000000  -0.166666667   0.166666667
         12   0.500000000   0.166666667   0.166666667
         13  -0.166666667   0.166666667  -0.500000000
         14  -0.166666667  -0.166666667   0.500000000
         15   0.166666667   0.166666667   0.500000000
         16   0.166666667  -0.166666667  -0.500000000
         17  -0.500000000   0.166666667  -0.166666667
         18  -0.500000000  -0.166666667  -0.166666667
         19   0.166666667  -0.500000000   0.166666667
         20   0.500000000   0.166666667  -0.166666667
         21   0.166666667   0.166666667  -0.500000000
         22  -0.166666667  -0.166666667  -0.500000000
         23  -0.500000000   0.166666667   0.166666667
         24  -0.166666667   0.166666667   0.500000000

     Diagonalizing the dynamical matrix

     q = (   -0.166666667   0.500000000  -0.166666667 ) 

 **************************************************************************
     freq (    1) =       2.667691 [THz] =      88.984586 [cm-1]
     freq (    2) =       2.743062 [THz] =      91.498706 [cm-1]
     freq (    3) =       5.277187 [THz] =     176.028020 [cm-1]
 **************************************************************************

     Mode symmetry, C_s (m)     point group:

     freq (  1 -  1) =         89.0  [cm-1]   --> A''                
     freq (  2 -  2) =         91.5  [cm-1]   --> A'                 
     freq (  3 -  3) =        176.0  [cm-1]   --> A'                 

     Calculation of q =    0.6666667  -0.3333333   0.6666667

   Info: using nr1, nr2, nr3 values from input

   Info: using nr1, nr2, nr3 values from input

     Parallelization info
     --------------------
     sticks:   dense  smooth     PW     G-vecs:    dense   smooth      PW
     Min          51      26     10                  973      348      90
     Max          52      27     11                  977      350      94
     Sum         823     421    163                15593     5577    1459



     bravais-lattice index     =            2
     lattice parameter (alat)  =       8.6500  a.u.
     unit-cell volume          =     161.8037 (a.u.)^3
     number of atoms/cell      =            1
     number of atomic types    =            1
     number of electrons       =         9.00
     number of Kohn-Sham states=            9
     kinetic-energy cutoff     =      40.0000  Ry
     charge density cutoff     =     320.0000  Ry
     Exchange-correlation      = SLA  PW   PBE  PBE ( 1  4  3  4 0 0)

     celldm(1)=   8.650000  celldm(2)=   0.000000  celldm(3)=   0.000000
     celldm(4)=   0.000000  celldm(5)=   0.000000  celldm(6)=   0.000000

     crystal axes: (cart. coord. in units of alat)
               a(1) = (  -0.500000   0.000000   0.500000 )  
               a(2) = (   0.000000   0.500000   0.500000 )  
               a(3) = (  -0.500000   0.500000   0.000000 )  

     reciprocal axes: (cart. coord. in units 2 pi/alat)
               b(1) = ( -1.000000 -1.000000  1.000000 )  
               b(2) = (  1.000000  1.000000  1.000000 )  
               b(3) = ( -1.000000  1.000000 -1.000000 )  


     PseudoPot. # 1 for Na read from file:
     /home/s1333534/quantum_espresso/qe-6.1/pseudo/Na_pbe_v1.uspp.F.UPF
     MD5 check sum: 76a99c7e9422403d3e93cbc85ab7bccb
     Pseudo is Ultrasoft, Zval =  9.0
     Generated by new atomic code, or converted to UPF format
     Using radial grid of  819 points,  5 beta functions with: 
                l(1) =   0
                l(2) =   0
                l(3) =   1
                l(4) =   1
                l(5) =   2
     Q(r) pseudized with  8 coefficients,  rinner =    1.250   1.250   1.250
                                                       1.250   1.250

     atomic species   valence    mass     pseudopotential
        Na             9.00    22.99000     Na( 1.00)

     48 Sym. Ops., with inversion, found



   Cartesian axes

     site n.     atom                  positions (alat units)
         1           Na  tau(   1) = (   0.0000000   0.0000000   0.0000000  )

     number of k points= 32800  Marzari-Vanderbilt smearing, width (Ry)=  0.0200

     Number of k-points >= 100: set verbosity='high' to print them.

     Dense  grid:    15593 G-vectors     FFT dimensions: (  36,  36,  36)

     Smooth grid:     5577 G-vectors     FFT dimensions: (  25,  25,  25)

     Estimated max dynamical RAM per process >       0.54MB

     Estimated total allocated dynamical RAM >      34.26MB

     The potential is recalculated from file :
     ./_ph0/na.fcc.save/charge-density.dat

     Starting wfc are    5 atomic +    4 random wfc

     Band Structure Calculation
     Davidson diagonalization with overlap

     ethr =  1.11E-10,  avg # of iterations = 16.9

     total cpu time spent up to now is     1407.4 secs

     End of band structure calculation

     Number of k-points >= 100: set verbosity='high' to print the bands.

     the Fermi energy is     3.9205 ev

     Writing output data file na.fcc.save

                                                                                

     bravais-lattice index     =            2
     lattice parameter (alat)  =       8.6500  a.u.
     unit-cell volume          =     161.8037 (a.u.)^3
     number of atoms/cell      =            1
     number of atomic types    =            1
     kinetic-energy cut-off    =      40.0000  Ry
     charge density cut-off    =     320.0000  Ry
     convergence threshold     =      1.0E-16
     beta                      =       0.7000
     number of iterations used =            4
     Exchange-correlation      = SLA  PW   PBE  PBE ( 1  4  3  4 0 0)


     celldm(1)=    8.65000  celldm(2)=    0.00000  celldm(3)=    0.00000
     celldm(4)=    0.00000  celldm(5)=    0.00000  celldm(6)=    0.00000

     crystal axes: (cart. coord. in units of alat)
               a(1) = ( -0.5000  0.0000  0.5000 )  
               a(2) = (  0.0000  0.5000  0.5000 )  
               a(3) = ( -0.5000  0.5000  0.0000 )  

     reciprocal axes: (cart. coord. in units 2 pi/alat)
               b(1) = ( -1.0000 -1.0000  1.0000 )  
               b(2) = (  1.0000  1.0000  1.0000 )  
               b(3) = ( -1.0000  1.0000 -1.0000 )  


     Atoms inside the unit cell: 

     Cartesian axes

     site n.  atom      mass           positions (alat units)
        1     Na  22.9900   tau(    1) = (    0.00000    0.00000    0.00000  )

     Computing dynamical matrix for 
                    q = (   0.6666667  -0.3333333   0.6666667 )

      2 Sym.Ops. (no q -> -q+G )


     G cutoff =  606.4883  (    974 G-vectors)     FFT grid: ( 36, 36, 36)
     G cutoff =  303.2442  (    350 G-vectors)  smooth grid: ( 25, 25, 25)

     number of k points= 32800  Marzari-Vanderbilt smearing, width (Ry)=  0.0200

     PseudoPot. # 1 for Na read from file:
     /home/s1333534/quantum_espresso/qe-6.1/pseudo/Na_pbe_v1.uspp.F.UPF
     MD5 check sum: 76a99c7e9422403d3e93cbc85ab7bccb
     Pseudo is Ultrasoft, Zval =  9.0
     Generated by new atomic code, or converted to UPF format
     Using radial grid of  819 points,  5 beta functions with: 
                l(1) =   0
                l(2) =   0
                l(3) =   1
                l(4) =   1
                l(5) =   2
     Q(r) pseudized with  8 coefficients,  rinner =    1.250   1.250   1.250
                                                       1.250   1.250

     Mode symmetry, C_s (m)     point group:


     Atomic displacements:
     There are   3 irreducible representations

     Representation     1      1 modes -A'  To be done

     Representation     2      1 modes -A'  To be done

     Representation     3      1 modes -A''  To be done



     Alpha used in Ewald sum =   2.8000
     PHONON       :     1h14m CPU        1h22m WALL



     Representation #  1 mode #   1

     Self-consistent Calculation

      iter #   1 total cpu time :  5016.9 secs   av.it.:   5.8
      thresh= 1.000E-02 alpha_mix =  0.700 |ddv_scf|^2 =  1.035E-04

      iter #   2 total cpu time :  5074.5 secs   av.it.:   7.4
      thresh= 1.017E-03 alpha_mix =  0.700 |ddv_scf|^2 =  6.609E-05

      iter #   3 total cpu time :  5130.1 secs   av.it.:   7.1
      thresh= 8.130E-04 alpha_mix =  0.700 |ddv_scf|^2 =  1.277E-07

      iter #   4 total cpu time :  5192.1 secs   av.it.:   8.2
      thresh= 3.574E-05 alpha_mix =  0.700 |ddv_scf|^2 =  9.412E-09

      iter #   5 total cpu time :  5254.2 secs   av.it.:   8.1
      thresh= 9.701E-06 alpha_mix =  0.700 |ddv_scf|^2 =  5.004E-10

      iter #   6 total cpu time :  5313.9 secs   av.it.:   7.9
      thresh= 2.237E-06 alpha_mix =  0.700 |ddv_scf|^2 =  9.043E-12

      iter #   7 total cpu time :  5375.6 secs   av.it.:   8.1
      thresh= 3.007E-07 alpha_mix =  0.700 |ddv_scf|^2 =  3.335E-13

      iter #   8 total cpu time :  5438.7 secs   av.it.:   8.2
      thresh= 5.775E-08 alpha_mix =  0.700 |ddv_scf|^2 =  2.533E-14

      iter #   9 total cpu time :  5498.9 secs   av.it.:   7.9
      thresh= 1.592E-08 alpha_mix =  0.700 |ddv_scf|^2 =  2.048E-15

      iter #  10 total cpu time :  5556.3 secs   av.it.:   7.4
      thresh= 4.526E-09 alpha_mix =  0.700 |ddv_scf|^2 =  5.965E-17

     End of self-consistent calculation

     Convergence has been achieved 


     Representation #  2 mode #   2

     Self-consistent Calculation

      iter #   1 total cpu time :  5612.3 secs   av.it.:   5.8
      thresh= 1.000E-02 alpha_mix =  0.700 |ddv_scf|^2 =  5.370E-05

      iter #   2 total cpu time :  5672.3 secs   av.it.:   7.6
      thresh= 7.328E-04 alpha_mix =  0.700 |ddv_scf|^2 =  2.127E-05

      iter #   3 total cpu time :  5729.3 secs   av.it.:   7.3
      thresh= 4.612E-04 alpha_mix =  0.700 |ddv_scf|^2 =  5.345E-07

      iter #   4 total cpu time :  5788.9 secs   av.it.:   7.6
      thresh= 7.311E-05 alpha_mix =  0.700 |ddv_scf|^2 =  1.385E-08

      iter #   5 total cpu time :  5850.4 secs   av.it.:   8.1
      thresh= 1.177E-05 alpha_mix =  0.700 |ddv_scf|^2 =  3.515E-10

      iter #   6 total cpu time :  5911.4 secs   av.it.:   8.1
      thresh= 1.875E-06 alpha_mix =  0.700 |ddv_scf|^2 =  2.609E-11

      iter #   7 total cpu time :  5972.6 secs   av.it.:   8.2
      thresh= 5.107E-07 alpha_mix =  0.700 |ddv_scf|^2 =  1.123E-12

      iter #   8 total cpu time :  6034.1 secs   av.it.:   8.2
      thresh= 1.060E-07 alpha_mix =  0.700 |ddv_scf|^2 =  3.272E-14

      iter #   9 total cpu time :  6093.9 secs   av.it.:   7.9
      thresh= 1.809E-08 alpha_mix =  0.700 |ddv_scf|^2 =  7.331E-15

      iter #  10 total cpu time :  6151.9 secs   av.it.:   7.5
      thresh= 8.562E-09 alpha_mix =  0.700 |ddv_scf|^2 =  1.285E-16

      iter #  11 total cpu time :  6213.7 secs   av.it.:   8.1
      thresh= 1.134E-09 alpha_mix =  0.700 |ddv_scf|^2 =  2.911E-18

     End of self-consistent calculation

     Convergence has been achieved 


     Representation #  3 mode #   3

     Self-consistent Calculation

      iter #   1 total cpu time :  6268.4 secs   av.it.:   5.5
      thresh= 1.000E-02 alpha_mix =  0.700 |ddv_scf|^2 =  1.526E-05

      iter #   2 total cpu time :  6328.4 secs   av.it.:   7.8
      thresh= 3.906E-04 alpha_mix =  0.700 |ddv_scf|^2 =  2.385E-07

      iter #   3 total cpu time :  6388.7 secs   av.it.:   8.0
      thresh= 4.883E-05 alpha_mix =  0.700 |ddv_scf|^2 =  7.168E-09

      iter #   4 total cpu time :  6447.3 secs   av.it.:   7.6
      thresh= 8.467E-06 alpha_mix =  0.700 |ddv_scf|^2 =  2.454E-11

      iter #   5 total cpu time :  6507.3 secs   av.it.:   7.8
      thresh= 4.954E-07 alpha_mix =  0.700 |ddv_scf|^2 =  3.153E-14

      iter #   6 total cpu time :  6566.1 secs   av.it.:   7.4
      thresh= 1.776E-08 alpha_mix =  0.700 |ddv_scf|^2 =  1.496E-15

      iter #   7 total cpu time :  6625.0 secs   av.it.:   7.7
      thresh= 3.868E-09 alpha_mix =  0.700 |ddv_scf|^2 =  1.174E-18

     End of self-consistent calculation

     Convergence has been achieved 

     Number of q in the star =   24
     List of q in the star:
          1   0.666666667  -0.333333333   0.666666667
          2  -0.666666667  -0.333333333  -0.666666667
          3   0.666666667  -0.333333333  -0.666666667
          4  -0.666666667  -0.333333333   0.666666667
          5  -0.333333333   0.666666667  -0.666666667
          6  -0.666666667   0.666666667  -0.333333333
          7   0.666666667   0.333333333   0.666666667
          8  -0.666666667   0.333333333   0.666666667
          9   0.666666667   0.333333333  -0.666666667
         10  -0.333333333   0.666666667   0.666666667
         11   0.333333333   0.666666667  -0.666666667
         12  -0.333333333  -0.666666667  -0.666666667
         13   0.666666667  -0.666666667   0.333333333
         14   0.666666667   0.666666667  -0.333333333
         15  -0.666666667  -0.666666667  -0.333333333
         16  -0.666666667   0.666666667   0.333333333
         17   0.333333333  -0.666666667   0.666666667
         18   0.333333333   0.666666667   0.666666667
         19  -0.666666667   0.333333333  -0.666666667
         20  -0.333333333  -0.666666667   0.666666667
         21  -0.666666667  -0.666666667   0.333333333
         22   0.666666667   0.666666667   0.333333333
         23   0.333333333  -0.666666667  -0.666666667
         24   0.666666667  -0.666666667  -0.333333333

     Diagonalizing the dynamical matrix

     q = (    0.666666667  -0.333333333   0.666666667 ) 

 **************************************************************************
     freq (    1) =       2.772052 [THz] =      92.465718 [cm-1]
     freq (    2) =       3.575201 [THz] =     119.255880 [cm-1]
     freq (    3) =       6.540284 [THz] =     218.160379 [cm-1]
 **************************************************************************

     Mode symmetry, C_s (m)     point group:

     freq (  1 -  1) =         92.5  [cm-1]   --> A''                
     freq (  2 -  2) =        119.3  [cm-1]   --> A'                 
     freq (  3 -  3) =        218.2  [cm-1]   --> A'                 

     Calculation of q =    0.5000000  -0.1666667   0.5000000

   Info: using nr1, nr2, nr3 values from input

   Info: using nr1, nr2, nr3 values from input

     Parallelization info
     --------------------
     sticks:   dense  smooth     PW     G-vecs:    dense   smooth      PW
     Min          51      26     10                  973      348      87
     Max          52      27     11                  977      350      90
     Sum         823     421    163                15593     5577    1411



     bravais-lattice index     =            2
     lattice parameter (alat)  =       8.6500  a.u.
     unit-cell volume          =     161.8037 (a.u.)^3
     number of atoms/cell      =            1
     number of atomic types    =            1
     number of electrons       =         9.00
     number of Kohn-Sham states=            9
     kinetic-energy cutoff     =      40.0000  Ry
     charge density cutoff     =     320.0000  Ry
     Exchange-correlation      = SLA  PW   PBE  PBE ( 1  4  3  4 0 0)

     celldm(1)=   8.650000  celldm(2)=   0.000000  celldm(3)=   0.000000
     celldm(4)=   0.000000  celldm(5)=   0.000000  celldm(6)=   0.000000

     crystal axes: (cart. coord. in units of alat)
               a(1) = (  -0.500000   0.000000   0.500000 )  
               a(2) = (   0.000000   0.500000   0.500000 )  
               a(3) = (  -0.500000   0.500000   0.000000 )  

     reciprocal axes: (cart. coord. in units 2 pi/alat)
               b(1) = ( -1.000000 -1.000000  1.000000 )  
               b(2) = (  1.000000  1.000000  1.000000 )  
               b(3) = ( -1.000000  1.000000 -1.000000 )  


     PseudoPot. # 1 for Na read from file:
     /home/s1333534/quantum_espresso/qe-6.1/pseudo/Na_pbe_v1.uspp.F.UPF
     MD5 check sum: 76a99c7e9422403d3e93cbc85ab7bccb
     Pseudo is Ultrasoft, Zval =  9.0
     Generated by new atomic code, or converted to UPF format
     Using radial grid of  819 points,  5 beta functions with: 
                l(1) =   0
                l(2) =   0
                l(3) =   1
                l(4) =   1
                l(5) =   2
     Q(r) pseudized with  8 coefficients,  rinner =    1.250   1.250   1.250
                                                       1.250   1.250

     atomic species   valence    mass     pseudopotential
        Na             9.00    22.99000     Na( 1.00)

     48 Sym. Ops., with inversion, found



   Cartesian axes

     site n.     atom                  positions (alat units)
         1           Na  tau(   1) = (   0.0000000   0.0000000   0.0000000  )

     number of k points= 32800  Marzari-Vanderbilt smearing, width (Ry)=  0.0200

     Number of k-points >= 100: set verbosity='high' to print them.

     Dense  grid:    15593 G-vectors     FFT dimensions: (  36,  36,  36)

     Smooth grid:     5577 G-vectors     FFT dimensions: (  25,  25,  25)

     Estimated max dynamical RAM per process >       0.54MB

     Estimated total allocated dynamical RAM >      34.26MB

     The potential is recalculated from file :
     ./_ph0/na.fcc.save/charge-density.dat

     Starting wfc are    5 atomic +    4 random wfc

     Band Structure Calculation
     Davidson diagonalization with overlap

     ethr =  1.11E-10,  avg # of iterations = 16.9

     total cpu time spent up to now is     1902.3 secs

     End of band structure calculation

     Number of k-points >= 100: set verbosity='high' to print the bands.

     the Fermi energy is     3.9205 ev

     Writing output data file na.fcc.save

                                                                                

     bravais-lattice index     =            2
     lattice parameter (alat)  =       8.6500  a.u.
     unit-cell volume          =     161.8037 (a.u.)^3
     number of atoms/cell      =            1
     number of atomic types    =            1
     kinetic-energy cut-off    =      40.0000  Ry
     charge density cut-off    =     320.0000  Ry
     convergence threshold     =      1.0E-16
     beta                      =       0.7000
     number of iterations used =            4
     Exchange-correlation      = SLA  PW   PBE  PBE ( 1  4  3  4 0 0)


     celldm(1)=    8.65000  celldm(2)=    0.00000  celldm(3)=    0.00000
     celldm(4)=    0.00000  celldm(5)=    0.00000  celldm(6)=    0.00000

     crystal axes: (cart. coord. in units of alat)
               a(1) = ( -0.5000  0.0000  0.5000 )  
               a(2) = (  0.0000  0.5000  0.5000 )  
               a(3) = ( -0.5000  0.5000  0.0000 )  

     reciprocal axes: (cart. coord. in units 2 pi/alat)
               b(1) = ( -1.0000 -1.0000  1.0000 )  
               b(2) = (  1.0000  1.0000  1.0000 )  
               b(3) = ( -1.0000  1.0000 -1.0000 )  


     Atoms inside the unit cell: 

     Cartesian axes

     site n.  atom      mass           positions (alat units)
        1     Na  22.9900   tau(    1) = (    0.00000    0.00000    0.00000  )

     Computing dynamical matrix for 
                    q = (   0.5000000  -0.1666667   0.5000000 )

      2 Sym.Ops. (no q -> -q+G )


     G cutoff =  606.4883  (    974 G-vectors)     FFT grid: ( 36, 36, 36)
     G cutoff =  303.2442  (    350 G-vectors)  smooth grid: ( 25, 25, 25)

     number of k points= 32800  Marzari-Vanderbilt smearing, width (Ry)=  0.0200

     PseudoPot. # 1 for Na read from file:
     /home/s1333534/quantum_espresso/qe-6.1/pseudo/Na_pbe_v1.uspp.F.UPF
     MD5 check sum: 76a99c7e9422403d3e93cbc85ab7bccb
     Pseudo is Ultrasoft, Zval =  9.0
     Generated by new atomic code, or converted to UPF format
     Using radial grid of  819 points,  5 beta functions with: 
                l(1) =   0
                l(2) =   0
                l(3) =   1
                l(4) =   1
                l(5) =   2
     Q(r) pseudized with  8 coefficients,  rinner =    1.250   1.250   1.250
                                                       1.250   1.250

     Mode symmetry, C_s (m)     point group:


     Atomic displacements:
     There are   3 irreducible representations

     Representation     1      1 modes -A'  To be done

     Representation     2      1 modes -A'  To be done

     Representation     3      1 modes -A''  To be done



     Alpha used in Ewald sum =   2.8000
     PHONON       :     1h47m CPU        1h59m WALL



     Representation #  1 mode #   1

     Self-consistent Calculation

      iter #   1 total cpu time :  7202.1 secs   av.it.:   5.8
      thresh= 1.000E-02 alpha_mix =  0.700 |ddv_scf|^2 =  8.091E-05

      iter #   2 total cpu time :  7262.1 secs   av.it.:   7.5
      thresh= 8.995E-04 alpha_mix =  0.700 |ddv_scf|^2 =  8.951E-05

      iter #   3 total cpu time :  7316.8 secs   av.it.:   6.9
[...]

      iter #   4 total cpu time : 17430.5 secs   av.it.:   8.2
      thresh= 2.093E-05 alpha_mix =  0.700 |ddv_scf|^2 =  9.633E-10

      iter #   5 total cpu time : 17489.3 secs   av.it.:   7.8
      thresh= 3.104E-06 alpha_mix =  0.700 |ddv_scf|^2 =  3.107E-11

      iter #   6 total cpu time : 17546.2 secs   av.it.:   7.6
      thresh= 5.574E-07 alpha_mix =  0.700 |ddv_scf|^2 =  5.518E-14

      iter #   7 total cpu time : 17604.8 secs   av.it.:   7.9
      thresh= 2.349E-08 alpha_mix =  0.700 |ddv_scf|^2 =  4.013E-15

      iter #   8 total cpu time : 17663.8 secs   av.it.:   7.9
      thresh= 6.335E-09 alpha_mix =  0.700 |ddv_scf|^2 =  1.327E-17

     End of self-consistent calculation

     Convergence has been achieved 

     Number of q in the star =   24
     List of q in the star:
          1   0.500000000  -0.166666667   0.833333333
          2   0.833333333   0.166666667   0.500000000
          3   0.500000000   0.166666667   0.833333333
          4  -0.833333333  -0.166666667   0.500000000
          5  -0.833333333  -0.166666667  -0.500000000
          6  -0.500000000  -0.166666667  -0.833333333
          7   0.833333333  -0.166666667   0.500000000
          8  -0.500000000  -0.166666667   0.833333333
          9  -0.833333333   0.166666667   0.500000000
         10   0.833333333   0.166666667  -0.500000000
         11   0.833333333  -0.166666667  -0.500000000
         12   0.500000000   0.166666667  -0.833333333
         13  -0.500000000   0.166666667   0.833333333
         14  -0.500000000   0.166666667  -0.833333333
         15  -0.833333333   0.166666667  -0.500000000
         16   0.833333333  -0.500000000   0.166666667
         17   0.833333333   0.500000000  -0.166666667
         18  -0.833333333  -0.500000000  -0.166666667
         19  -0.833333333   0.500000000   0.166666667
         20   0.166666667  -0.500000000   0.833333333
         21  -0.166666667   0.500000000   0.833333333
         22   0.166666667   0.500000000  -0.833333333
         23  -0.166666667  -0.500000000  -0.833333333
         24  -0.500000000   0.833333333   0.166666667

     Diagonalizing the dynamical matrix

     q = (    0.500000000  -0.166666667   0.833333333 ) 

 **************************************************************************
     freq (    1) =       3.498904 [THz] =     116.710879 [cm-1]
     freq (    2) =       5.048857 [THz] =     168.411738 [cm-1]
     freq (    3) =       6.133839 [THz] =     204.602839 [cm-1]
 **************************************************************************

     Mode symmetry, C_2  (2)    point group:

     freq (  1 -  1) =        116.7  [cm-1]   --> B                  
     freq (  2 -  2) =        168.4  [cm-1]   --> A                  
     freq (  3 -  3) =        204.6  [cm-1]   --> B                  

     Calculation of q =   -0.3333333  -1.0000000   0.0000000

   Info: using nr1, nr2, nr3 values from input

   Info: using nr1, nr2, nr3 values from input

     Parallelization info
     --------------------
     sticks:   dense  smooth     PW     G-vecs:    dense   smooth      PW
     Min          51      26     10                  973      348      90
     Max          52      27     11                  977      350      94
     Sum         823     421    163                15593     5577    1459



     bravais-lattice index     =            2
     lattice parameter (alat)  =       8.6500  a.u.
     unit-cell volume          =     161.8037 (a.u.)^3
     number of atoms/cell      =            1
     number of atomic types    =            1
     number of electrons       =         9.00
     number of Kohn-Sham states=            9
     kinetic-energy cutoff     =      40.0000  Ry
     charge density cutoff     =     320.0000  Ry
     Exchange-correlation      = SLA  PW   PBE  PBE ( 1  4  3  4 0 0)

     celldm(1)=   8.650000  celldm(2)=   0.000000  celldm(3)=   0.000000
     celldm(4)=   0.000000  celldm(5)=   0.000000  celldm(6)=   0.000000

     crystal axes: (cart. coord. in units of alat)
               a(1) = (  -0.500000   0.000000   0.500000 )  
               a(2) = (   0.000000   0.500000   0.500000 )  
               a(3) = (  -0.500000   0.500000   0.000000 )  

     reciprocal axes: (cart. coord. in units 2 pi/alat)
               b(1) = ( -1.000000 -1.000000  1.000000 )  
               b(2) = (  1.000000  1.000000  1.000000 )  
               b(3) = ( -1.000000  1.000000 -1.000000 )  


     PseudoPot. # 1 for Na read from file:
     /home/s1333534/quantum_espresso/qe-6.1/pseudo/Na_pbe_v1.uspp.F.UPF
     MD5 check sum: 76a99c7e9422403d3e93cbc85ab7bccb
     Pseudo is Ultrasoft, Zval =  9.0
     Generated by new atomic code, or converted to UPF format
     Using radial grid of  819 points,  5 beta functions with: 
                l(1) =   0
                l(2) =   0
                l(3) =   1
                l(4) =   1
                l(5) =   2
     Q(r) pseudized with  8 coefficients,  rinner =    1.250   1.250   1.250
                                                       1.250   1.250

     atomic species   valence    mass     pseudopotential
        Na             9.00    22.99000     Na( 1.00)

     48 Sym. Ops., with inversion, found



   Cartesian axes

     site n.     atom                  positions (alat units)
         1           Na  tau(   1) = (   0.0000000   0.0000000   0.0000000  )

     number of k points= 16000  Marzari-Vanderbilt smearing, width (Ry)=  0.0200

     Number of k-points >= 100: set verbosity='high' to print them.

     Dense  grid:    15593 G-vectors     FFT dimensions: (  36,  36,  36)

     Smooth grid:     5577 G-vectors     FFT dimensions: (  25,  25,  25)

     Estimated max dynamical RAM per process >       0.54MB

     Estimated total allocated dynamical RAM >      34.26MB

     The potential is recalculated from file :
     ./_ph0/na.fcc.save/charge-density.dat

     Starting wfc are    5 atomic +    4 random wfc

     Band Structure Calculation
     Davidson diagonalization with overlap

     ethr =  1.11E-10,  avg # of iterations = 16.9

     total cpu time spent up to now is     4351.9 secs

     End of band structure calculation

     Number of k-points >= 100: set verbosity='high' to print the bands.

     the Fermi energy is     3.9205 ev

     Writing output data file na.fcc.save

                                                                                

     bravais-lattice index     =            2
     lattice parameter (alat)  =       8.6500  a.u.
     unit-cell volume          =     161.8037 (a.u.)^3
     number of atoms/cell      =            1
     number of atomic types    =            1
     kinetic-energy cut-off    =      40.0000  Ry
     charge density cut-off    =     320.0000  Ry
     convergence threshold     =      1.0E-16
     beta                      =       0.7000
     number of iterations used =            4
     Exchange-correlation      = SLA  PW   PBE  PBE ( 1  4  3  4 0 0)


     celldm(1)=    8.65000  celldm(2)=    0.00000  celldm(3)=    0.00000
     celldm(4)=    0.00000  celldm(5)=    0.00000  celldm(6)=    0.00000

     crystal axes: (cart. coord. in units of alat)
               a(1) = ( -0.5000  0.0000  0.5000 )  
               a(2) = (  0.0000  0.5000  0.5000 )  
               a(3) = ( -0.5000  0.5000  0.0000 )  

     reciprocal axes: (cart. coord. in units 2 pi/alat)
               b(1) = ( -1.0000 -1.0000  1.0000 )  
               b(2) = (  1.0000  1.0000  1.0000 )  
               b(3) = ( -1.0000  1.0000 -1.0000 )  


     Atoms inside the unit cell: 

     Cartesian axes

     site n.  atom      mass           positions (alat units)
        1     Na  22.9900   tau(    1) = (    0.00000    0.00000    0.00000  )

     Computing dynamical matrix for 
                    q = (  -0.3333333  -1.0000000   0.0000000 )

      4 Sym.Ops. (no q -> -q+G )


     G cutoff =  606.4883  (    974 G-vectors)     FFT grid: ( 36, 36, 36)
     G cutoff =  303.2442  (    350 G-vectors)  smooth grid: ( 25, 25, 25)

     number of k points= 16000  Marzari-Vanderbilt smearing, width (Ry)=  0.0200

     PseudoPot. # 1 for Na read from file:
     /home/s1333534/quantum_espresso/qe-6.1/pseudo/Na_pbe_v1.uspp.F.UPF
     MD5 check sum: 76a99c7e9422403d3e93cbc85ab7bccb
     Pseudo is Ultrasoft, Zval =  9.0
     Generated by new atomic code, or converted to UPF format
     Using radial grid of  819 points,  5 beta functions with: 
                l(1) =   0
                l(2) =   0
                l(3) =   1
                l(4) =   1
                l(5) =   2
     Q(r) pseudized with  8 coefficients,  rinner =    1.250   1.250   1.250
                                                       1.250   1.250

     Mode symmetry, C_2v (mm2)  point group:


     Atomic displacements:
     There are   3 irreducible representations

     Representation     1      1 modes -A_1  D_1  S_1  To be done

     Representation     2      1 modes -B_1  D_3  S_3  To be done

     Representation     3      1 modes -B_2  D_4  S_4  To be done



     Alpha used in Ewald sum =   2.8000
     PHONON       :     4h30m CPU        4h58m WALL



     Representation #  1 mode #   1

     Self-consistent Calculation

      iter #   1 total cpu time : 17949.5 secs   av.it.:   5.6
      thresh= 1.000E-02 alpha_mix =  0.700 |ddv_scf|^2 =  2.365E-05

      iter #   2 total cpu time : 17979.4 secs   av.it.:   7.8
      thresh= 4.863E-04 alpha_mix =  0.700 |ddv_scf|^2 =  7.520E-07

      iter #   3 total cpu time : 18008.3 secs   av.it.:   7.7
      thresh= 8.672E-05 alpha_mix =  0.700 |ddv_scf|^2 =  2.193E-08

      iter #   4 total cpu time : 18038.2 secs   av.it.:   8.1
      thresh= 1.481E-05 alpha_mix =  0.700 |ddv_scf|^2 =  8.280E-10

      iter #   5 total cpu time : 18067.8 secs   av.it.:   8.0
      thresh= 2.878E-06 alpha_mix =  0.700 |ddv_scf|^2 =  5.983E-11

      iter #   6 total cpu time : 18098.2 secs   av.it.:   8.1
      thresh= 7.735E-07 alpha_mix =  0.700 |ddv_scf|^2 =  3.862E-12

      iter #   7 total cpu time : 18127.9 secs   av.it.:   7.8
      thresh= 1.965E-07 alpha_mix =  0.700 |ddv_scf|^2 =  1.144E-13

      iter #   8 total cpu time : 18157.5 secs   av.it.:   7.8
      thresh= 3.382E-08 alpha_mix =  0.700 |ddv_scf|^2 =  4.624E-16

      iter #   9 total cpu time : 18187.0 secs   av.it.:   8.1
      thresh= 2.150E-09 alpha_mix =  0.700 |ddv_scf|^2 =  3.594E-17

     End of self-consistent calculation

     Convergence has been achieved 


     Representation #  2 mode #   2

     Self-consistent Calculation

      iter #   1 total cpu time : 18215.1 secs   av.it.:   5.6
      thresh= 1.000E-02 alpha_mix =  0.700 |ddv_scf|^2 =  2.608E-05

      iter #   2 total cpu time : 18245.5 secs   av.it.:   7.7
      thresh= 5.107E-04 alpha_mix =  0.700 |ddv_scf|^2 =  4.246E-07

      iter #   3 total cpu time : 18274.7 secs   av.it.:   7.7
      thresh= 6.516E-05 alpha_mix =  0.700 |ddv_scf|^2 =  2.149E-08

      iter #   4 total cpu time : 18304.5 secs   av.it.:   8.0
      thresh= 1.466E-05 alpha_mix =  0.700 |ddv_scf|^2 =  1.980E-10

      iter #   5 total cpu time : 18332.5 secs   av.it.:   7.3
      thresh= 1.407E-06 alpha_mix =  0.700 |ddv_scf|^2 =  1.523E-13

      iter #   6 total cpu time : 18360.8 secs   av.it.:   7.7
      thresh= 3.902E-08 alpha_mix =  0.700 |ddv_scf|^2 =  4.840E-15

      iter #   7 total cpu time : 18389.3 secs   av.it.:   7.6
      thresh= 6.957E-09 alpha_mix =  0.700 |ddv_scf|^2 =  3.801E-17

     End of self-consistent calculation

     Convergence has been achieved 


     Representation #  3 mode #   3

     Self-consistent Calculation

      iter #   1 total cpu time : 18416.7 secs   av.it.:   5.7
      thresh= 1.000E-02 alpha_mix =  0.700 |ddv_scf|^2 =  5.158E-05

      iter #   2 total cpu time : 18445.8 secs   av.it.:   7.5
      thresh= 7.182E-04 alpha_mix =  0.700 |ddv_scf|^2 =  4.431E-06

      iter #   3 total cpu time : 18474.8 secs   av.it.:   7.3
      thresh= 2.105E-04 alpha_mix =  0.700 |ddv_scf|^2 =  4.370E-08

      iter #   4 total cpu time : 18505.7 secs   av.it.:   8.0
      thresh= 2.091E-05 alpha_mix =  0.700 |ddv_scf|^2 =  1.774E-10

      iter #   5 total cpu time : 18533.6 secs   av.it.:   7.3
      thresh= 1.332E-06 alpha_mix =  0.700 |ddv_scf|^2 =  1.963E-13

      iter #   6 total cpu time : 18563.8 secs   av.it.:   7.6
      thresh= 4.431E-08 alpha_mix =  0.700 |ddv_scf|^2 =  6.882E-15

      iter #   7 total cpu time : 18590.8 secs   av.it.:   7.2
      thresh= 8.296E-09 alpha_mix =  0.700 |ddv_scf|^2 =  9.371E-18

     End of self-consistent calculation

     Convergence has been achieved 

     Number of q in the star =   12
     List of q in the star:
          1  -0.333333333  -1.000000000   0.000000000
          2   0.000000000  -1.000000000  -0.333333333
          3   0.000000000  -1.000000000   0.333333333
          4   0.333333333  -1.000000000   0.000000000
          5  -1.000000000   0.000000000  -0.333333333
          6   1.000000000   0.000000000   0.333333333
          7   0.000000000   0.333333333   1.000000000
          8   0.000000000  -0.333333333  -1.000000000
          9  -1.000000000  -0.333333333   0.000000000
         10   1.000000000   0.333333333   0.000000000
         11  -0.333333333   0.000000000   1.000000000
         12   0.333333333   0.000000000   1.000000000

     Diagonalizing the dynamical matrix

     q = (   -0.333333333  -1.000000000   0.000000000 ) 

 **************************************************************************
     freq (    1) =       4.092840 [THz] =     136.522458 [cm-1]
     freq (    2) =       4.964793 [THz] =     165.607657 [cm-1]
     freq (    3) =       6.298402 [THz] =     210.092087 [cm-1]
 **************************************************************************

     Mode symmetry, C_2v (mm2)  point group:

     freq (  1 -  1) =        136.5  [cm-1]   --> A_1  D_1  S_1      
     freq (  2 -  2) =        165.6  [cm-1]   --> B_1  D_3  S_3      
     freq (  3 -  3) =        210.1  [cm-1]   --> B_2  D_4  S_4      

     init_run     :      2.69s CPU      2.86s WALL (      15 calls)
     electrons    :   3258.48s CPU   3499.96s WALL (      15 calls)

     Called by init_run:
     wfcinit      :      0.00s CPU      0.00s WALL (      15 calls)
     potinit      :      0.31s CPU      0.33s WALL (      15 calls)

     Called by electrons:
     c_bands      :   3257.14s CPU   3498.60s WALL (      15 calls)
     v_of_rho     :      0.13s CPU      0.14s WALL (      16 calls)
     newd         :      0.12s CPU      0.12s WALL (      16 calls)

     Called by c_bands:
     init_us_2    :     68.32s CPU     75.38s WALL ( 1260909 calls)
     cegterg      :   2613.49s CPU   2822.64s WALL (   85122 calls)

     Called by sum_band:

     Called by *egterg:
     h_psi        :   9245.22s CPU  10186.32s WALL (11452856 calls)
     s_psi        :    293.06s CPU    330.20s WALL (22447534 calls)
     g_psi        :      8.00s CPU      8.72s WALL ( 1281177 calls)
     cdiaghg      :    811.29s CPU    871.21s WALL ( 1354603 calls)

     Called by h_psi:
     h_psi:pot    :   9168.27s CPU  10099.74s WALL (11452856 calls)
     h_psi:calbec :    702.44s CPU    770.41s WALL (11452856 calls)
     vloc_psi     :   8185.20s CPU   9019.06s WALL (11452856 calls)
     add_vuspsi   :    158.34s CPU    177.64s WALL (11452856 calls)

     General routines
     calbec       :   1318.58s CPU   1449.84s WALL (24498776 calls)
     fft          :      3.42s CPU      4.15s WALL (    6436 calls)
     ffts         :     12.16s CPU     13.43s WALL (  112698 calls)
     fftw         :   8923.90s CPU   9891.31s WALL (******** calls)
     interpolate  :      0.55s CPU      0.84s WALL (     882 calls)
     davcio       :    113.77s CPU    240.12s WALL ( 5114163 calls)

     Parallel routines
     fft_scatter  :   5106.06s CPU   5649.32s WALL (******** calls)

     PHONON       :     4h40m CPU        5h 9m WALL

     INITIALIZATION: 
     phq_setup    :      0.58s CPU      0.65s WALL (      16 calls)
     phq_init     :    196.44s CPU    209.45s WALL (      16 calls)

     phq_init     :    196.44s CPU    209.45s WALL (      16 calls)
     init_vloc    :      0.11s CPU      0.11s WALL (      16 calls)
     init_us_1    :      1.28s CPU      1.38s WALL (      16 calls)
     newd         :      0.12s CPU      0.12s WALL (      16 calls)
     dvanqq       :      0.44s CPU      0.47s WALL (      16 calls)
     drho         :    147.80s CPU    157.90s WALL (      16 calls)

     DYNAMICAL MATRIX:
     dynmat0      :     32.92s CPU     34.44s WALL (      16 calls)
     phqscf       :  12487.10s CPU  13971.77s WALL (      16 calls)
     dynmatrix    :      0.11s CPU      0.12s WALL (      16 calls)

     phqscf       :  12487.10s CPU  13971.77s WALL (      16 calls)
     solve_linter :  12436.94s CPU  13917.48s WALL (      40 calls)
     drhodv       :     49.94s CPU     53.08s WALL (      40 calls)

     dynmat0      :     32.92s CPU     34.44s WALL (      16 calls)
     dynmat_us    :     32.87s CPU     34.35s WALL (      16 calls)
     d2ionq       :      0.01s CPU      0.01s WALL (      16 calls)

     dynmat_us    :     32.87s CPU     34.35s WALL (      16 calls)
     addusdynmat  :      0.00s CPU      0.00s WALL (      16 calls)

     phqscf       :  12487.10s CPU  13971.77s WALL (      16 calls)
     solve_linter :  12436.94s CPU  13917.48s WALL (      40 calls)

     solve_linter :  12436.94s CPU  13917.48s WALL (      40 calls)
     dvqpsi_us    :    239.55s CPU    261.08s WALL (  110718 calls)
     ortho        :    197.78s CPU    215.47s WALL (  981547 calls)
     cgsolve      :   9902.61s CPU  10975.72s WALL (  981547 calls)
     incdrhoscf   :    918.41s CPU   1073.65s WALL (  981547 calls)
     addusddens   :      3.27s CPU      3.39s WALL (     387 calls)
     vpsifft      :    719.81s CPU    799.60s WALL (  870829 calls)
     dv_of_drho   :      2.60s CPU      3.00s WALL (     401 calls)
     mix_pot      :      0.55s CPU      2.23s WALL (     347 calls)
     ef_shift     :      0.03s CPU      0.08s WALL (       7 calls)
     localdos     :      0.17s CPU      0.17s WALL (       1 calls)
     psymdvscf    :     18.37s CPU     18.84s WALL (     347 calls)
     newdq        :      3.31s CPU      3.37s WALL (     347 calls)
     adddvscf     :     49.59s CPU     54.70s WALL (  870829 calls)
     drhodvus     :      0.02s CPU      0.02s WALL (      40 calls)

     dvqpsi_us    :    239.55s CPU    261.08s WALL (  110718 calls)
     dvqpsi_us_on :     50.46s CPU     53.78s WALL (  110718 calls)

     cgsolve      :   9902.61s CPU  10975.72s WALL (  981547 calls)
     ch_psi       :   9204.21s CPU  10197.18s WALL (10013131 calls)

     ch_psi       :   9204.21s CPU  10197.18s WALL (10013131 calls)
     h_psi        :   9245.22s CPU  10186.32s WALL (11452856 calls)
     last         :   1181.70s CPU   1311.65s WALL (10013131 calls)

     h_psi        :   9245.22s CPU  10186.32s WALL (11452856 calls)
     add_vuspsi   :    158.34s CPU    177.64s WALL (11452856 calls)

     incdrhoscf   :    918.41s CPU   1073.65s WALL (  981547 calls)
     addusdbec    :     94.59s CPU    103.84s WALL ( 1092265 calls)

     drhodvus     :      0.02s CPU      0.02s WALL (      40 calls)

      General routines
     calbec       :   1318.58s CPU   1449.84s WALL (24498776 calls)
     fft          :      3.42s CPU      4.15s WALL (    6436 calls)
     ffts         :     12.16s CPU     13.43s WALL (  112698 calls)
     fftw         :   8923.90s CPU   9891.31s WALL (******** calls)
     davcio       :    113.77s CPU    240.12s WALL ( 5114163 calls)
     write_rec    :      1.40s CPU      4.53s WALL (     387 calls)


     PHONON       :     4h40m CPU        5h 9m WALL


   This run was terminated on:   3:15: 0   1Feb2018            

=------------------------------------------------------------------------------=
   JOB DONE.
=------------------------------------------------------------------------------=
