
     Program PWSCF v.6.1 (svn rev. 13369) starts on  2Feb2018 at  1:17:49 

     This program is part of the open-source Quantum ESPRESSO suite
     for quantum simulation of materials; please cite
         "P. Giannozzi et al., J. Phys.:Condens. Matter 21 395502 (2009);
          URL http://www.quantum-espresso.org", 
     in publications or presentations arising from this work. More details at
     http://www.quantum-espresso.org/quote

     Parallel version (MPI), running on    64 processors
     K-points division:     npool     =       4
     R & G space division:  proc/nbgrp/npool/nimage =      16
     Waiting for input...
     Reading input from standard input

     Current dimensions of program PWSCF are:
     Max number of different atomic species (ntypx) = 10
     Max number of k-points (npk) =  80000
     Max angular momentum in pseudopotentials (lmaxx) =  3

     Subspace diagonalization in iterative solution of the eigenvalue problem:
     a serial algorithm will be used


     Parallelization info
     --------------------
     sticks:   dense  smooth     PW     G-vecs:    dense   smooth      PW
     Min          55      27      9                 1097      388      76
     Max          56      28     10                 1100      393      79
     Sum         889     439    151                17573     6231    1243



     bravais-lattice index     =            2
     lattice parameter (alat)  =       9.0100  a.u.
     unit-cell volume          =     182.8582 (a.u.)^3
     number of atoms/cell      =            1
     number of atomic types    =            1
     number of electrons       =         9.00
     number of Kohn-Sham states=            9
     kinetic-energy cutoff     =      40.0000  Ry
     charge density cutoff     =     320.0000  Ry
     convergence threshold     =      1.0E-10
     mixing beta               =       0.7000
     number of iterations used =            8  plain     mixing
     Exchange-correlation      = SLA  PW   PBE  PBE ( 1  4  3  4 0 0)

     celldm(1)=   9.010000  celldm(2)=   0.000000  celldm(3)=   0.000000
     celldm(4)=   0.000000  celldm(5)=   0.000000  celldm(6)=   0.000000

     crystal axes: (cart. coord. in units of alat)
               a(1) = (  -0.500000   0.000000   0.500000 )  
               a(2) = (   0.000000   0.500000   0.500000 )  
               a(3) = (  -0.500000   0.500000   0.000000 )  

     reciprocal axes: (cart. coord. in units 2 pi/alat)
               b(1) = ( -1.000000 -1.000000  1.000000 )  
               b(2) = (  1.000000  1.000000  1.000000 )  
               b(3) = ( -1.000000  1.000000 -1.000000 )  


     PseudoPot. # 1 for Na read from file:
     /home/s1333534/quantum_espresso/qe-6.1/pseudo/Na_pbe_v1.uspp.F.UPF
     MD5 check sum: 76a99c7e9422403d3e93cbc85ab7bccb
     Pseudo is Ultrasoft, Zval =  9.0
     Generated by new atomic code, or converted to UPF format
     Using radial grid of  819 points,  5 beta functions with: 
                l(1) =   0
                l(2) =   0
                l(3) =   1
                l(4) =   1
                l(5) =   2
     Q(r) pseudized with  8 coefficients,  rinner =    1.250   1.250   1.250
                                                       1.250   1.250

     atomic species   valence    mass     pseudopotential
        Na             9.00    22.99000     Na( 1.00)

     48 Sym. Ops., with inversion, found



   Cartesian axes

     site n.     atom                  positions (alat units)
         1           Na  tau(   1) = (   0.0000000   0.0000000   0.0000000  )

     number of k points=   770  Marzari-Vanderbilt smearing, width (Ry)=  0.0200

     Number of k-points >= 100: set verbosity='high' to print them.

     Dense  grid:    17573 G-vectors     FFT dimensions: (  40,  40,  40)

     Smooth grid:     6231 G-vectors     FFT dimensions: (  25,  25,  25)

     Estimated max dynamical RAM per process >       2.15MB

     Estimated total allocated dynamical RAM >     137.42MB

     Initial potential from superposition of free atoms

     starting charge    8.99371, renormalised to    9.00000
     Starting wfc are    5 randomized atomic wfcs +    4 random wfc

     total cpu time spent up to now is        0.9 secs

     per-process dynamical memory:     8.2 Mb

     Self-consistent Calculation

     iteration #  1     ecut=    40.00 Ry     beta=0.70
     Davidson diagonalization with overlap
     ethr =  1.00E-02,  avg # of iterations =  5.3

     Threshold (ethr) on eigenvalues was too large:
     Diagonalizing with lowered threshold

     Davidson diagonalization with overlap
     ethr =  1.31E-05,  avg # of iterations =  3.4

     total cpu time spent up to now is        6.4 secs

     total energy              =     -95.09872200 Ry
     Harris-Foulkes estimate   =     -95.09913670 Ry
     estimated scf accuracy    <       0.00117416 Ry

     iteration #  2     ecut=    40.00 Ry     beta=0.70
     Davidson diagonalization with overlap
     ethr =  1.30E-05,  avg # of iterations =  2.0

     total cpu time spent up to now is        8.1 secs

     total energy              =     -95.09886901 Ry
     Harris-Foulkes estimate   =     -95.09890339 Ry
     estimated scf accuracy    <       0.00013117 Ry

     iteration #  3     ecut=    40.00 Ry     beta=0.70
     Davidson diagonalization with overlap
     ethr =  1.46E-06,  avg # of iterations =  2.1

     total cpu time spent up to now is        9.8 secs

     total energy              =     -95.09888506 Ry
     Harris-Foulkes estimate   =     -95.09888635 Ry
     estimated scf accuracy    <       0.00000767 Ry

     iteration #  4     ecut=    40.00 Ry     beta=0.70
     Davidson diagonalization with overlap
     ethr =  8.53E-08,  avg # of iterations =  1.0

     total cpu time spent up to now is       11.2 secs

     total energy              =     -95.09888576 Ry
     Harris-Foulkes estimate   =     -95.09888571 Ry
     estimated scf accuracy    <       0.00000001 Ry

     iteration #  5     ecut=    40.00 Ry     beta=0.70
     Davidson diagonalization with overlap
     ethr =  1.16E-10,  avg # of iterations =  3.0

     total cpu time spent up to now is       13.4 secs

     total energy              =     -95.09888580 Ry
     Harris-Foulkes estimate   =     -95.09888579 Ry
     estimated scf accuracy    <          1.7E-09 Ry

     iteration #  6     ecut=    40.00 Ry     beta=0.70
     Davidson diagonalization with overlap
     ethr =  1.84E-11,  avg # of iterations =  1.6

     total cpu time spent up to now is       14.9 secs

     End of self-consistent calculation

     Number of k-points >= 100: set verbosity='high' to print the bands.

     the Fermi energy is     3.1550 ev

!    total energy              =     -95.09888580 Ry
     Harris-Foulkes estimate   =     -95.09888580 Ry
     estimated scf accuracy    <          8.3E-11 Ry

     The total energy is the sum of the following terms:

     one-electron contribution =     -81.00153551 Ry
     hartree contribution      =      41.43380489 Ry
     xc contribution           =     -14.31315764 Ry
     ewald contribution        =     -41.21796093 Ry
     smearing contrib. (-TS)   =      -0.00003660 Ry

     convergence has been achieved in   6 iterations


     Computing stress (Cartesian axis) and pressure

          total   stress  (Ry/bohr**3)                   (kbar)     P=   39.50
   0.00026852  -0.00000000  -0.00000000         39.50     -0.00     -0.00
  -0.00000000   0.00026852   0.00000000         -0.00     39.50      0.00
  -0.00000000   0.00000000   0.00026852         -0.00      0.00     39.50


     Writing output data file na.fcc.save

     init_run     :      0.55s CPU      0.61s WALL (       1 calls)
     electrons    :     12.86s CPU     14.00s WALL (       1 calls)
     stress       :      0.32s CPU      0.33s WALL (       1 calls)

     Called by init_run:
     wfcinit      :      0.40s CPU      0.44s WALL (       1 calls)
     potinit      :      0.02s CPU      0.02s WALL (       1 calls)

     Called by electrons:
     c_bands      :     11.16s CPU     12.19s WALL (       7 calls)
     sum_band     :      1.56s CPU      1.66s WALL (       7 calls)
     v_of_rho     :      0.07s CPU      0.07s WALL (       7 calls)
     newd         :      0.05s CPU      0.05s WALL (       7 calls)
     mix_rho      :      0.01s CPU      0.01s WALL (       7 calls)

     Called by c_bands:
     init_us_2    :      0.18s CPU      0.20s WALL (    3088 calls)
     cegterg      :      9.88s CPU     10.88s WALL (    1351 calls)

     Called by sum_band:
     sum_band:bec :      0.01s CPU      0.01s WALL (    1351 calls)
     addusdens    :      0.06s CPU      0.06s WALL (       7 calls)

     Called by *egterg:
     h_psi        :      6.55s CPU      7.10s WALL (    5172 calls)
     s_psi        :      0.09s CPU      0.10s WALL (    5172 calls)
     g_psi        :      0.02s CPU      0.03s WALL (    3628 calls)
     cdiaghg      :      2.12s CPU      2.31s WALL (    4786 calls)

     Called by h_psi:
     h_psi:pot    :      6.51s CPU      7.06s WALL (    5172 calls)
     h_psi:calbec :      0.41s CPU      0.43s WALL (    5172 calls)
     vloc_psi     :      5.96s CPU      6.48s WALL (    5172 calls)
     add_vuspsi   :      0.09s CPU      0.10s WALL (    5172 calls)

     General routines
     calbec       :      0.54s CPU      0.58s WALL (    6716 calls)
     fft          :      0.07s CPU      0.08s WALL (     117 calls)
     ffts         :      0.00s CPU      0.00s WALL (      14 calls)
     fftw         :      6.25s CPU      6.77s WALL (   77855 calls)
     interpolate  :      0.01s CPU      0.01s WALL (      14 calls)
     davcio       :      0.00s CPU      0.07s WALL (     193 calls)

     Parallel routines
     fft_scatter  :      3.68s CPU      3.98s WALL (   77986 calls)

     PWSCF        :    16.74s CPU        18.24s WALL


   This run was terminated on:   1:18: 7   2Feb2018            

=------------------------------------------------------------------------------=
   JOB DONE.
=------------------------------------------------------------------------------=
