
     Program PWSCF v.5.4.0 starts on  7Apr2018 at  0: 8:14 

     This program is part of the open-source Quantum ESPRESSO suite
     for quantum simulation of materials; please cite
         "P. Giannozzi et al., J. Phys.:Condens. Matter 21 395502 (2009);
          URL http://www.quantum-espresso.org", 
     in publications or presentations arising from this work. More details at
     http://www.quantum-espresso.org/quote

     Parallel version (MPI & OpenMP), running on     192 processor cores
     Number of MPI processes:               192
     Threads/MPI process:                     1
     K-points division:     npool     =      24
     R & G space division:  proc/nbgrp/npool/nimage =       8
     Waiting for input...
     Reading input from standard input

     Current dimensions of program PWSCF are:
     Max number of different atomic species (ntypx) = 10
     Max number of k-points (npk) =  40000
     Max angular momentum in pseudopotentials (lmaxx) =  3

     Subspace diagonalization in iterative solution of the eigenvalue problem:
     one sub-group per band group will be used
     scalapack distributed-memory algorithm (size of sub-group:  2*  2 procs)

 
     Parallelization info
     --------------------
     sticks:   dense  smooth     PW     G-vecs:    dense   smooth      PW
     Min          69      69     23                 1097     1097     209
     Max          70      70     24                 1101     1101     212
     Sum         559     559    187                 8801     8801    1687
 


     bravais-lattice index     =            2
     lattice parameter (alat)  =       9.0100  a.u.
     unit-cell volume          =     182.8582 (a.u.)^3
     number of atoms/cell      =            1
     number of atomic types    =            1
     number of electrons       =         9.00
     number of Kohn-Sham states=            9
     kinetic-energy cutoff     =      50.0000  Ry
     charge density cutoff     =     200.0000  Ry
     convergence threshold     =      1.0E-10
     mixing beta               =       0.7000
     number of iterations used =            8  plain     mixing
     Exchange-correlation      = SLA  PW   PBE  PBE ( 1  4  3  4 0 0)

     celldm(1)=   9.010000  celldm(2)=   0.000000  celldm(3)=   0.000000
     celldm(4)=   0.000000  celldm(5)=   0.000000  celldm(6)=   0.000000

     crystal axes: (cart. coord. in units of alat)
               a(1) = (  -0.500000   0.000000   0.500000 )  
               a(2) = (   0.000000   0.500000   0.500000 )  
               a(3) = (  -0.500000   0.500000   0.000000 )  

     reciprocal axes: (cart. coord. in units 2 pi/alat)
               b(1) = ( -1.000000 -1.000000  1.000000 )  
               b(2) = (  1.000000  1.000000  1.000000 )  
               b(3) = ( -1.000000  1.000000 -1.000000 )  


     PseudoPot. # 1 for Na read from file:
     ./Na_pbe_v1.uspp.F.UPF
     MD5 check sum: 76a99c7e9422403d3e93cbc85ab7bccb
     Pseudo is Ultrasoft, Zval =  9.0
     Generated by new atomic code, or converted to UPF format
     Using radial grid of  819 points,  5 beta functions with: 
                l(1) =   0
                l(2) =   0
                l(3) =   1
                l(4) =   1
                l(5) =   2
     Q(r) pseudized with  8 coefficients,  rinner =    1.250   1.250   1.250
                                                       1.250   1.250

     atomic species   valence    mass     pseudopotential
        Na             9.00    22.99000     Na( 1.00)

     48 Sym. Ops., with inversion, found



   Cartesian axes

     site n.     atom                  positions (alat units)
         1           Na  tau(   1) = (   0.0000000   0.0000000   0.0000000  )

     number of k points=   770  Marzari-Vanderbilt smearing, width (Ry)=  0.0200

     Number of k-points >= 100: set verbosity='high' to print them.

     Dense  grid:     8801 G-vectors     FFT dimensions: (  30,  30,  30)

     Largest allocated arrays     est. size (Mb)     dimensions
        Kohn-Sham Wavefunctions         0.02 Mb     (     142,    9)
        NL pseudopotentials             0.03 Mb     (     142,   13)
        Each V/rho on FFT grid          0.05 Mb     (    3600)
        Each G-vector array             0.01 Mb     (    1101)
        G-vector shells                 0.00 Mb     (     139)
     Largest temporary arrays     est. size (Mb)     dimensions
        Auxiliary wavefunctions         0.08 Mb     (     142,   36)
        Each subspace H/S matrix        0.00 Mb     (      18,   18)
        Each <psi_i|beta_j> matrix      0.00 Mb     (      13,    9)
        Arrays for rho mixing           0.44 Mb     (    3600,    8)

     Initial potential from superposition of free atoms

     starting charge    8.99371, renormalised to    9.00000
     Starting wfc are    5 randomized atomic wfcs +    4 random wfc

     total cpu time spent up to now is        0.2 secs

     per-process dynamical memory:     9.6 Mb

     Self-consistent Calculation

     iteration #  1     ecut=    50.00 Ry     beta=0.70
     Davidson diagonalization with overlap
     ethr =  1.00E-02,  avg # of iterations =  5.4

     Threshold (ethr) on eigenvalues was too large:
     Diagonalizing with lowered threshold

     Davidson diagonalization with overlap
     ethr =  1.31E-05,  avg # of iterations =  3.4

     total cpu time spent up to now is        1.3 secs

     total energy              =     -95.09909963 Ry
     Harris-Foulkes estimate   =     -95.09954810 Ry
     estimated scf accuracy    <       0.00117424 Ry

     iteration #  2     ecut=    50.00 Ry     beta=0.70
     Davidson diagonalization with overlap
     ethr =  1.30E-05,  avg # of iterations =  2.0

     total cpu time spent up to now is        1.5 secs

     total energy              =     -95.09924978 Ry
     Harris-Foulkes estimate   =     -95.09928616 Ry
     estimated scf accuracy    <       0.00013303 Ry

     iteration #  3     ecut=    50.00 Ry     beta=0.70
     Davidson diagonalization with overlap
     ethr =  1.48E-06,  avg # of iterations =  2.1

     total cpu time spent up to now is        1.8 secs

     total energy              =     -95.09926576 Ry
     Harris-Foulkes estimate   =     -95.09926701 Ry
     estimated scf accuracy    <       0.00000781 Ry

     iteration #  4     ecut=    50.00 Ry     beta=0.70
     Davidson diagonalization with overlap
     ethr =  8.68E-08,  avg # of iterations =  1.0

     total cpu time spent up to now is        2.0 secs

     total energy              =     -95.09926642 Ry
     Harris-Foulkes estimate   =     -95.09926641 Ry
     estimated scf accuracy    <       0.00000001 Ry

     iteration #  5     ecut=    50.00 Ry     beta=0.70
     Davidson diagonalization with overlap
     ethr =  1.21E-10,  avg # of iterations =  3.0

     total cpu time spent up to now is        2.3 secs

     total energy              =     -95.09926645 Ry
     Harris-Foulkes estimate   =     -95.09926645 Ry
     estimated scf accuracy    <          1.6E-09 Ry

     iteration #  6     ecut=    50.00 Ry     beta=0.70
     Davidson diagonalization with overlap
     ethr =  1.82E-11,  avg # of iterations =  1.6

     total cpu time spent up to now is        2.5 secs

     total energy              =     -95.09926645 Ry
     Harris-Foulkes estimate   =     -95.09926645 Ry
     estimated scf accuracy    <          1.0E-10 Ry

     iteration #  7     ecut=    50.00 Ry     beta=0.70
     Davidson diagonalization with overlap
     ethr =  1.15E-12,  avg # of iterations =  2.0

     total cpu time spent up to now is        2.7 secs

     End of self-consistent calculation

     Number of k-points >= 100: set verbosity='high' to print the bands.

     the Fermi energy is     3.1563 ev

!    total energy              =     -95.09926645 Ry
     Harris-Foulkes estimate   =     -95.09926645 Ry
     estimated scf accuracy    <          1.9E-12 Ry

     The total energy is the sum of the following terms:

     one-electron contribution =     -81.00236765 Ry
     hartree contribution      =      41.43447695 Ry
     xc contribution           =     -14.31337814 Ry
     ewald contribution        =     -41.21796101 Ry
     smearing contrib. (-TS)   =      -0.00003661 Ry

     convergence has been achieved in   7 iterations


     entering subroutine stress ...

          total   stress  (Ry/bohr**3)                   (kbar)     P=   42.84
   0.00029119   0.00000000   0.00000000         42.84      0.00      0.00
   0.00000000   0.00029119  -0.00000000          0.00     42.84     -0.00
   0.00000000  -0.00000000   0.00029119          0.00     -0.00     42.84


     Writing output data file na.fcc.save
 
     init_run     :      0.12s CPU      0.13s WALL (       1 calls)
     electrons    :      2.33s CPU      2.48s WALL (       1 calls)
     stress       :      0.04s CPU      0.03s WALL (       1 calls)

     Called by init_run:
     wfcinit      :      0.06s CPU      0.07s WALL (       1 calls)
     potinit      :      0.00s CPU      0.00s WALL (       1 calls)

     Called by electrons:
     c_bands      :      2.10s CPU      2.21s WALL (       8 calls)
     sum_band     :      0.20s CPU      0.20s WALL (       8 calls)
     v_of_rho     :      0.02s CPU      0.02s WALL (       8 calls)
     newd         :      0.01s CPU      0.01s WALL (       8 calls)
     mix_rho      :      0.00s CPU      0.00s WALL (       8 calls)

     Called by c_bands:
     init_us_2    :      0.03s CPU      0.02s WALL (     594 calls)
     cegterg      :      1.69s CPU      1.80s WALL (     264 calls)

     Called by sum_band:
     sum_band:bec :      0.01s CPU      0.00s WALL (     264 calls)
     addusdens    :      0.01s CPU      0.02s WALL (       8 calls)

     Called by *egterg:
     h_psi        :      0.72s CPU      0.78s WALL (    1101 calls)
     s_psi        :      0.01s CPU      0.02s WALL (    1101 calls)
     g_psi        :      0.00s CPU      0.00s WALL (     804 calls)
     cdiaghg      :      0.80s CPU      0.84s WALL (    1035 calls)

     Called by h_psi:
     add_vuspsi   :      0.01s CPU      0.02s WALL (    1101 calls)

     General routines
     calbec       :      0.03s CPU      0.04s WALL (    1398 calls)
     fft          :      0.01s CPU      0.01s WALL (     111 calls)
     fftw         :      0.68s CPU      0.77s WALL (   15542 calls)
     davcio       :      0.00s CPU      0.04s WALL (      33 calls)
 
     Parallel routines
     fft_scatter  :      0.28s CPU      0.31s WALL (   15653 calls)
 
     PWSCF        :     4.16s CPU        30.45s WALL

 
   This run was terminated on:   0: 8:45   7Apr2018            

=------------------------------------------------------------------------------=
   JOB DONE.
=------------------------------------------------------------------------------=
Application 30443874 resources: utime ~5795s, stime ~32s, Rss ~22828, inblocks ~1444256, outblocks ~1647760
