
     Program PWSCF v.5.4.0 starts on  7Apr2018 at  0: 3: 2 

     This program is part of the open-source Quantum ESPRESSO suite
     for quantum simulation of materials; please cite
         "P. Giannozzi et al., J. Phys.:Condens. Matter 21 395502 (2009);
          URL http://www.quantum-espresso.org", 
     in publications or presentations arising from this work. More details at
     http://www.quantum-espresso.org/quote

     Parallel version (MPI & OpenMP), running on     192 processor cores
     Number of MPI processes:               192
     Threads/MPI process:                     1
     K-points division:     npool     =      24
     R & G space division:  proc/nbgrp/npool/nimage =       8
     Waiting for input...
     Reading input from standard input

     Current dimensions of program PWSCF are:
     Max number of different atomic species (ntypx) = 10
     Max number of k-points (npk) =  40000
     Max angular momentum in pseudopotentials (lmaxx) =  3

     Subspace diagonalization in iterative solution of the eigenvalue problem:
     one sub-group per band group will be used
     scalapack distributed-memory algorithm (size of sub-group:  2*  2 procs)

 
     Parallelization info
     --------------------
     sticks:   dense  smooth     PW     G-vecs:    dense   smooth      PW
     Min          24      24     10                  237      237      57
     Max          25      25     11                  241      241      58
     Sum         199     199     85                 1917     1917     459
 


     bravais-lattice index     =            2
     lattice parameter (alat)  =       9.0100  a.u.
     unit-cell volume          =     182.8582 (a.u.)^3
     number of atoms/cell      =            1
     number of atomic types    =            1
     number of electrons       =         9.00
     number of Kohn-Sham states=            9
     kinetic-energy cutoff     =      18.0000  Ry
     charge density cutoff     =      72.0000  Ry
     convergence threshold     =      1.0E-10
     mixing beta               =       0.7000
     number of iterations used =            8  plain     mixing
     Exchange-correlation      = SLA  PW   PBE  PBE ( 1  4  3  4 0 0)

     celldm(1)=   9.010000  celldm(2)=   0.000000  celldm(3)=   0.000000
     celldm(4)=   0.000000  celldm(5)=   0.000000  celldm(6)=   0.000000

     crystal axes: (cart. coord. in units of alat)
               a(1) = (  -0.500000   0.000000   0.500000 )  
               a(2) = (   0.000000   0.500000   0.500000 )  
               a(3) = (  -0.500000   0.500000   0.000000 )  

     reciprocal axes: (cart. coord. in units 2 pi/alat)
               b(1) = ( -1.000000 -1.000000  1.000000 )  
               b(2) = (  1.000000  1.000000  1.000000 )  
               b(3) = ( -1.000000  1.000000 -1.000000 )  


     PseudoPot. # 1 for Na read from file:
     ./Na_pbe_v1.uspp.F.UPF
     MD5 check sum: 76a99c7e9422403d3e93cbc85ab7bccb
     Pseudo is Ultrasoft, Zval =  9.0
     Generated by new atomic code, or converted to UPF format
     Using radial grid of  819 points,  5 beta functions with: 
                l(1) =   0
                l(2) =   0
                l(3) =   1
                l(4) =   1
                l(5) =   2
     Q(r) pseudized with  8 coefficients,  rinner =    1.250   1.250   1.250
                                                       1.250   1.250

     atomic species   valence    mass     pseudopotential
        Na             9.00    22.99000     Na( 1.00)

     48 Sym. Ops., with inversion, found



   Cartesian axes

     site n.     atom                  positions (alat units)
         1           Na  tau(   1) = (   0.0000000   0.0000000   0.0000000  )

     number of k points=   770  Marzari-Vanderbilt smearing, width (Ry)=  0.0200

     Number of k-points >= 100: set verbosity='high' to print them.

     Dense  grid:     1917 G-vectors     FFT dimensions: (  18,  18,  18)

     Largest allocated arrays     est. size (Mb)     dimensions
        Kohn-Sham Wavefunctions         0.00 Mb     (      36,    9)
        NL pseudopotentials             0.01 Mb     (      36,   13)
        Each V/rho on FFT grid          0.01 Mb     (     972)
        Each G-vector array             0.00 Mb     (     241)
        G-vector shells                 0.00 Mb     (      51)
     Largest temporary arrays     est. size (Mb)     dimensions
        Auxiliary wavefunctions         0.02 Mb     (      36,   36)
        Each subspace H/S matrix        0.00 Mb     (      18,   18)
        Each <psi_i|beta_j> matrix      0.00 Mb     (      13,    9)
        Arrays for rho mixing           0.12 Mb     (     972,    8)

     Initial potential from superposition of free atoms

     starting charge    8.99371, renormalised to    9.00000
     Starting wfc are    5 randomized atomic wfcs +    4 random wfc

     total cpu time spent up to now is        0.2 secs

     per-process dynamical memory:     8.4 Mb

     Self-consistent Calculation

     iteration #  1     ecut=    18.00 Ry     beta=0.70
     Davidson diagonalization with overlap
     ethr =  1.00E-02,  avg # of iterations =  5.2

     Threshold (ethr) on eigenvalues was too large:
     Diagonalizing with lowered threshold

     Davidson diagonalization with overlap
     ethr =  2.00E-04,  avg # of iterations =  1.2

     total cpu time spent up to now is        0.8 secs

     total energy              =     -94.93034657 Ry
     Harris-Foulkes estimate   =     -94.94245351 Ry
     estimated scf accuracy    <       0.01800592 Ry

     iteration #  2     ecut=    18.00 Ry     beta=0.70
     Davidson diagonalization with overlap
     ethr =  2.00E-04,  avg # of iterations =  2.0

     total cpu time spent up to now is        0.9 secs

     total energy              =     -94.93527848 Ry
     Harris-Foulkes estimate   =     -94.93581366 Ry
     estimated scf accuracy    <       0.00106574 Ry

     iteration #  3     ecut=    18.00 Ry     beta=0.70
     Davidson diagonalization with overlap
     ethr =  1.18E-05,  avg # of iterations =  2.4

     total cpu time spent up to now is        1.2 secs

     total energy              =     -94.93548517 Ry
     Harris-Foulkes estimate   =     -94.93546568 Ry
     estimated scf accuracy    <       0.00002366 Ry

     iteration #  4     ecut=    18.00 Ry     beta=0.70
     Davidson diagonalization with overlap
     ethr =  2.63E-07,  avg # of iterations =  1.7

     total cpu time spent up to now is        1.5 secs

     total energy              =     -94.93548566 Ry
     Harris-Foulkes estimate   =     -94.93548569 Ry
     estimated scf accuracy    <       0.00000004 Ry

     iteration #  5     ecut=    18.00 Ry     beta=0.70
     Davidson diagonalization with overlap
     ethr =  4.34E-10,  avg # of iterations =  2.0

     total cpu time spent up to now is        1.6 secs

     total energy              =     -94.93548567 Ry
     Harris-Foulkes estimate   =     -94.93548567 Ry
     estimated scf accuracy    <          7.5E-09 Ry

     iteration #  6     ecut=    18.00 Ry     beta=0.70
     Davidson diagonalization with overlap
     ethr =  8.33E-11,  avg # of iterations =  2.0

     total cpu time spent up to now is        1.8 secs

     total energy              =     -94.93548567 Ry
     Harris-Foulkes estimate   =     -94.93548567 Ry
     estimated scf accuracy    <          1.4E-10 Ry

     iteration #  7     ecut=    18.00 Ry     beta=0.70
     Davidson diagonalization with overlap
     ethr =  1.59E-12,  avg # of iterations =  2.0

     total cpu time spent up to now is        1.9 secs

     End of self-consistent calculation

     Number of k-points >= 100: set verbosity='high' to print the bands.

     the Fermi energy is     3.1281 ev

!    total energy              =     -94.93548567 Ry
     Harris-Foulkes estimate   =     -94.93548567 Ry
     estimated scf accuracy    <          1.7E-13 Ry

     The total energy is the sum of the following terms:

     one-electron contribution =     -80.39183006 Ry
     hartree contribution      =      40.88006424 Ry
     xc contribution           =     -14.20572294 Ry
     ewald contribution        =     -41.21796095 Ry
     smearing contrib. (-TS)   =      -0.00003596 Ry

     convergence has been achieved in   7 iterations


     entering subroutine stress ...

          total   stress  (Ry/bohr**3)                   (kbar)     P= -693.09
  -0.00471152   0.00000000   0.00000000       -693.09      0.00      0.00
   0.00000000  -0.00471152  -0.00000000          0.00   -693.09     -0.00
   0.00000000  -0.00000000  -0.00471152          0.00     -0.00   -693.09


     Writing output data file na.fcc.save
 
     init_run     :      0.07s CPU      0.09s WALL (       1 calls)
     electrons    :      1.59s CPU      1.71s WALL (       1 calls)
     stress       :      0.01s CPU      0.01s WALL (       1 calls)

     Called by init_run:
     wfcinit      :      0.04s CPU      0.05s WALL (       1 calls)
     potinit      :      0.00s CPU      0.00s WALL (       1 calls)

     Called by electrons:
     c_bands      :      1.48s CPU      1.57s WALL (       8 calls)
     sum_band     :      0.10s CPU      0.09s WALL (       8 calls)
     v_of_rho     :      0.00s CPU      0.01s WALL (       8 calls)
     newd         :      0.00s CPU      0.00s WALL (       8 calls)
     mix_rho      :      0.00s CPU      0.00s WALL (       8 calls)

     Called by c_bands:
     init_us_2    :      0.01s CPU      0.01s WALL (     594 calls)
     cegterg      :      1.15s CPU      1.22s WALL (     264 calls)

     Called by sum_band:
     sum_band:bec :      0.00s CPU      0.00s WALL (     264 calls)
     addusdens    :      0.00s CPU      0.00s WALL (       8 calls)

     Called by *egterg:
     h_psi        :      0.35s CPU      0.37s WALL (    1000 calls)
     s_psi        :      0.01s CPU      0.01s WALL (    1000 calls)
     g_psi        :      0.00s CPU      0.00s WALL (     703 calls)
     cdiaghg      :      0.72s CPU      0.74s WALL (     934 calls)

     Called by h_psi:
     add_vuspsi   :      0.00s CPU      0.01s WALL (    1000 calls)

     General routines
     calbec       :      0.02s CPU      0.03s WALL (    1297 calls)
     fft          :      0.00s CPU      0.00s WALL (     111 calls)
     fftw         :      0.36s CPU      0.35s WALL (   15126 calls)
     davcio       :      0.00s CPU      0.01s WALL (      33 calls)
 
     Parallel routines
     fft_scatter  :      0.17s CPU      0.18s WALL (   15237 calls)
 
     PWSCF        :     3.59s CPU        25.16s WALL

 
   This run was terminated on:   0: 3:27   7Apr2018            

=------------------------------------------------------------------------------=
   JOB DONE.
=------------------------------------------------------------------------------=
Application 30443846 resources: utime ~4791s, stime ~30s, Rss ~19364, inblocks ~1443055, outblocks ~1455850
