
     Program PWSCF v.5.4.0 starts on  7Apr2018 at  0: 2:14 

     This program is part of the open-source Quantum ESPRESSO suite
     for quantum simulation of materials; please cite
         "P. Giannozzi et al., J. Phys.:Condens. Matter 21 395502 (2009);
          URL http://www.quantum-espresso.org", 
     in publications or presentations arising from this work. More details at
     http://www.quantum-espresso.org/quote

     Parallel version (MPI & OpenMP), running on     192 processor cores
     Number of MPI processes:               192
     Threads/MPI process:                     1
     K-points division:     npool     =      24
     R & G space division:  proc/nbgrp/npool/nimage =       8
     Waiting for input...
     Reading input from standard input

     Current dimensions of program PWSCF are:
     Max number of different atomic species (ntypx) = 10
     Max number of k-points (npk) =  40000
     Max angular momentum in pseudopotentials (lmaxx) =  3

     Subspace diagonalization in iterative solution of the eigenvalue problem:
     one sub-group per band group will be used
     scalapack distributed-memory algorithm (size of sub-group:  2*  2 procs)

 
     Parallelization info
     --------------------
     sticks:   dense  smooth     PW     G-vecs:    dense   smooth      PW
     Min          19      19      7                  161      161      41
     Max          21      21      8                  162      162      44
     Sum         163     163     61                 1291     1291     339
 


     bravais-lattice index     =            2
     lattice parameter (alat)  =       9.0100  a.u.
     unit-cell volume          =     182.8582 (a.u.)^3
     number of atoms/cell      =            1
     number of atomic types    =            1
     number of electrons       =         9.00
     number of Kohn-Sham states=            9
     kinetic-energy cutoff     =      14.0000  Ry
     charge density cutoff     =      56.0000  Ry
     convergence threshold     =      1.0E-10
     mixing beta               =       0.7000
     number of iterations used =            8  plain     mixing
     Exchange-correlation      = SLA  PW   PBE  PBE ( 1  4  3  4 0 0)

     celldm(1)=   9.010000  celldm(2)=   0.000000  celldm(3)=   0.000000
     celldm(4)=   0.000000  celldm(5)=   0.000000  celldm(6)=   0.000000

     crystal axes: (cart. coord. in units of alat)
               a(1) = (  -0.500000   0.000000   0.500000 )  
               a(2) = (   0.000000   0.500000   0.500000 )  
               a(3) = (  -0.500000   0.500000   0.000000 )  

     reciprocal axes: (cart. coord. in units 2 pi/alat)
               b(1) = ( -1.000000 -1.000000  1.000000 )  
               b(2) = (  1.000000  1.000000  1.000000 )  
               b(3) = ( -1.000000  1.000000 -1.000000 )  


     PseudoPot. # 1 for Na read from file:
     ./Na_pbe_v1.uspp.F.UPF
     MD5 check sum: 76a99c7e9422403d3e93cbc85ab7bccb
     Pseudo is Ultrasoft, Zval =  9.0
     Generated by new atomic code, or converted to UPF format
     Using radial grid of  819 points,  5 beta functions with: 
                l(1) =   0
                l(2) =   0
                l(3) =   1
                l(4) =   1
                l(5) =   2
     Q(r) pseudized with  8 coefficients,  rinner =    1.250   1.250   1.250
                                                       1.250   1.250

     atomic species   valence    mass     pseudopotential
        Na             9.00    22.99000     Na( 1.00)

     48 Sym. Ops., with inversion, found



   Cartesian axes

     site n.     atom                  positions (alat units)
         1           Na  tau(   1) = (   0.0000000   0.0000000   0.0000000  )

     number of k points=   770  Marzari-Vanderbilt smearing, width (Ry)=  0.0200

     Number of k-points >= 100: set verbosity='high' to print them.

     Dense  grid:     1291 G-vectors     FFT dimensions: (  15,  15,  15)

     Largest allocated arrays     est. size (Mb)     dimensions
        Kohn-Sham Wavefunctions         0.00 Mb     (      22,    9)
        NL pseudopotentials             0.00 Mb     (      22,   13)
        Each V/rho on FFT grid          0.01 Mb     (     450)
        Each G-vector array             0.00 Mb     (     162)
        G-vector shells                 0.00 Mb     (      38)
     Largest temporary arrays     est. size (Mb)     dimensions
        Auxiliary wavefunctions         0.01 Mb     (      22,   36)
        Each subspace H/S matrix        0.00 Mb     (      18,   18)
        Each <psi_i|beta_j> matrix      0.00 Mb     (      13,    9)
        Arrays for rho mixing           0.05 Mb     (     450,    8)

     Initial potential from superposition of free atoms

     starting charge    8.99371, renormalised to    9.00000
     Starting wfc are    5 randomized atomic wfcs +    4 random wfc

     total cpu time spent up to now is        0.2 secs

     per-process dynamical memory:     8.3 Mb

     Self-consistent Calculation

     iteration #  1     ecut=    14.00 Ry     beta=0.70
     Davidson diagonalization with overlap
     ethr =  1.00E-02,  avg # of iterations =  5.0

     total cpu time spent up to now is        0.5 secs

     total energy              =     -94.15566812 Ry
     Harris-Foulkes estimate   =     -94.29547100 Ry
     estimated scf accuracy    <       0.19440874 Ry

     iteration #  2     ecut=    14.00 Ry     beta=0.70
     Davidson diagonalization with overlap
     ethr =  2.16E-03,  avg # of iterations =  2.0

     total cpu time spent up to now is        0.7 secs

     total energy              =     -94.20119450 Ry
     Harris-Foulkes estimate   =     -94.20370590 Ry
     estimated scf accuracy    <       0.00425247 Ry

     iteration #  3     ecut=    14.00 Ry     beta=0.70
     Davidson diagonalization with overlap
     ethr =  4.72E-05,  avg # of iterations =  2.2

     total cpu time spent up to now is        0.9 secs

     total energy              =     -94.20179444 Ry
     Harris-Foulkes estimate   =     -94.20181089 Ry
     estimated scf accuracy    <       0.00015674 Ry

     iteration #  4     ecut=    14.00 Ry     beta=0.70
     Davidson diagonalization with overlap
     ethr =  1.74E-06,  avg # of iterations =  2.2

     total cpu time spent up to now is        1.2 secs

     total energy              =     -94.20179837 Ry
     Harris-Foulkes estimate   =     -94.20179891 Ry
     estimated scf accuracy    <       0.00000072 Ry

     iteration #  5     ecut=    14.00 Ry     beta=0.70
     Davidson diagonalization with overlap
     ethr =  8.00E-09,  avg # of iterations =  2.0

     total cpu time spent up to now is        1.3 secs

     total energy              =     -94.20179846 Ry
     Harris-Foulkes estimate   =     -94.20179876 Ry
     estimated scf accuracy    <       0.00000040 Ry

     iteration #  6     ecut=    14.00 Ry     beta=0.70
     Davidson diagonalization with overlap
     ethr =  4.44E-09,  avg # of iterations =  2.0

     total cpu time spent up to now is        1.4 secs

     total energy              =     -94.20179853 Ry
     Harris-Foulkes estimate   =     -94.20179853 Ry
     estimated scf accuracy    <          3.2E-09 Ry

     iteration #  7     ecut=    14.00 Ry     beta=0.70
     Davidson diagonalization with overlap
     ethr =  3.50E-11,  avg # of iterations =  2.0

     total cpu time spent up to now is        1.6 secs

     End of self-consistent calculation

     Number of k-points >= 100: set verbosity='high' to print the bands.

     the Fermi energy is     3.2642 ev

!    total energy              =     -94.20179853 Ry
     Harris-Foulkes estimate   =     -94.20179853 Ry
     estimated scf accuracy    <          1.1E-11 Ry

     The total energy is the sum of the following terms:

     one-electron contribution =     -78.16994709 Ry
     hartree contribution      =      39.07531142 Ry
     xc contribution           =     -13.88916506 Ry
     ewald contribution        =     -41.21796095 Ry
     smearing contrib. (-TS)   =      -0.00003684 Ry

     convergence has been achieved in   7 iterations


     entering subroutine stress ...

          total   stress  (Ry/bohr**3)                   (kbar)     P=-2706.21
  -0.01839646  -0.00000000  -0.00000000      -2706.21     -0.00     -0.00
  -0.00000000  -0.01839646   0.00000000         -0.00  -2706.21      0.00
  -0.00000000   0.00000000  -0.01839646         -0.00      0.00  -2706.21


     Writing output data file na.fcc.save
 
     init_run     :      0.06s CPU      0.08s WALL (       1 calls)
     electrons    :      1.31s CPU      1.44s WALL (       1 calls)
     stress       :      0.01s CPU      0.01s WALL (       1 calls)

     Called by init_run:
     wfcinit      :      0.03s CPU      0.04s WALL (       1 calls)
     potinit      :      0.00s CPU      0.00s WALL (       1 calls)

     Called by electrons:
     c_bands      :      1.23s CPU      1.31s WALL (       7 calls)
     sum_band     :      0.07s CPU      0.07s WALL (       7 calls)
     v_of_rho     :      0.00s CPU      0.00s WALL (       8 calls)
     newd         :      0.00s CPU      0.00s WALL (       8 calls)
     mix_rho      :      0.00s CPU      0.00s WALL (       7 calls)

     Called by c_bands:
     init_us_2    :      0.01s CPU      0.01s WALL (     528 calls)
     cegterg      :      1.05s CPU      1.08s WALL (     231 calls)

     Called by sum_band:
     sum_band:bec :      0.00s CPU      0.00s WALL (     231 calls)
     addusdens    :      0.00s CPU      0.00s WALL (       7 calls)

     Called by *egterg:
     h_psi        :      0.27s CPU      0.27s WALL (     929 calls)
     s_psi        :      0.00s CPU      0.01s WALL (     929 calls)
     g_psi        :      0.00s CPU      0.00s WALL (     665 calls)
     cdiaghg      :      0.66s CPU      0.71s WALL (     896 calls)

     Called by h_psi:
     add_vuspsi   :      0.02s CPU      0.01s WALL (     929 calls)

     General routines
     calbec       :      0.03s CPU      0.03s WALL (    1193 calls)
     fft          :      0.00s CPU      0.00s WALL (     108 calls)
     fftw         :      0.26s CPU      0.25s WALL (   13773 calls)
     davcio       :      0.00s CPU      0.01s WALL (      33 calls)
 
     Parallel routines
     fft_scatter  :      0.15s CPU      0.15s WALL (   13881 calls)
 
     PWSCF        :     4.24s CPU        37.33s WALL

 
   This run was terminated on:   0: 2:52   7Apr2018            

=------------------------------------------------------------------------------=
   JOB DONE.
=------------------------------------------------------------------------------=
Application 30443843 resources: utime ~7123s, stime ~31s, Rss ~18832, inblocks ~1443059, outblocks ~1437840
