
     Program PWSCF v.5.4.0 starts on  7Apr2018 at  0:24:54 

     This program is part of the open-source Quantum ESPRESSO suite
     for quantum simulation of materials; please cite
         "P. Giannozzi et al., J. Phys.:Condens. Matter 21 395502 (2009);
          URL http://www.quantum-espresso.org", 
     in publications or presentations arising from this work. More details at
     http://www.quantum-espresso.org/quote

     Parallel version (MPI & OpenMP), running on     192 processor cores
     Number of MPI processes:               192
     Threads/MPI process:                     1
     K-points division:     npool     =      24
     R & G space division:  proc/nbgrp/npool/nimage =       8
     Waiting for input...
     Reading input from standard input

     Current dimensions of program PWSCF are:
     Max number of different atomic species (ntypx) = 10
     Max number of k-points (npk) =  40000
     Max angular momentum in pseudopotentials (lmaxx) =  3

     Subspace diagonalization in iterative solution of the eigenvalue problem:
     one sub-group per band group will be used
     scalapack distributed-memory algorithm (size of sub-group:  2*  2 procs)

 
     Parallelization info
     --------------------
     sticks:   dense  smooth     PW     G-vecs:    dense   smooth      PW
     Min         188     188     54                 4802     4802     776
     Max         189     189     55                 4803     4803     781
     Sum        1507    1507    439                38421    38421    6231
 


     bravais-lattice index     =            2
     lattice parameter (alat)  =       9.0100  a.u.
     unit-cell volume          =     182.8582 (a.u.)^3
     number of atoms/cell      =            1
     number of atomic types    =            1
     number of electrons       =         9.00
     number of Kohn-Sham states=            9
     kinetic-energy cutoff     =     134.0000  Ry
     charge density cutoff     =     536.0000  Ry
     convergence threshold     =      1.0E-10
     mixing beta               =       0.7000
     number of iterations used =            8  plain     mixing
     Exchange-correlation      = SLA  PW   PBE  PBE ( 1  4  3  4 0 0)

     celldm(1)=   9.010000  celldm(2)=   0.000000  celldm(3)=   0.000000
     celldm(4)=   0.000000  celldm(5)=   0.000000  celldm(6)=   0.000000

     crystal axes: (cart. coord. in units of alat)
               a(1) = (  -0.500000   0.000000   0.500000 )  
               a(2) = (   0.000000   0.500000   0.500000 )  
               a(3) = (  -0.500000   0.500000   0.000000 )  

     reciprocal axes: (cart. coord. in units 2 pi/alat)
               b(1) = ( -1.000000 -1.000000  1.000000 )  
               b(2) = (  1.000000  1.000000  1.000000 )  
               b(3) = ( -1.000000  1.000000 -1.000000 )  


     PseudoPot. # 1 for Na read from file:
     ./Na_pbe_v1.uspp.F.UPF
     MD5 check sum: 76a99c7e9422403d3e93cbc85ab7bccb
     Pseudo is Ultrasoft, Zval =  9.0
     Generated by new atomic code, or converted to UPF format
     Using radial grid of  819 points,  5 beta functions with: 
                l(1) =   0
                l(2) =   0
                l(3) =   1
                l(4) =   1
                l(5) =   2
     Q(r) pseudized with  8 coefficients,  rinner =    1.250   1.250   1.250
                                                       1.250   1.250

     atomic species   valence    mass     pseudopotential
        Na             9.00    22.99000     Na( 1.00)

     48 Sym. Ops., with inversion, found



   Cartesian axes

     site n.     atom                  positions (alat units)
         1           Na  tau(   1) = (   0.0000000   0.0000000   0.0000000  )

     number of k points=   770  Marzari-Vanderbilt smearing, width (Ry)=  0.0200

     Number of k-points >= 100: set verbosity='high' to print them.

     Dense  grid:    38421 G-vectors     FFT dimensions: (  48,  48,  48)

     Largest allocated arrays     est. size (Mb)     dimensions
        Kohn-Sham Wavefunctions         0.08 Mb     (     608,    9)
        NL pseudopotentials             0.12 Mb     (     608,   13)
        Each V/rho on FFT grid          0.21 Mb     (   13824)
        Each G-vector array             0.04 Mb     (    4802)
        G-vector shells                 0.00 Mb     (     364)
     Largest temporary arrays     est. size (Mb)     dimensions
        Auxiliary wavefunctions         0.33 Mb     (     608,   36)
        Each subspace H/S matrix        0.00 Mb     (      18,   18)
        Each <psi_i|beta_j> matrix      0.00 Mb     (      13,    9)
        Arrays for rho mixing           1.69 Mb     (   13824,    8)

     Initial potential from superposition of free atoms

     starting charge    8.99371, renormalised to    9.00000
     Starting wfc are    5 randomized atomic wfcs +    4 random wfc

     total cpu time spent up to now is        0.5 secs

     per-process dynamical memory:    14.5 Mb

     Self-consistent Calculation

     iteration #  1     ecut=   134.00 Ry     beta=0.70
     Davidson diagonalization with overlap
     ethr =  1.00E-02,  avg # of iterations =  5.5

     Threshold (ethr) on eigenvalues was too large:
     Diagonalizing with lowered threshold

     Davidson diagonalization with overlap
     ethr =  1.26E-05,  avg # of iterations =  3.5

     total cpu time spent up to now is        2.3 secs

     total energy              =     -95.10159635 Ry
     Harris-Foulkes estimate   =     -95.09761749 Ry
     estimated scf accuracy    <       0.00112898 Ry

     iteration #  2     ecut=   134.00 Ry     beta=0.70
     Davidson diagonalization with overlap
     ethr =  1.25E-05,  avg # of iterations =  2.0

     total cpu time spent up to now is        2.8 secs

     total energy              =     -95.10186561 Ry
     Harris-Foulkes estimate   =     -95.10178651 Ry
     estimated scf accuracy    <       0.00013369 Ry

     iteration #  3     ecut=   134.00 Ry     beta=0.70
     Davidson diagonalization with overlap
     ethr =  1.49E-06,  avg # of iterations =  1.6

     total cpu time spent up to now is        3.3 secs

     total energy              =     -95.10188729 Ry
     Harris-Foulkes estimate   =     -95.10187996 Ry
     estimated scf accuracy    <       0.00000866 Ry

     iteration #  4     ecut=   134.00 Ry     beta=0.70
     Davidson diagonalization with overlap
     ethr =  9.62E-08,  avg # of iterations =  1.0

     total cpu time spent up to now is        3.8 secs

     total energy              =     -95.10188800 Ry
     Harris-Foulkes estimate   =     -95.10188799 Ry
     estimated scf accuracy    <       0.00000001 Ry

     iteration #  5     ecut=   134.00 Ry     beta=0.70
     Davidson diagonalization with overlap
     ethr =  1.26E-10,  avg # of iterations =  3.0

     total cpu time spent up to now is        4.4 secs

     total energy              =     -95.10188802 Ry
     Harris-Foulkes estimate   =     -95.10188802 Ry
     estimated scf accuracy    <          2.4E-09 Ry

     iteration #  6     ecut=   134.00 Ry     beta=0.70
     Davidson diagonalization with overlap
     ethr =  2.66E-11,  avg # of iterations =  2.0

     total cpu time spent up to now is        4.9 secs

     total energy              =     -95.10188802 Ry
     Harris-Foulkes estimate   =     -95.10188802 Ry
     estimated scf accuracy    <          8.3E-10 Ry

     iteration #  7     ecut=   134.00 Ry     beta=0.70
     Davidson diagonalization with overlap
     ethr =  9.20E-12,  avg # of iterations =  2.0

     total cpu time spent up to now is        5.4 secs

     End of self-consistent calculation

     Number of k-points >= 100: set verbosity='high' to print the bands.

     the Fermi energy is     3.1588 ev

!    total energy              =     -95.10188802 Ry
     Harris-Foulkes estimate   =     -95.10188802 Ry
     estimated scf accuracy    <          5.5E-11 Ry

     The total energy is the sum of the following terms:

     one-electron contribution =     -81.00256801 Ry
     hartree contribution      =      41.43113016 Ry
     xc contribution           =     -14.31245260 Ry
     ewald contribution        =     -41.21796093 Ry
     smearing contrib. (-TS)   =      -0.00003663 Ry

     convergence has been achieved in   7 iterations


     entering subroutine stress ...

          total   stress  (Ry/bohr**3)                   (kbar)     P=   39.62
   0.00026935  -0.00000000  -0.00000000         39.62     -0.00     -0.00
  -0.00000000   0.00026935   0.00000000         -0.00     39.62      0.00
  -0.00000000   0.00000000   0.00026935         -0.00      0.00     39.62


     Writing output data file na.fcc.save
 
     init_run     :      0.26s CPU      0.28s WALL (       1 calls)
     electrons    :      4.74s CPU      4.92s WALL (       1 calls)
     stress       :      0.12s CPU      0.13s WALL (       1 calls)

     Called by init_run:
     wfcinit      :      0.13s CPU      0.14s WALL (       1 calls)
     potinit      :      0.01s CPU      0.01s WALL (       1 calls)

     Called by electrons:
     c_bands      :      4.00s CPU      4.12s WALL (       8 calls)
     sum_band     :      0.62s CPU      0.63s WALL (       8 calls)
     v_of_rho     :      0.06s CPU      0.06s WALL (       8 calls)
     newd         :      0.07s CPU      0.08s WALL (       8 calls)
     mix_rho      :      0.00s CPU      0.01s WALL (       8 calls)

     Called by c_bands:
     init_us_2    :      0.08s CPU      0.08s WALL (     594 calls)
     cegterg      :      3.53s CPU      3.56s WALL (     264 calls)

     Called by sum_band:
     sum_band:bec :      0.01s CPU      0.00s WALL (     264 calls)
     addusdens    :      0.12s CPU      0.11s WALL (       8 calls)

     Called by *egterg:
     h_psi        :      2.24s CPU      2.21s WALL (    1144 calls)
     s_psi        :      0.04s CPU      0.06s WALL (    1144 calls)
     g_psi        :      0.03s CPU      0.02s WALL (     847 calls)
     cdiaghg      :      0.93s CPU      0.91s WALL (    1078 calls)

     Called by h_psi:
     add_vuspsi   :      0.08s CPU      0.06s WALL (    1144 calls)

     General routines
     calbec       :      0.12s CPU      0.10s WALL (    1441 calls)
     fft          :      0.02s CPU      0.03s WALL (     111 calls)
     fftw         :      2.15s CPU      2.16s WALL (   15910 calls)
     davcio       :      0.00s CPU      0.01s WALL (      33 calls)
 
     Parallel routines
     fft_scatter  :      0.52s CPU      0.53s WALL (   16021 calls)
 
     PWSCF        :     8.27s CPU        34.94s WALL

 
   This run was terminated on:   0:25:29   7Apr2018            

=------------------------------------------------------------------------------=
   JOB DONE.
=------------------------------------------------------------------------------=
Application 30443935 resources: utime ~6568s, stime ~41s, Rss ~36432, inblocks ~1444213, outblocks ~2463627
