
     Program PWSCF v.5.4.0 starts on  7Apr2018 at  0:20:27 

     This program is part of the open-source Quantum ESPRESSO suite
     for quantum simulation of materials; please cite
         "P. Giannozzi et al., J. Phys.:Condens. Matter 21 395502 (2009);
          URL http://www.quantum-espresso.org", 
     in publications or presentations arising from this work. More details at
     http://www.quantum-espresso.org/quote

     Parallel version (MPI & OpenMP), running on     192 processor cores
     Number of MPI processes:               192
     Threads/MPI process:                     1
     K-points division:     npool     =      24
     R & G space division:  proc/nbgrp/npool/nimage =       8
     Waiting for input...
     Reading input from standard input

     Current dimensions of program PWSCF are:
     Max number of different atomic species (ntypx) = 10
     Max number of k-points (npk) =  40000
     Max angular momentum in pseudopotentials (lmaxx) =  3

     Subspace diagonalization in iterative solution of the eigenvalue problem:
     one sub-group per band group will be used
     scalapack distributed-memory algorithm (size of sub-group:  2*  2 procs)

 
     Parallelization info
     --------------------
     sticks:   dense  smooth     PW     G-vecs:    dense   smooth      PW
     Min         154     154     47                 3570     3570     613
     Max         155     155     48                 3573     3573     615
     Sum        1237    1237    379                28571    28571    4909
 


     bravais-lattice index     =            2
     lattice parameter (alat)  =       9.0100  a.u.
     unit-cell volume          =     182.8582 (a.u.)^3
     number of atoms/cell      =            1
     number of atomic types    =            1
     number of electrons       =         9.00
     number of Kohn-Sham states=            9
     kinetic-energy cutoff     =     110.0000  Ry
     charge density cutoff     =     440.0000  Ry
     convergence threshold     =      1.0E-10
     mixing beta               =       0.7000
     number of iterations used =            8  plain     mixing
     Exchange-correlation      = SLA  PW   PBE  PBE ( 1  4  3  4 0 0)

     celldm(1)=   9.010000  celldm(2)=   0.000000  celldm(3)=   0.000000
     celldm(4)=   0.000000  celldm(5)=   0.000000  celldm(6)=   0.000000

     crystal axes: (cart. coord. in units of alat)
               a(1) = (  -0.500000   0.000000   0.500000 )  
               a(2) = (   0.000000   0.500000   0.500000 )  
               a(3) = (  -0.500000   0.500000   0.000000 )  

     reciprocal axes: (cart. coord. in units 2 pi/alat)
               b(1) = ( -1.000000 -1.000000  1.000000 )  
               b(2) = (  1.000000  1.000000  1.000000 )  
               b(3) = ( -1.000000  1.000000 -1.000000 )  


     PseudoPot. # 1 for Na read from file:
     ./Na_pbe_v1.uspp.F.UPF
     MD5 check sum: 76a99c7e9422403d3e93cbc85ab7bccb
     Pseudo is Ultrasoft, Zval =  9.0
     Generated by new atomic code, or converted to UPF format
     Using radial grid of  819 points,  5 beta functions with: 
                l(1) =   0
                l(2) =   0
                l(3) =   1
                l(4) =   1
                l(5) =   2
     Q(r) pseudized with  8 coefficients,  rinner =    1.250   1.250   1.250
                                                       1.250   1.250

     atomic species   valence    mass     pseudopotential
        Na             9.00    22.99000     Na( 1.00)

     48 Sym. Ops., with inversion, found



   Cartesian axes

     site n.     atom                  positions (alat units)
         1           Na  tau(   1) = (   0.0000000   0.0000000   0.0000000  )

     number of k points=   770  Marzari-Vanderbilt smearing, width (Ry)=  0.0200

     Number of k-points >= 100: set verbosity='high' to print them.

     Dense  grid:    28571 G-vectors     FFT dimensions: (  45,  45,  45)

     Largest allocated arrays     est. size (Mb)     dimensions
        Kohn-Sham Wavefunctions         0.06 Mb     (     456,    9)
        NL pseudopotentials             0.09 Mb     (     456,   13)
        Each V/rho on FFT grid          0.19 Mb     (   12150)
        Each G-vector array             0.03 Mb     (    3572)
        G-vector shells                 0.00 Mb     (     300)
     Largest temporary arrays     est. size (Mb)     dimensions
        Auxiliary wavefunctions         0.25 Mb     (     456,   36)
        Each subspace H/S matrix        0.00 Mb     (      18,   18)
        Each <psi_i|beta_j> matrix      0.00 Mb     (      13,    9)
        Arrays for rho mixing           1.48 Mb     (   12150,    8)

     Initial potential from superposition of free atoms

     starting charge    8.99371, renormalised to    9.00000
     Starting wfc are    5 randomized atomic wfcs +    4 random wfc

     total cpu time spent up to now is        0.5 secs

     per-process dynamical memory:    13.2 Mb

     Self-consistent Calculation

     iteration #  1     ecut=   110.00 Ry     beta=0.70
     Davidson diagonalization with overlap
     ethr =  1.00E-02,  avg # of iterations =  5.5

     Threshold (ethr) on eigenvalues was too large:
     Diagonalizing with lowered threshold

     Davidson diagonalization with overlap
     ethr =  1.31E-05,  avg # of iterations =  3.4

     total cpu time spent up to now is        2.2 secs

     total energy              =     -95.10121905 Ry
     Harris-Foulkes estimate   =     -95.10076893 Ry
     estimated scf accuracy    <       0.00117463 Ry

     iteration #  2     ecut=   110.00 Ry     beta=0.70
     Davidson diagonalization with overlap
     ethr =  1.31E-05,  avg # of iterations =  2.0

     total cpu time spent up to now is        2.6 secs

     total energy              =     -95.10141085 Ry
     Harris-Foulkes estimate   =     -95.10141513 Ry
     estimated scf accuracy    <       0.00013411 Ry

     iteration #  3     ecut=   110.00 Ry     beta=0.70
     Davidson diagonalization with overlap
     ethr =  1.49E-06,  avg # of iterations =  2.1

     total cpu time spent up to now is        3.2 secs

     total energy              =     -95.10142902 Ry
     Harris-Foulkes estimate   =     -95.10142704 Ry
     estimated scf accuracy    <       0.00000831 Ry

     iteration #  4     ecut=   110.00 Ry     beta=0.70
     Davidson diagonalization with overlap
     ethr =  9.23E-08,  avg # of iterations =  1.0

     total cpu time spent up to now is        3.5 secs

     total energy              =     -95.10142972 Ry
     Harris-Foulkes estimate   =     -95.10142970 Ry
     estimated scf accuracy    <       0.00000001 Ry

     iteration #  5     ecut=   110.00 Ry     beta=0.70
     Davidson diagonalization with overlap
     ethr =  1.14E-10,  avg # of iterations =  3.0

     total cpu time spent up to now is        4.2 secs

     total energy              =     -95.10142974 Ry
     Harris-Foulkes estimate   =     -95.10142974 Ry
     estimated scf accuracy    <          1.6E-09 Ry

     iteration #  6     ecut=   110.00 Ry     beta=0.70
     Davidson diagonalization with overlap
     ethr =  1.76E-11,  avg # of iterations =  2.0

     total cpu time spent up to now is        4.6 secs

     total energy              =     -95.10142974 Ry
     Harris-Foulkes estimate   =     -95.10142974 Ry
     estimated scf accuracy    <          1.9E-10 Ry

     iteration #  7     ecut=   110.00 Ry     beta=0.70
     Davidson diagonalization with overlap
     ethr =  2.15E-12,  avg # of iterations =  2.0

     total cpu time spent up to now is        5.1 secs

     End of self-consistent calculation

     Number of k-points >= 100: set verbosity='high' to print the bands.

     the Fermi energy is     3.1589 ev

!    total energy              =     -95.10142974 Ry
     Harris-Foulkes estimate   =     -95.10142974 Ry
     estimated scf accuracy    <          6.4E-12 Ry

     The total energy is the sum of the following terms:

     one-electron contribution =     -81.00180855 Ry
     hartree contribution      =      41.43072211 Ry
     xc contribution           =     -14.31234574 Ry
     ewald contribution        =     -41.21796093 Ry
     smearing contrib. (-TS)   =      -0.00003663 Ry

     convergence has been achieved in   7 iterations


     entering subroutine stress ...

          total   stress  (Ry/bohr**3)                   (kbar)     P=   43.29
   0.00029429   0.00000000   0.00000000         43.29      0.00      0.00
   0.00000000   0.00029429  -0.00000000          0.00     43.29     -0.00
   0.00000000  -0.00000000   0.00029429          0.00     -0.00     43.29


     Writing output data file na.fcc.save
 
     init_run     :      0.24s CPU      0.25s WALL (       1 calls)
     electrons    :      4.42s CPU      4.65s WALL (       1 calls)
     stress       :      0.10s CPU      0.10s WALL (       1 calls)

     Called by init_run:
     wfcinit      :      0.13s CPU      0.13s WALL (       1 calls)
     potinit      :      0.01s CPU      0.01s WALL (       1 calls)

     Called by electrons:
     c_bands      :      3.75s CPU      3.93s WALL (       8 calls)
     sum_band     :      0.56s CPU      0.56s WALL (       8 calls)
     v_of_rho     :      0.05s CPU      0.05s WALL (       8 calls)
     newd         :      0.05s CPU      0.06s WALL (       8 calls)
     mix_rho      :      0.01s CPU      0.01s WALL (       8 calls)

     Called by c_bands:
     init_us_2    :      0.08s CPU      0.06s WALL (     594 calls)
     cegterg      :      3.30s CPU      3.37s WALL (     264 calls)

     Called by sum_band:
     sum_band:bec :      0.00s CPU      0.00s WALL (     264 calls)
     addusdens    :      0.09s CPU      0.08s WALL (       8 calls)

     Called by *egterg:
     h_psi        :      2.06s CPU      2.14s WALL (    1138 calls)
     s_psi        :      0.03s CPU      0.05s WALL (    1138 calls)
     g_psi        :      0.02s CPU      0.01s WALL (     841 calls)
     cdiaghg      :      0.88s CPU      0.90s WALL (    1072 calls)

     Called by h_psi:
     add_vuspsi   :      0.07s CPU      0.05s WALL (    1138 calls)

     General routines
     calbec       :      0.09s CPU      0.08s WALL (    1435 calls)
     fft          :      0.03s CPU      0.03s WALL (     111 calls)
     fftw         :      2.02s CPU      2.15s WALL (   15994 calls)
     davcio       :      0.00s CPU      0.01s WALL (      33 calls)
 
     Parallel routines
     fft_scatter  :      0.45s CPU      0.47s WALL (   16105 calls)
 
     PWSCF        :     6.47s CPU        33.26s WALL

 
   This run was terminated on:   0:21: 0   7Apr2018            

=------------------------------------------------------------------------------=
   JOB DONE.
=------------------------------------------------------------------------------=
Application 30443920 resources: utime ~6267s, stime ~39s, Rss ~32688, inblocks ~1444397, outblocks ~2189498
