
     Program PWSCF v.5.4.0 starts on  7Apr2018 at  0: 3:38 

     This program is part of the open-source Quantum ESPRESSO suite
     for quantum simulation of materials; please cite
         "P. Giannozzi et al., J. Phys.:Condens. Matter 21 395502 (2009);
          URL http://www.quantum-espresso.org", 
     in publications or presentations arising from this work. More details at
     http://www.quantum-espresso.org/quote

     Parallel version (MPI & OpenMP), running on     192 processor cores
     Number of MPI processes:               192
     Threads/MPI process:                     1
     K-points division:     npool     =      24
     R & G space division:  proc/nbgrp/npool/nimage =       8
     Waiting for input...
     Reading input from standard input

     Current dimensions of program PWSCF are:
     Max number of different atomic species (ntypx) = 10
     Max number of k-points (npk) =  40000
     Max angular momentum in pseudopotentials (lmaxx) =  3

     Subspace diagonalization in iterative solution of the eigenvalue problem:
     one sub-group per band group will be used
     scalapack distributed-memory algorithm (size of sub-group:  2*  2 procs)

 
     Parallelization info
     --------------------
     sticks:   dense  smooth     PW     G-vecs:    dense   smooth      PW
     Min          31      31     11                  329      329      76
     Max          32      32     12                  331      331      77
     Sum         253     253     91                 2637     2637     609
 


     bravais-lattice index     =            2
     lattice parameter (alat)  =       9.0100  a.u.
     unit-cell volume          =     182.8582 (a.u.)^3
     number of atoms/cell      =            1
     number of atomic types    =            1
     number of electrons       =         9.00
     number of Kohn-Sham states=            9
     kinetic-energy cutoff     =      22.0000  Ry
     charge density cutoff     =      88.0000  Ry
     convergence threshold     =      1.0E-10
     mixing beta               =       0.7000
     number of iterations used =            8  plain     mixing
     Exchange-correlation      = SLA  PW   PBE  PBE ( 1  4  3  4 0 0)

     celldm(1)=   9.010000  celldm(2)=   0.000000  celldm(3)=   0.000000
     celldm(4)=   0.000000  celldm(5)=   0.000000  celldm(6)=   0.000000

     crystal axes: (cart. coord. in units of alat)
               a(1) = (  -0.500000   0.000000   0.500000 )  
               a(2) = (   0.000000   0.500000   0.500000 )  
               a(3) = (  -0.500000   0.500000   0.000000 )  

     reciprocal axes: (cart. coord. in units 2 pi/alat)
               b(1) = ( -1.000000 -1.000000  1.000000 )  
               b(2) = (  1.000000  1.000000  1.000000 )  
               b(3) = ( -1.000000  1.000000 -1.000000 )  


     PseudoPot. # 1 for Na read from file:
     ./Na_pbe_v1.uspp.F.UPF
     MD5 check sum: 76a99c7e9422403d3e93cbc85ab7bccb
     Pseudo is Ultrasoft, Zval =  9.0
     Generated by new atomic code, or converted to UPF format
     Using radial grid of  819 points,  5 beta functions with: 
                l(1) =   0
                l(2) =   0
                l(3) =   1
                l(4) =   1
                l(5) =   2
     Q(r) pseudized with  8 coefficients,  rinner =    1.250   1.250   1.250
                                                       1.250   1.250

     atomic species   valence    mass     pseudopotential
        Na             9.00    22.99000     Na( 1.00)

     48 Sym. Ops., with inversion, found



   Cartesian axes

     site n.     atom                  positions (alat units)
         1           Na  tau(   1) = (   0.0000000   0.0000000   0.0000000  )

     number of k points=   770  Marzari-Vanderbilt smearing, width (Ry)=  0.0200

     Number of k-points >= 100: set verbosity='high' to print them.

     Dense  grid:     2637 G-vectors     FFT dimensions: (  20,  20,  20)

     Largest allocated arrays     est. size (Mb)     dimensions
        Kohn-Sham Wavefunctions         0.01 Mb     (      51,    9)
        NL pseudopotentials             0.01 Mb     (      51,   13)
        Each V/rho on FFT grid          0.02 Mb     (    1200)
        Each G-vector array             0.00 Mb     (     331)
        G-vector shells                 0.00 Mb     (      57)
     Largest temporary arrays     est. size (Mb)     dimensions
        Auxiliary wavefunctions         0.03 Mb     (      51,   36)
        Each subspace H/S matrix        0.00 Mb     (      18,   18)
        Each <psi_i|beta_j> matrix      0.00 Mb     (      13,    9)
        Arrays for rho mixing           0.15 Mb     (    1200,    8)

     Initial potential from superposition of free atoms

     starting charge    8.99371, renormalised to    9.00000
     Starting wfc are    5 randomized atomic wfcs +    4 random wfc

     total cpu time spent up to now is        0.2 secs

     per-process dynamical memory:     8.5 Mb

     Self-consistent Calculation

     iteration #  1     ecut=    22.00 Ry     beta=0.70
     Davidson diagonalization with overlap
     ethr =  1.00E-02,  avg # of iterations =  5.2

     Threshold (ethr) on eigenvalues was too large:
     Diagonalizing with lowered threshold

     Davidson diagonalization with overlap
     ethr =  2.37E-05,  avg # of iterations =  2.8

     total cpu time spent up to now is        1.0 secs

     total energy              =     -95.07715625 Ry
     Harris-Foulkes estimate   =     -95.07828400 Ry
     estimated scf accuracy    <       0.00215434 Ry

     iteration #  2     ecut=    22.00 Ry     beta=0.70
     Davidson diagonalization with overlap
     ethr =  2.39E-05,  avg # of iterations =  2.0

     total cpu time spent up to now is        1.2 secs

     total energy              =     -95.07772648 Ry
     Harris-Foulkes estimate   =     -95.07779434 Ry
     estimated scf accuracy    <       0.00022673 Ry

     iteration #  3     ecut=    22.00 Ry     beta=0.70
     Davidson diagonalization with overlap
     ethr =  2.52E-06,  avg # of iterations =  2.2

     total cpu time spent up to now is        1.4 secs

     total energy              =     -95.07776497 Ry
     Harris-Foulkes estimate   =     -95.07775829 Ry
     estimated scf accuracy    <       0.00001034 Ry

     iteration #  4     ecut=    22.00 Ry     beta=0.70
     Davidson diagonalization with overlap
     ethr =  1.15E-07,  avg # of iterations =  1.0

     total cpu time spent up to now is        1.6 secs

     total energy              =     -95.07776528 Ry
     Harris-Foulkes estimate   =     -95.07776527 Ry
     estimated scf accuracy    <          6.1E-09 Ry

     iteration #  5     ecut=    22.00 Ry     beta=0.70
     Davidson diagonalization with overlap
     ethr =  6.73E-11,  avg # of iterations =  2.4

     total cpu time spent up to now is        1.7 secs

     total energy              =     -95.07776528 Ry
     Harris-Foulkes estimate   =     -95.07776528 Ry
     estimated scf accuracy    <          1.1E-10 Ry

     iteration #  6     ecut=    22.00 Ry     beta=0.70
     Davidson diagonalization with overlap
     ethr =  1.25E-12,  avg # of iterations =  2.0

     total cpu time spent up to now is        1.9 secs

     End of self-consistent calculation

     Number of k-points >= 100: set verbosity='high' to print the bands.

     the Fermi energy is     3.1381 ev

!    total energy              =     -95.07776528 Ry
     Harris-Foulkes estimate   =     -95.07776528 Ry
     estimated scf accuracy    <          3.0E-11 Ry

     The total energy is the sum of the following terms:

     one-electron contribution =     -80.90660940 Ry
     hartree contribution      =      41.34147182 Ry
     xc contribution           =     -14.29463001 Ry
     ewald contribution        =     -41.21796095 Ry
     smearing contrib. (-TS)   =      -0.00003674 Ry

     convergence has been achieved in   6 iterations


     entering subroutine stress ...

          total   stress  (Ry/bohr**3)                   (kbar)     P=  -96.04
  -0.00065284   0.00000000   0.00000000        -96.04      0.00      0.00
   0.00000000  -0.00065284  -0.00000000          0.00    -96.04     -0.00
   0.00000000  -0.00000000  -0.00065284          0.00     -0.00    -96.04


     Writing output data file na.fcc.save
 
     init_run     :      0.08s CPU      0.09s WALL (       1 calls)
     electrons    :      1.58s CPU      1.70s WALL (       1 calls)
     stress       :      0.01s CPU      0.01s WALL (       1 calls)

     Called by init_run:
     wfcinit      :      0.04s CPU      0.05s WALL (       1 calls)
     potinit      :      0.00s CPU      0.00s WALL (       1 calls)

     Called by electrons:
     c_bands      :      1.47s CPU      1.56s WALL (       7 calls)
     sum_band     :      0.09s CPU      0.09s WALL (       7 calls)
     v_of_rho     :      0.00s CPU      0.01s WALL (       7 calls)
     newd         :      0.00s CPU      0.00s WALL (       7 calls)
     mix_rho      :      0.00s CPU      0.00s WALL (       7 calls)

     Called by c_bands:
     init_us_2    :      0.00s CPU      0.01s WALL (     528 calls)
     cegterg      :      1.13s CPU      1.17s WALL (     231 calls)

     Called by sum_band:
     sum_band:bec :      0.00s CPU      0.00s WALL (     231 calls)
     addusdens    :      0.00s CPU      0.00s WALL (       7 calls)

     Called by *egterg:
     h_psi        :      0.31s CPU      0.35s WALL (     941 calls)
     s_psi        :      0.02s CPU      0.01s WALL (     941 calls)
     g_psi        :      0.00s CPU      0.00s WALL (     677 calls)
     cdiaghg      :      0.76s CPU      0.72s WALL (     875 calls)

     Called by h_psi:
     add_vuspsi   :      0.00s CPU      0.01s WALL (     941 calls)

     General routines
     calbec       :      0.01s CPU      0.03s WALL (    1205 calls)
     fft          :      0.01s CPU      0.00s WALL (      98 calls)
     fftw         :      0.30s CPU      0.33s WALL (   13513 calls)
     davcio       :      0.00s CPU      0.01s WALL (      33 calls)
 
     Parallel routines
     fft_scatter  :      0.15s CPU      0.17s WALL (   13611 calls)
 
     PWSCF        :     2.84s CPU        32.33s WALL

 
   This run was terminated on:   0: 4:11   7Apr2018            

=------------------------------------------------------------------------------=
   JOB DONE.
=------------------------------------------------------------------------------=
Application 30443849 resources: utime ~6160s, stime ~32s, Rss ~19900, inblocks ~1443966, outblocks ~1475450
