
     Program PWSCF v.5.4.0 starts on  7Apr2018 at  0:24:17 

     This program is part of the open-source Quantum ESPRESSO suite
     for quantum simulation of materials; please cite
         "P. Giannozzi et al., J. Phys.:Condens. Matter 21 395502 (2009);
          URL http://www.quantum-espresso.org", 
     in publications or presentations arising from this work. More details at
     http://www.quantum-espresso.org/quote

     Parallel version (MPI & OpenMP), running on     192 processor cores
     Number of MPI processes:               192
     Threads/MPI process:                     1
     K-points division:     npool     =      24
     R & G space division:  proc/nbgrp/npool/nimage =       8
     Waiting for input...
     Reading input from standard input

     Current dimensions of program PWSCF are:
     Max number of different atomic species (ntypx) = 10
     Max number of k-points (npk) =  40000
     Max angular momentum in pseudopotentials (lmaxx) =  3

     Subspace diagonalization in iterative solution of the eigenvalue problem:
     one sub-group per band group will be used
     scalapack distributed-memory algorithm (size of sub-group:  2*  2 procs)

 
     Parallelization info
     --------------------
     sticks:   dense  smooth     PW     G-vecs:    dense   smooth      PW
     Min         182     182     54                 4582     4582     747
     Max         183     183     55                 4584     4584     750
     Sum        1459    1459    433                36661    36661    5985
 


     bravais-lattice index     =            2
     lattice parameter (alat)  =       9.0100  a.u.
     unit-cell volume          =     182.8582 (a.u.)^3
     number of atoms/cell      =            1
     number of atomic types    =            1
     number of electrons       =         9.00
     number of Kohn-Sham states=            9
     kinetic-energy cutoff     =     130.0000  Ry
     charge density cutoff     =     520.0000  Ry
     convergence threshold     =      1.0E-10
     mixing beta               =       0.7000
     number of iterations used =            8  plain     mixing
     Exchange-correlation      = SLA  PW   PBE  PBE ( 1  4  3  4 0 0)

     celldm(1)=   9.010000  celldm(2)=   0.000000  celldm(3)=   0.000000
     celldm(4)=   0.000000  celldm(5)=   0.000000  celldm(6)=   0.000000

     crystal axes: (cart. coord. in units of alat)
               a(1) = (  -0.500000   0.000000   0.500000 )  
               a(2) = (   0.000000   0.500000   0.500000 )  
               a(3) = (  -0.500000   0.500000   0.000000 )  

     reciprocal axes: (cart. coord. in units 2 pi/alat)
               b(1) = ( -1.000000 -1.000000  1.000000 )  
               b(2) = (  1.000000  1.000000  1.000000 )  
               b(3) = ( -1.000000  1.000000 -1.000000 )  


     PseudoPot. # 1 for Na read from file:
     ./Na_pbe_v1.uspp.F.UPF
     MD5 check sum: 76a99c7e9422403d3e93cbc85ab7bccb
     Pseudo is Ultrasoft, Zval =  9.0
     Generated by new atomic code, or converted to UPF format
     Using radial grid of  819 points,  5 beta functions with: 
                l(1) =   0
                l(2) =   0
                l(3) =   1
                l(4) =   1
                l(5) =   2
     Q(r) pseudized with  8 coefficients,  rinner =    1.250   1.250   1.250
                                                       1.250   1.250

     atomic species   valence    mass     pseudopotential
        Na             9.00    22.99000     Na( 1.00)

     48 Sym. Ops., with inversion, found



   Cartesian axes

     site n.     atom                  positions (alat units)
         1           Na  tau(   1) = (   0.0000000   0.0000000   0.0000000  )

     number of k points=   770  Marzari-Vanderbilt smearing, width (Ry)=  0.0200

     Number of k-points >= 100: set verbosity='high' to print them.

     Dense  grid:    36661 G-vectors     FFT dimensions: (  48,  48,  48)

     Largest allocated arrays     est. size (Mb)     dimensions
        Kohn-Sham Wavefunctions         0.08 Mb     (     581,    9)
        NL pseudopotentials             0.12 Mb     (     581,   13)
        Each V/rho on FFT grid          0.21 Mb     (   13824)
        Each G-vector array             0.03 Mb     (    4584)
        G-vector shells                 0.00 Mb     (     353)
     Largest temporary arrays     est. size (Mb)     dimensions
        Auxiliary wavefunctions         0.32 Mb     (     581,   36)
        Each subspace H/S matrix        0.00 Mb     (      18,   18)
        Each <psi_i|beta_j> matrix      0.00 Mb     (      13,    9)
        Arrays for rho mixing           1.69 Mb     (   13824,    8)

     Initial potential from superposition of free atoms

     starting charge    8.99371, renormalised to    9.00000
     Starting wfc are    5 randomized atomic wfcs +    4 random wfc

     total cpu time spent up to now is        0.4 secs

     per-process dynamical memory:    14.4 Mb

     Self-consistent Calculation

     iteration #  1     ecut=   130.00 Ry     beta=0.70
     Davidson diagonalization with overlap
     ethr =  1.00E-02,  avg # of iterations =  5.4

     Threshold (ethr) on eigenvalues was too large:
     Diagonalizing with lowered threshold

     Davidson diagonalization with overlap
     ethr =  1.28E-05,  avg # of iterations =  3.4

     total cpu time spent up to now is        2.2 secs

     total energy              =     -95.10143882 Ry
     Harris-Foulkes estimate   =     -95.09882260 Ry
     estimated scf accuracy    <       0.00114605 Ry

     iteration #  2     ecut=   130.00 Ry     beta=0.70
     Davidson diagonalization with overlap
     ethr =  1.27E-05,  avg # of iterations =  2.0

     total cpu time spent up to now is        2.7 secs

     total energy              =     -95.10168104 Ry
     Harris-Foulkes estimate   =     -95.10162987 Ry
     estimated scf accuracy    <       0.00013358 Ry

     iteration #  3     ecut=   130.00 Ry     beta=0.70
     Davidson diagonalization with overlap
     ethr =  1.48E-06,  avg # of iterations =  2.0

     total cpu time spent up to now is        3.3 secs

     total energy              =     -95.10170206 Ry
     Harris-Foulkes estimate   =     -95.10169600 Ry
     estimated scf accuracy    <       0.00000851 Ry

     iteration #  4     ecut=   130.00 Ry     beta=0.70
     Davidson diagonalization with overlap
     ethr =  9.45E-08,  avg # of iterations =  1.0

     total cpu time spent up to now is        3.7 secs

     total energy              =     -95.10170277 Ry
     Harris-Foulkes estimate   =     -95.10170276 Ry
     estimated scf accuracy    <       0.00000001 Ry

     iteration #  5     ecut=   130.00 Ry     beta=0.70
     Davidson diagonalization with overlap
     ethr =  1.22E-10,  avg # of iterations =  3.0

     total cpu time spent up to now is        4.4 secs

     total energy              =     -95.10170280 Ry
     Harris-Foulkes estimate   =     -95.10170280 Ry
     estimated scf accuracy    <          2.0E-09 Ry

     iteration #  6     ecut=   130.00 Ry     beta=0.70
     Davidson diagonalization with overlap
     ethr =  2.26E-11,  avg # of iterations =  2.0

     total cpu time spent up to now is        4.9 secs

     total energy              =     -95.10170280 Ry
     Harris-Foulkes estimate   =     -95.10170280 Ry
     estimated scf accuracy    <          5.7E-10 Ry

     iteration #  7     ecut=   130.00 Ry     beta=0.70
     Davidson diagonalization with overlap
     ethr =  6.32E-12,  avg # of iterations =  2.0

     total cpu time spent up to now is        5.4 secs

     End of self-consistent calculation

     Number of k-points >= 100: set verbosity='high' to print the bands.

     the Fermi energy is     3.1589 ev

!    total energy              =     -95.10170280 Ry
     Harris-Foulkes estimate   =     -95.10170280 Ry
     estimated scf accuracy    <          4.9E-11 Ry

     The total energy is the sum of the following terms:

     one-electron contribution =     -81.00225273 Ry
     hartree contribution      =      41.43095962 Ry
     xc contribution           =     -14.31241213 Ry
     ewald contribution        =     -41.21796093 Ry
     smearing contrib. (-TS)   =      -0.00003663 Ry

     convergence has been achieved in   7 iterations


     entering subroutine stress ...

          total   stress  (Ry/bohr**3)                   (kbar)     P=   40.53
   0.00027549   0.00000000   0.00000000         40.53      0.00      0.00
   0.00000000   0.00027549  -0.00000000          0.00     40.53     -0.00
   0.00000000  -0.00000000   0.00027549          0.00     -0.00     40.53


     Writing output data file na.fcc.save
 
     init_run     :      0.26s CPU      0.27s WALL (       1 calls)
     electrons    :      4.72s CPU      4.98s WALL (       1 calls)
     stress       :      0.12s CPU      0.12s WALL (       1 calls)

     Called by init_run:
     wfcinit      :      0.14s CPU      0.14s WALL (       1 calls)
     potinit      :      0.00s CPU      0.01s WALL (       1 calls)

     Called by electrons:
     c_bands      :      3.96s CPU      4.20s WALL (       8 calls)
     sum_band     :      0.61s CPU      0.62s WALL (       8 calls)
     v_of_rho     :      0.06s CPU      0.06s WALL (       8 calls)
     newd         :      0.06s CPU      0.07s WALL (       8 calls)
     mix_rho      :      0.00s CPU      0.01s WALL (       8 calls)

     Called by c_bands:
     init_us_2    :      0.08s CPU      0.08s WALL (     594 calls)
     cegterg      :      3.38s CPU      3.51s WALL (     264 calls)

     Called by sum_band:
     sum_band:bec :      0.00s CPU      0.00s WALL (     264 calls)
     addusdens    :      0.10s CPU      0.11s WALL (       8 calls)

     Called by *egterg:
     h_psi        :      2.00s CPU      2.21s WALL (    1121 calls)
     s_psi        :      0.07s CPU      0.05s WALL (    1121 calls)
     g_psi        :      0.02s CPU      0.02s WALL (     824 calls)
     cdiaghg      :      0.92s CPU      0.88s WALL (    1055 calls)

     Called by h_psi:
     add_vuspsi   :      0.05s CPU      0.06s WALL (    1121 calls)

     General routines
     calbec       :      0.13s CPU      0.10s WALL (    1418 calls)
     fft          :      0.04s CPU      0.03s WALL (     111 calls)
     fftw         :      1.93s CPU      2.17s WALL (   15918 calls)
     davcio       :      0.00s CPU      0.02s WALL (      33 calls)
 
     Parallel routines
     fft_scatter  :      0.44s CPU      0.54s WALL (   16029 calls)
 
     PWSCF        :     6.96s CPU        30.07s WALL

 
   This run was terminated on:   0:24:47   7Apr2018            

=------------------------------------------------------------------------------=
   JOB DONE.
=------------------------------------------------------------------------------=
Application 30443932 resources: utime ~5682s, stime ~40s, Rss ~36100, inblocks ~1444213, outblocks ~2410784
