
     Program PWSCF v.5.4.0 starts on  7Apr2018 at  0:26:30 

     This program is part of the open-source Quantum ESPRESSO suite
     for quantum simulation of materials; please cite
         "P. Giannozzi et al., J. Phys.:Condens. Matter 21 395502 (2009);
          URL http://www.quantum-espresso.org", 
     in publications or presentations arising from this work. More details at
     http://www.quantum-espresso.org/quote

     Parallel version (MPI & OpenMP), running on     192 processor cores
     Number of MPI processes:               192
     Threads/MPI process:                     1
     K-points division:     npool     =      24
     R & G space division:  proc/nbgrp/npool/nimage =       8
     Waiting for input...
     Reading input from standard input

     Current dimensions of program PWSCF are:
     Max number of different atomic species (ntypx) = 10
     Max number of k-points (npk) =  40000
     Max angular momentum in pseudopotentials (lmaxx) =  3

     Subspace diagonalization in iterative solution of the eigenvalue problem:
     one sub-group per band group will be used
     scalapack distributed-memory algorithm (size of sub-group:  2*  2 procs)

 
     Parallelization info
     --------------------
     sticks:   dense  smooth     PW     G-vecs:    dense   smooth      PW
     Min         198     198     59                 5206     5206     856
     Max         199     199     60                 5208     5208     859
     Sum        1585    1585    475                41655    41655    6855
 


     bravais-lattice index     =            2
     lattice parameter (alat)  =       9.0100  a.u.
     unit-cell volume          =     182.8582 (a.u.)^3
     number of atoms/cell      =            1
     number of atomic types    =            1
     number of electrons       =         9.00
     number of Kohn-Sham states=            9
     kinetic-energy cutoff     =     142.0000  Ry
     charge density cutoff     =     568.0000  Ry
     convergence threshold     =      1.0E-10
     mixing beta               =       0.7000
     number of iterations used =            8  plain     mixing
     Exchange-correlation      = SLA  PW   PBE  PBE ( 1  4  3  4 0 0)

     celldm(1)=   9.010000  celldm(2)=   0.000000  celldm(3)=   0.000000
     celldm(4)=   0.000000  celldm(5)=   0.000000  celldm(6)=   0.000000

     crystal axes: (cart. coord. in units of alat)
               a(1) = (  -0.500000   0.000000   0.500000 )  
               a(2) = (   0.000000   0.500000   0.500000 )  
               a(3) = (  -0.500000   0.500000   0.000000 )  

     reciprocal axes: (cart. coord. in units 2 pi/alat)
               b(1) = ( -1.000000 -1.000000  1.000000 )  
               b(2) = (  1.000000  1.000000  1.000000 )  
               b(3) = ( -1.000000  1.000000 -1.000000 )  


     PseudoPot. # 1 for Na read from file:
     ./Na_pbe_v1.uspp.F.UPF
     MD5 check sum: 76a99c7e9422403d3e93cbc85ab7bccb
     Pseudo is Ultrasoft, Zval =  9.0
     Generated by new atomic code, or converted to UPF format
     Using radial grid of  819 points,  5 beta functions with: 
                l(1) =   0
                l(2) =   0
                l(3) =   1
                l(4) =   1
                l(5) =   2
     Q(r) pseudized with  8 coefficients,  rinner =    1.250   1.250   1.250
                                                       1.250   1.250

     atomic species   valence    mass     pseudopotential
        Na             9.00    22.99000     Na( 1.00)

     48 Sym. Ops., with inversion, found



   Cartesian axes

     site n.     atom                  positions (alat units)
         1           Na  tau(   1) = (   0.0000000   0.0000000   0.0000000  )

     number of k points=   770  Marzari-Vanderbilt smearing, width (Ry)=  0.0200

     Number of k-points >= 100: set verbosity='high' to print them.

     Dense  grid:    41655 G-vectors     FFT dimensions: (  50,  50,  50)

     Largest allocated arrays     est. size (Mb)     dimensions
        Kohn-Sham Wavefunctions         0.09 Mb     (     666,    9)
        NL pseudopotentials             0.13 Mb     (     666,   13)
        Each V/rho on FFT grid          0.27 Mb     (   17500)
        Each G-vector array             0.04 Mb     (    5207)
        G-vector shells                 0.00 Mb     (     383)
     Largest temporary arrays     est. size (Mb)     dimensions
        Auxiliary wavefunctions         0.37 Mb     (     666,   36)
        Each subspace H/S matrix        0.00 Mb     (      18,   18)
        Each <psi_i|beta_j> matrix      0.00 Mb     (      13,    9)
        Arrays for rho mixing           2.14 Mb     (   17500,    8)

     Initial potential from superposition of free atoms

     starting charge    8.99371, renormalised to    9.00000
     Starting wfc are    5 randomized atomic wfcs +    4 random wfc

     total cpu time spent up to now is        0.4 secs

     per-process dynamical memory:    15.2 Mb

     Self-consistent Calculation

     iteration #  1     ecut=   142.00 Ry     beta=0.70
     Davidson diagonalization with overlap
     ethr =  1.00E-02,  avg # of iterations =  5.5

     Threshold (ethr) on eigenvalues was too large:
     Diagonalizing with lowered threshold

     Davidson diagonalization with overlap
     ethr =  1.24E-05,  avg # of iterations =  3.5

     total cpu time spent up to now is        2.6 secs

     total energy              =     -95.10201477 Ry
     Harris-Foulkes estimate   =     -95.09628306 Ry
     estimated scf accuracy    <       0.00111005 Ry

     iteration #  2     ecut=   142.00 Ry     beta=0.70
     Davidson diagonalization with overlap
     ethr =  1.23E-05,  avg # of iterations =  2.0

     total cpu time spent up to now is        3.2 secs

     total energy              =     -95.10232968 Ry
     Harris-Foulkes estimate   =     -95.10220299 Ry
     estimated scf accuracy    <       0.00013264 Ry

     iteration #  3     ecut=   142.00 Ry     beta=0.70
     Davidson diagonalization with overlap
     ethr =  1.47E-06,  avg # of iterations =  1.4

     total cpu time spent up to now is        3.9 secs

     total energy              =     -95.10235293 Ry
     Harris-Foulkes estimate   =     -95.10234327 Ry
     estimated scf accuracy    <       0.00000868 Ry

     iteration #  4     ecut=   142.00 Ry     beta=0.70
     Davidson diagonalization with overlap
     ethr =  9.65E-08,  avg # of iterations =  1.0

     total cpu time spent up to now is        4.4 secs

     total energy              =     -95.10235366 Ry
     Harris-Foulkes estimate   =     -95.10235365 Ry
     estimated scf accuracy    <       0.00000001 Ry

     iteration #  5     ecut=   142.00 Ry     beta=0.70
     Davidson diagonalization with overlap
     ethr =  1.19E-10,  avg # of iterations =  3.0

     total cpu time spent up to now is        5.2 secs

     total energy              =     -95.10235368 Ry
     Harris-Foulkes estimate   =     -95.10235368 Ry
     estimated scf accuracy    <          2.8E-09 Ry

     iteration #  6     ecut=   142.00 Ry     beta=0.70
     Davidson diagonalization with overlap
     ethr =  3.14E-11,  avg # of iterations =  2.0

     total cpu time spent up to now is        5.8 secs

     total energy              =     -95.10235368 Ry
     Harris-Foulkes estimate   =     -95.10235368 Ry
     estimated scf accuracy    <          1.1E-09 Ry

     iteration #  7     ecut=   142.00 Ry     beta=0.70
     Davidson diagonalization with overlap
     ethr =  1.19E-11,  avg # of iterations =  2.0

     total cpu time spent up to now is        6.4 secs

     End of self-consistent calculation

     Number of k-points >= 100: set verbosity='high' to print the bands.

     the Fermi energy is     3.1585 ev

!    total energy              =     -95.10235368 Ry
     Harris-Foulkes estimate   =     -95.10235368 Ry
     estimated scf accuracy    <          2.6E-13 Ry

     The total energy is the sum of the following terms:

     one-electron contribution =     -81.00340171 Ry
     hartree contribution      =      41.43160287 Ry
     xc contribution           =     -14.31255727 Ry
     ewald contribution        =     -41.21796093 Ry
     smearing contrib. (-TS)   =      -0.00003664 Ry

     convergence has been achieved in   7 iterations


     entering subroutine stress ...

          total   stress  (Ry/bohr**3)                   (kbar)     P=   38.72
   0.00026321   0.00000000   0.00000000         38.72      0.00      0.00
   0.00000000   0.00026321   0.00000000          0.00     38.72      0.00
   0.00000000  -0.00000000   0.00026321          0.00     -0.00     38.72


     Writing output data file na.fcc.save
 
     init_run     :      0.30s CPU      0.33s WALL (       1 calls)
     electrons    :      5.81s CPU      6.02s WALL (       1 calls)
     stress       :      0.14s CPU      0.14s WALL (       1 calls)

     Called by init_run:
     wfcinit      :      0.17s CPU      0.18s WALL (       1 calls)
     potinit      :      0.02s CPU      0.02s WALL (       1 calls)

     Called by electrons:
     c_bands      :      4.87s CPU      5.02s WALL (       8 calls)
     sum_band     :      0.78s CPU      0.80s WALL (       8 calls)
     v_of_rho     :      0.08s CPU      0.08s WALL (       8 calls)
     newd         :      0.07s CPU      0.08s WALL (       8 calls)
     mix_rho      :      0.01s CPU      0.01s WALL (       8 calls)

     Called by c_bands:
     init_us_2    :      0.07s CPU      0.09s WALL (     594 calls)
     cegterg      :      4.36s CPU      4.42s WALL (     264 calls)

     Called by sum_band:
     sum_band:bec :      0.00s CPU      0.00s WALL (     264 calls)
     addusdens    :      0.12s CPU      0.13s WALL (       8 calls)

     Called by *egterg:
     h_psi        :      2.93s CPU      3.04s WALL (    1144 calls)
     s_psi        :      0.06s CPU      0.06s WALL (    1144 calls)
     g_psi        :      0.01s CPU      0.02s WALL (     847 calls)
     cdiaghg      :      0.98s CPU      0.92s WALL (    1078 calls)

     Called by h_psi:
     add_vuspsi   :      0.06s CPU      0.06s WALL (    1144 calls)

     General routines
     calbec       :      0.11s CPU      0.10s WALL (    1441 calls)
     fft          :      0.05s CPU      0.04s WALL (     111 calls)
     fftw         :      2.93s CPU      3.04s WALL (   15922 calls)
     davcio       :      0.00s CPU      0.02s WALL (      33 calls)
 
     Parallel routines
     fft_scatter  :      0.64s CPU      0.65s WALL (   16033 calls)
 
     PWSCF        :     7.88s CPU        33.14s WALL

 
   This run was terminated on:   0:27: 3   7Apr2018            

=------------------------------------------------------------------------------=
   JOB DONE.
=------------------------------------------------------------------------------=
Application 30443939 resources: utime ~6266s, stime ~40s, Rss ~37884, inblocks ~1444301, outblocks ~2554818
