
     Program PWSCF v.5.4.0 starts on  7Apr2018 at  0: 7:32 

     This program is part of the open-source Quantum ESPRESSO suite
     for quantum simulation of materials; please cite
         "P. Giannozzi et al., J. Phys.:Condens. Matter 21 395502 (2009);
          URL http://www.quantum-espresso.org", 
     in publications or presentations arising from this work. More details at
     http://www.quantum-espresso.org/quote

     Parallel version (MPI & OpenMP), running on     192 processor cores
     Number of MPI processes:               192
     Threads/MPI process:                     1
     K-points division:     npool     =      24
     R & G space division:  proc/nbgrp/npool/nimage =       8
     Waiting for input...
     Reading input from standard input

     Current dimensions of program PWSCF are:
     Max number of different atomic species (ntypx) = 10
     Max number of k-points (npk) =  40000
     Max angular momentum in pseudopotentials (lmaxx) =  3

     Subspace diagonalization in iterative solution of the eigenvalue problem:
     one sub-group per band group will be used
     scalapack distributed-memory algorithm (size of sub-group:  2*  2 procs)

 
     Parallelization info
     --------------------
     sticks:   dense  smooth     PW     G-vecs:    dense   smooth      PW
     Min          63      63     20                  965      965     181
     Max          64      64     21                  968      968     185
     Sum         511     511    163                 7727     7727    1459
 


     bravais-lattice index     =            2
     lattice parameter (alat)  =       9.0100  a.u.
     unit-cell volume          =     182.8582 (a.u.)^3
     number of atoms/cell      =            1
     number of atomic types    =            1
     number of electrons       =         9.00
     number of Kohn-Sham states=            9
     kinetic-energy cutoff     =      46.0000  Ry
     charge density cutoff     =     184.0000  Ry
     convergence threshold     =      1.0E-10
     mixing beta               =       0.7000
     number of iterations used =            8  plain     mixing
     Exchange-correlation      = SLA  PW   PBE  PBE ( 1  4  3  4 0 0)

     celldm(1)=   9.010000  celldm(2)=   0.000000  celldm(3)=   0.000000
     celldm(4)=   0.000000  celldm(5)=   0.000000  celldm(6)=   0.000000

     crystal axes: (cart. coord. in units of alat)
               a(1) = (  -0.500000   0.000000   0.500000 )  
               a(2) = (   0.000000   0.500000   0.500000 )  
               a(3) = (  -0.500000   0.500000   0.000000 )  

     reciprocal axes: (cart. coord. in units 2 pi/alat)
               b(1) = ( -1.000000 -1.000000  1.000000 )  
               b(2) = (  1.000000  1.000000  1.000000 )  
               b(3) = ( -1.000000  1.000000 -1.000000 )  


     PseudoPot. # 1 for Na read from file:
     ./Na_pbe_v1.uspp.F.UPF
     MD5 check sum: 76a99c7e9422403d3e93cbc85ab7bccb
     Pseudo is Ultrasoft, Zval =  9.0
     Generated by new atomic code, or converted to UPF format
     Using radial grid of  819 points,  5 beta functions with: 
                l(1) =   0
                l(2) =   0
                l(3) =   1
                l(4) =   1
                l(5) =   2
     Q(r) pseudized with  8 coefficients,  rinner =    1.250   1.250   1.250
                                                       1.250   1.250

     atomic species   valence    mass     pseudopotential
        Na             9.00    22.99000     Na( 1.00)

     48 Sym. Ops., with inversion, found



   Cartesian axes

     site n.     atom                  positions (alat units)
         1           Na  tau(   1) = (   0.0000000   0.0000000   0.0000000  )

     number of k points=   770  Marzari-Vanderbilt smearing, width (Ry)=  0.0200

     Number of k-points >= 100: set verbosity='high' to print them.

     Dense  grid:     7727 G-vectors     FFT dimensions: (  27,  27,  27)

     Largest allocated arrays     est. size (Mb)     dimensions
        Kohn-Sham Wavefunctions         0.02 Mb     (     134,    9)
        NL pseudopotentials             0.03 Mb     (     134,   13)
        Each V/rho on FFT grid          0.04 Mb     (    2916)
        Each G-vector array             0.01 Mb     (     966)
        G-vector shells                 0.00 Mb     (     126)
     Largest temporary arrays     est. size (Mb)     dimensions
        Auxiliary wavefunctions         0.07 Mb     (     134,   36)
        Each subspace H/S matrix        0.00 Mb     (      18,   18)
        Each <psi_i|beta_j> matrix      0.00 Mb     (      13,    9)
        Arrays for rho mixing           0.36 Mb     (    2916,    8)

     Initial potential from superposition of free atoms

     starting charge    8.99371, renormalised to    9.00000
     Starting wfc are    5 randomized atomic wfcs +    4 random wfc

     total cpu time spent up to now is        0.3 secs

     per-process dynamical memory:     9.3 Mb

     Self-consistent Calculation

     iteration #  1     ecut=    46.00 Ry     beta=0.70
     Davidson diagonalization with overlap
     ethr =  1.00E-02,  avg # of iterations =  5.3

     Threshold (ethr) on eigenvalues was too large:
     Diagonalizing with lowered threshold

     Davidson diagonalization with overlap
     ethr =  1.31E-05,  avg # of iterations =  3.3

     total cpu time spent up to now is        1.3 secs

     total energy              =     -95.09908659 Ry
     Harris-Foulkes estimate   =     -95.09951707 Ry
     estimated scf accuracy    <       0.00117226 Ry

     iteration #  2     ecut=    46.00 Ry     beta=0.70
     Davidson diagonalization with overlap
     ethr =  1.30E-05,  avg # of iterations =  2.0

     total cpu time spent up to now is        1.5 secs

     total energy              =     -95.09923590 Ry
     Harris-Foulkes estimate   =     -95.09927200 Ry
     estimated scf accuracy    <       0.00013273 Ry

     iteration #  3     ecut=    46.00 Ry     beta=0.70
     Davidson diagonalization with overlap
     ethr =  1.47E-06,  avg # of iterations =  2.1

     total cpu time spent up to now is        1.8 secs

     total energy              =     -95.09925182 Ry
     Harris-Foulkes estimate   =     -95.09925315 Ry
     estimated scf accuracy    <       0.00000781 Ry

     iteration #  4     ecut=    46.00 Ry     beta=0.70
     Davidson diagonalization with overlap
     ethr =  8.68E-08,  avg # of iterations =  1.0

     total cpu time spent up to now is        2.0 secs

     total energy              =     -95.09925247 Ry
     Harris-Foulkes estimate   =     -95.09925246 Ry
     estimated scf accuracy    <       0.00000001 Ry

     iteration #  5     ecut=    46.00 Ry     beta=0.70
     Davidson diagonalization with overlap
     ethr =  1.20E-10,  avg # of iterations =  3.0

     total cpu time spent up to now is        2.3 secs

     total energy              =     -95.09925250 Ry
     Harris-Foulkes estimate   =     -95.09925250 Ry
     estimated scf accuracy    <          1.6E-09 Ry

     iteration #  6     ecut=    46.00 Ry     beta=0.70
     Davidson diagonalization with overlap
     ethr =  1.77E-11,  avg # of iterations =  1.6

     total cpu time spent up to now is        2.5 secs

     End of self-consistent calculation

     Number of k-points >= 100: set verbosity='high' to print the bands.

     the Fermi energy is     3.1561 ev

!    total energy              =     -95.09925250 Ry
     Harris-Foulkes estimate   =     -95.09925250 Ry
     estimated scf accuracy    <          8.8E-11 Ry

     The total energy is the sum of the following terms:

     one-electron contribution =     -81.00249048 Ry
     hartree contribution      =      41.43467496 Ry
     xc contribution           =     -14.31343936 Ry
     ewald contribution        =     -41.21796101 Ry
     smearing contrib. (-TS)   =      -0.00003661 Ry

     convergence has been achieved in   6 iterations


     entering subroutine stress ...

          total   stress  (Ry/bohr**3)                   (kbar)     P=   43.13
   0.00029317  -0.00000000   0.00000000         43.13     -0.00      0.00
   0.00000000   0.00029317  -0.00000000          0.00     43.13     -0.00
  -0.00000000  -0.00000000   0.00029317         -0.00     -0.00     43.13


     Writing output data file na.fcc.save
 
     init_run     :      0.11s CPU      0.12s WALL (       1 calls)
     electrons    :      2.06s CPU      2.19s WALL (       1 calls)
     stress       :      0.03s CPU      0.03s WALL (       1 calls)

     Called by init_run:
     wfcinit      :      0.06s CPU      0.06s WALL (       1 calls)
     potinit      :      0.00s CPU      0.00s WALL (       1 calls)

     Called by electrons:
     c_bands      :      1.87s CPU      1.97s WALL (       7 calls)
     sum_band     :      0.16s CPU      0.17s WALL (       7 calls)
     v_of_rho     :      0.01s CPU      0.01s WALL (       7 calls)
     newd         :      0.00s CPU      0.01s WALL (       7 calls)
     mix_rho      :      0.00s CPU      0.00s WALL (       7 calls)

     Called by c_bands:
     init_us_2    :      0.02s CPU      0.02s WALL (     528 calls)
     cegterg      :      1.60s CPU      1.61s WALL (     231 calls)

     Called by sum_band:
     sum_band:bec :      0.00s CPU      0.00s WALL (     231 calls)
     addusdens    :      0.01s CPU      0.01s WALL (       7 calls)

     Called by *egterg:
     h_psi        :      0.66s CPU      0.66s WALL (    1027 calls)
     s_psi        :      0.01s CPU      0.01s WALL (    1027 calls)
     g_psi        :      0.00s CPU      0.00s WALL (     763 calls)
     cdiaghg      :      0.78s CPU      0.80s WALL (     961 calls)

     Called by h_psi:
     add_vuspsi   :      0.02s CPU      0.02s WALL (    1027 calls)

     General routines
     calbec       :      0.04s CPU      0.04s WALL (    1291 calls)
     fft          :      0.02s CPU      0.01s WALL (      98 calls)
     fftw         :      0.65s CPU      0.65s WALL (   13877 calls)
     davcio       :      0.00s CPU      0.01s WALL (      33 calls)
 
     Parallel routines
     fft_scatter  :      0.23s CPU      0.25s WALL (   13975 calls)
 
     PWSCF        :     3.21s CPU        34.46s WALL

 
   This run was terminated on:   0: 8: 7   7Apr2018            

=------------------------------------------------------------------------------=
   JOB DONE.
=------------------------------------------------------------------------------=
Application 30443872 resources: utime ~6556s, stime ~33s, Rss ~22472, inblocks ~1444241, outblocks ~1620322
