
     Program PWSCF v.5.4.0 starts on  7Apr2018 at  0: 1:50 

     This program is part of the open-source Quantum ESPRESSO suite
     for quantum simulation of materials; please cite
         "P. Giannozzi et al., J. Phys.:Condens. Matter 21 395502 (2009);
          URL http://www.quantum-espresso.org", 
     in publications or presentations arising from this work. More details at
     http://www.quantum-espresso.org/quote

     Parallel version (MPI & OpenMP), running on     192 processor cores
     Number of MPI processes:               192
     Threads/MPI process:                     1
     K-points division:     npool     =      24
     R & G space division:  proc/nbgrp/npool/nimage =       8
     Waiting for input...
     Reading input from standard input

     Current dimensions of program PWSCF are:
     Max number of different atomic species (ntypx) = 10
     Max number of k-points (npk) =  40000
     Max angular momentum in pseudopotentials (lmaxx) =  3

     Subspace diagonalization in iterative solution of the eigenvalue problem:
     one sub-group per band group will be used
     scalapack distributed-memory algorithm (size of sub-group:  2*  2 procs)

 
     Parallelization info
     --------------------
     sticks:   dense  smooth     PW     G-vecs:    dense   smooth      PW
     Min          13      13      6                   92       92      31
     Max          14      14      7                   95       95      33
     Sum         109     109     55                  749      749     259
 


     bravais-lattice index     =            2
     lattice parameter (alat)  =       9.0100  a.u.
     unit-cell volume          =     182.8582 (a.u.)^3
     number of atoms/cell      =            1
     number of atomic types    =            1
     number of electrons       =         9.00
     number of Kohn-Sham states=            9
     kinetic-energy cutoff     =      10.0000  Ry
     charge density cutoff     =      40.0000  Ry
     convergence threshold     =      1.0E-10
     mixing beta               =       0.7000
     number of iterations used =            8  plain     mixing
     Exchange-correlation      = SLA  PW   PBE  PBE ( 1  4  3  4 0 0)

     celldm(1)=   9.010000  celldm(2)=   0.000000  celldm(3)=   0.000000
     celldm(4)=   0.000000  celldm(5)=   0.000000  celldm(6)=   0.000000

     crystal axes: (cart. coord. in units of alat)
               a(1) = (  -0.500000   0.000000   0.500000 )  
               a(2) = (   0.000000   0.500000   0.500000 )  
               a(3) = (  -0.500000   0.500000   0.000000 )  

     reciprocal axes: (cart. coord. in units 2 pi/alat)
               b(1) = ( -1.000000 -1.000000  1.000000 )  
               b(2) = (  1.000000  1.000000  1.000000 )  
               b(3) = ( -1.000000  1.000000 -1.000000 )  


     PseudoPot. # 1 for Na read from file:
     ./Na_pbe_v1.uspp.F.UPF
     MD5 check sum: 76a99c7e9422403d3e93cbc85ab7bccb
     Pseudo is Ultrasoft, Zval =  9.0
     Generated by new atomic code, or converted to UPF format
     Using radial grid of  819 points,  5 beta functions with: 
                l(1) =   0
                l(2) =   0
                l(3) =   1
                l(4) =   1
                l(5) =   2
     Q(r) pseudized with  8 coefficients,  rinner =    1.250   1.250   1.250
                                                       1.250   1.250

     atomic species   valence    mass     pseudopotential
        Na             9.00    22.99000     Na( 1.00)

     48 Sym. Ops., with inversion, found



   Cartesian axes

     site n.     atom                  positions (alat units)
         1           Na  tau(   1) = (   0.0000000   0.0000000   0.0000000  )

     number of k points=   770  Marzari-Vanderbilt smearing, width (Ry)=  0.0200

     Number of k-points >= 100: set verbosity='high' to print them.

     Dense  grid:      749 G-vectors     FFT dimensions: (  15,  15,  15)

     Largest allocated arrays     est. size (Mb)     dimensions
        Kohn-Sham Wavefunctions         0.00 Mb     (      14,    9)
        NL pseudopotentials             0.00 Mb     (      14,   13)
        Each V/rho on FFT grid          0.01 Mb     (     450)
        Each G-vector array             0.00 Mb     (      95)
        G-vector shells                 0.00 Mb     (      25)
     Largest temporary arrays     est. size (Mb)     dimensions
        Auxiliary wavefunctions         0.01 Mb     (      14,   36)
        Each subspace H/S matrix        0.00 Mb     (      18,   18)
        Each <psi_i|beta_j> matrix      0.00 Mb     (      13,    9)
        Arrays for rho mixing           0.05 Mb     (     450,    8)

     Initial potential from superposition of free atoms
     Check: negative starting charge=   -0.185618

     starting charge    8.99371, renormalised to    9.00000

     negative rho (up, down):  1.857E-01 0.000E+00
     Starting wfc are    5 randomized atomic wfcs +    4 random wfc

     total cpu time spent up to now is        0.2 secs

     per-process dynamical memory:     8.1 Mb

     Self-consistent Calculation

     iteration #  1     ecut=    10.00 Ry     beta=0.70
     Davidson diagonalization with overlap
     ethr =  1.00E-02,  avg # of iterations =  4.7

     negative rho (up, down):  3.720E-02 0.000E+00

     total cpu time spent up to now is        0.6 secs

     total energy              =     -89.92817502 Ry
     Harris-Foulkes estimate   =     -91.51388041 Ry
     estimated scf accuracy    <       2.10441984 Ry

     iteration #  2     ecut=    10.00 Ry     beta=0.70
     Davidson diagonalization with overlap
     ethr =  1.00E-02,  avg # of iterations =  2.0

     negative rho (up, down):  4.536E-02 0.000E+00

     total cpu time spent up to now is        0.7 secs

     total energy              =     -90.34888006 Ry
     Harris-Foulkes estimate   =     -90.35261558 Ry
     estimated scf accuracy    <       0.00888101 Ry

     iteration #  3     ecut=    10.00 Ry     beta=0.70
     Davidson diagonalization with overlap
     ethr =  9.87E-05,  avg # of iterations =  2.2

     negative rho (up, down):  4.915E-02 0.000E+00

     total cpu time spent up to now is        0.9 secs

     total energy              =     -90.34870314 Ry
     Harris-Foulkes estimate   =     -90.34901825 Ry
     estimated scf accuracy    <       0.00077241 Ry

     iteration #  4     ecut=    10.00 Ry     beta=0.70
     Davidson diagonalization with overlap
     ethr =  8.58E-06,  avg # of iterations =  1.5

     negative rho (up, down):  4.912E-02 0.000E+00

     total cpu time spent up to now is        1.1 secs

     total energy              =     -90.34871000 Ry
     Harris-Foulkes estimate   =     -90.34871002 Ry
     estimated scf accuracy    <       0.00000014 Ry

     iteration #  5     ecut=    10.00 Ry     beta=0.70
     Davidson diagonalization with overlap
     ethr =  1.51E-09,  avg # of iterations =  1.7

     negative rho (up, down):  4.912E-02 0.000E+00

     total cpu time spent up to now is        1.3 secs

     total energy              =     -90.34871023 Ry
     Harris-Foulkes estimate   =     -90.34871003 Ry
     estimated scf accuracy    <       0.00000001 Ry

     iteration #  6     ecut=    10.00 Ry     beta=0.70
     Davidson diagonalization with overlap
     ethr =  1.48E-10,  avg # of iterations =  1.6

     negative rho (up, down):  4.912E-02 0.000E+00

     total cpu time spent up to now is        1.4 secs

     End of self-consistent calculation

     Number of k-points >= 100: set verbosity='high' to print the bands.

     the Fermi energy is     2.7999 ev

!    total energy              =     -90.34871020 Ry
     Harris-Foulkes estimate   =     -90.34871024 Ry
     estimated scf accuracy    <          6.3E-11 Ry

     The total energy is the sum of the following terms:

     one-electron contribution =     -68.33129154 Ry
     hartree contribution      =      31.81611655 Ry
     xc contribution           =     -12.61554712 Ry
     ewald contribution        =     -41.21796099 Ry
     smearing contrib. (-TS)   =      -0.00002710 Ry

     convergence has been achieved in   6 iterations


     entering subroutine stress ...

          total   stress  (Ry/bohr**3)                   (kbar)     P=********
  -0.07264061   0.00000000   0.00000000     -10685.80      0.00      0.00
   0.00000000  -0.07264061   0.00000000          0.00 -10685.80      0.00
  -0.00000000   0.00000000  -0.07264061         -0.00      0.00 -10685.80


     Writing output data file na.fcc.save
 
     init_run     :      0.07s CPU      0.07s WALL (       1 calls)
     electrons    :      1.12s CPU      1.23s WALL (       1 calls)
     stress       :      0.00s CPU      0.01s WALL (       1 calls)

     Called by init_run:
     wfcinit      :      0.04s CPU      0.04s WALL (       1 calls)
     potinit      :      0.00s CPU      0.00s WALL (       1 calls)

     Called by electrons:
     c_bands      :      1.06s CPU      1.14s WALL (       6 calls)
     sum_band     :      0.04s CPU      0.05s WALL (       6 calls)
     v_of_rho     :      0.00s CPU      0.00s WALL (       7 calls)
     newd         :      0.00s CPU      0.00s WALL (       7 calls)
     mix_rho      :      0.00s CPU      0.00s WALL (       6 calls)

     Called by c_bands:
     init_us_2    :      0.01s CPU      0.01s WALL (     462 calls)
     cegterg      :      0.83s CPU      0.88s WALL (     198 calls)

     Called by sum_band:
     sum_band:bec :      0.00s CPU      0.00s WALL (     198 calls)
     addusdens    :      0.00s CPU      0.00s WALL (       6 calls)

     Called by *egterg:
     h_psi        :      0.20s CPU      0.21s WALL (     802 calls)
     s_psi        :      0.00s CPU      0.00s WALL (     802 calls)
     g_psi        :      0.00s CPU      0.00s WALL (     571 calls)
     cdiaghg      :      0.53s CPU      0.60s WALL (     769 calls)

     Called by h_psi:
     add_vuspsi   :      0.00s CPU      0.01s WALL (     802 calls)

     General routines
     calbec       :      0.03s CPU      0.02s WALL (    1033 calls)
     fft          :      0.00s CPU      0.00s WALL (      95 calls)
     fftw         :      0.16s CPU      0.20s WALL (   11240 calls)
     davcio       :      0.00s CPU      0.00s WALL (      33 calls)
 
     Parallel routines
     fft_scatter  :      0.10s CPU      0.12s WALL (   11335 calls)
 
     PWSCF        :     2.02s CPU        15.34s WALL

 
   This run was terminated on:   0: 2: 5   7Apr2018            

=------------------------------------------------------------------------------=
   JOB DONE.
=------------------------------------------------------------------------------=
Application 30443838 resources: utime ~2927s, stime ~27s, Rss ~18636, inblocks ~1443061, outblocks ~1423120
