
     Program PWSCF v.5.4.0 starts on  7Apr2018 at  0:15:56 

     This program is part of the open-source Quantum ESPRESSO suite
     for quantum simulation of materials; please cite
         "P. Giannozzi et al., J. Phys.:Condens. Matter 21 395502 (2009);
          URL http://www.quantum-espresso.org", 
     in publications or presentations arising from this work. More details at
     http://www.quantum-espresso.org/quote

     Parallel version (MPI & OpenMP), running on     192 processor cores
     Number of MPI processes:               192
     Threads/MPI process:                     1
     K-points division:     npool     =      24
     R & G space division:  proc/nbgrp/npool/nimage =       8
     Waiting for input...
     Reading input from standard input

     Current dimensions of program PWSCF are:
     Max number of different atomic species (ntypx) = 10
     Max number of k-points (npk) =  40000
     Max angular momentum in pseudopotentials (lmaxx) =  3

     Subspace diagonalization in iterative solution of the eigenvalue problem:
     one sub-group per band group will be used
     scalapack distributed-memory algorithm (size of sub-group:  2*  2 procs)

 
     Parallelization info
     --------------------
     sticks:   dense  smooth     PW     G-vecs:    dense   smooth      PW
     Min         119     119     37                 2466     2466     433
     Max         120     120     38                 2471     2471     436
     Sum         955     955    301                19747    19747    3479
 


     bravais-lattice index     =            2
     lattice parameter (alat)  =       9.0100  a.u.
     unit-cell volume          =     182.8582 (a.u.)^3
     number of atoms/cell      =            1
     number of atomic types    =            1
     number of electrons       =         9.00
     number of Kohn-Sham states=            9
     kinetic-energy cutoff     =      86.0000  Ry
     charge density cutoff     =     344.0000  Ry
     convergence threshold     =      1.0E-10
     mixing beta               =       0.7000
     number of iterations used =            8  plain     mixing
     Exchange-correlation      = SLA  PW   PBE  PBE ( 1  4  3  4 0 0)

     celldm(1)=   9.010000  celldm(2)=   0.000000  celldm(3)=   0.000000
     celldm(4)=   0.000000  celldm(5)=   0.000000  celldm(6)=   0.000000

     crystal axes: (cart. coord. in units of alat)
               a(1) = (  -0.500000   0.000000   0.500000 )  
               a(2) = (   0.000000   0.500000   0.500000 )  
               a(3) = (  -0.500000   0.500000   0.000000 )  

     reciprocal axes: (cart. coord. in units 2 pi/alat)
               b(1) = ( -1.000000 -1.000000  1.000000 )  
               b(2) = (  1.000000  1.000000  1.000000 )  
               b(3) = ( -1.000000  1.000000 -1.000000 )  


     PseudoPot. # 1 for Na read from file:
     ./Na_pbe_v1.uspp.F.UPF
     MD5 check sum: 76a99c7e9422403d3e93cbc85ab7bccb
     Pseudo is Ultrasoft, Zval =  9.0
     Generated by new atomic code, or converted to UPF format
     Using radial grid of  819 points,  5 beta functions with: 
                l(1) =   0
                l(2) =   0
                l(3) =   1
                l(4) =   1
                l(5) =   2
     Q(r) pseudized with  8 coefficients,  rinner =    1.250   1.250   1.250
                                                       1.250   1.250

     atomic species   valence    mass     pseudopotential
        Na             9.00    22.99000     Na( 1.00)

     48 Sym. Ops., with inversion, found



   Cartesian axes

     site n.     atom                  positions (alat units)
         1           Na  tau(   1) = (   0.0000000   0.0000000   0.0000000  )

     number of k points=   770  Marzari-Vanderbilt smearing, width (Ry)=  0.0200

     Number of k-points >= 100: set verbosity='high' to print them.

     Dense  grid:    19747 G-vectors     FFT dimensions: (  40,  40,  40)

     Largest allocated arrays     est. size (Mb)     dimensions
        Kohn-Sham Wavefunctions         0.05 Mb     (     332,    9)
        NL pseudopotentials             0.07 Mb     (     332,   13)
        Each V/rho on FFT grid          0.12 Mb     (    8000)
        Each G-vector array             0.02 Mb     (    2467)
        G-vector shells                 0.00 Mb     (     231)
     Largest temporary arrays     est. size (Mb)     dimensions
        Auxiliary wavefunctions         0.18 Mb     (     332,   36)
        Each subspace H/S matrix        0.00 Mb     (      18,   18)
        Each <psi_i|beta_j> matrix      0.00 Mb     (      13,    9)
        Arrays for rho mixing           0.98 Mb     (    8000,    8)

     Initial potential from superposition of free atoms

     starting charge    8.99371, renormalised to    9.00000
     Starting wfc are    5 randomized atomic wfcs +    4 random wfc

     total cpu time spent up to now is        0.3 secs

     per-process dynamical memory:    11.7 Mb

     Self-consistent Calculation

     iteration #  1     ecut=    86.00 Ry     beta=0.70
     Davidson diagonalization with overlap
     ethr =  1.00E-02,  avg # of iterations =  5.4

     Threshold (ethr) on eigenvalues was too large:
     Diagonalizing with lowered threshold

     Davidson diagonalization with overlap
     ethr =  1.32E-05,  avg # of iterations =  3.5

     total cpu time spent up to now is        1.6 secs

     total energy              =     -95.10071546 Ry
     Harris-Foulkes estimate   =     -95.10107630 Ry
     estimated scf accuracy    <       0.00118303 Ry

     iteration #  2     ecut=    86.00 Ry     beta=0.70
     Davidson diagonalization with overlap
     ethr =  1.31E-05,  avg # of iterations =  2.0

     total cpu time spent up to now is        1.9 secs

     total energy              =     -95.10087604 Ry
     Harris-Foulkes estimate   =     -95.10090807 Ry
     estimated scf accuracy    <       0.00013250 Ry

     iteration #  3     ecut=    86.00 Ry     beta=0.70
     Davidson diagonalization with overlap
     ethr =  1.47E-06,  avg # of iterations =  2.1

     total cpu time spent up to now is        2.3 secs

     total energy              =     -95.10089226 Ry
     Harris-Foulkes estimate   =     -95.10089302 Ry
     estimated scf accuracy    <       0.00000800 Ry

     iteration #  4     ecut=    86.00 Ry     beta=0.70
     Davidson diagonalization with overlap
     ethr =  8.89E-08,  avg # of iterations =  1.0

     total cpu time spent up to now is        2.6 secs

     total energy              =     -95.10089293 Ry
     Harris-Foulkes estimate   =     -95.10089292 Ry
     estimated scf accuracy    <       0.00000001 Ry

     iteration #  5     ecut=    86.00 Ry     beta=0.70
     Davidson diagonalization with overlap
     ethr =  1.16E-10,  avg # of iterations =  3.0

     total cpu time spent up to now is        3.0 secs

     total energy              =     -95.10089296 Ry
     Harris-Foulkes estimate   =     -95.10089296 Ry
     estimated scf accuracy    <          1.6E-09 Ry

     iteration #  6     ecut=    86.00 Ry     beta=0.70
     Davidson diagonalization with overlap
     ethr =  1.75E-11,  avg # of iterations =  1.6

     total cpu time spent up to now is        3.3 secs

     End of self-consistent calculation

     Number of k-points >= 100: set verbosity='high' to print the bands.

     the Fermi energy is     3.1586 ev

!    total energy              =     -95.10089296 Ry
     Harris-Foulkes estimate   =     -95.10089296 Ry
     estimated scf accuracy    <          8.3E-11 Ry

     The total energy is the sum of the following terms:

     one-electron contribution =     -81.00174615 Ry
     hartree contribution      =      41.43123063 Ry
     xc contribution           =     -14.31237988 Ry
     ewald contribution        =     -41.21796093 Ry
     smearing contrib. (-TS)   =      -0.00003662 Ry

     convergence has been achieved in   6 iterations


     entering subroutine stress ...

          total   stress  (Ry/bohr**3)                   (kbar)     P=   42.63
   0.00028977  -0.00000000   0.00000000         42.63     -0.00      0.00
  -0.00000000   0.00028977  -0.00000000         -0.00     42.63     -0.00
   0.00000000  -0.00000000   0.00028977          0.00     -0.00     42.63


     Writing output data file na.fcc.save
 
     init_run     :      0.17s CPU      0.18s WALL (       1 calls)
     electrons    :      2.87s CPU      3.03s WALL (       1 calls)
     stress       :      0.07s CPU      0.07s WALL (       1 calls)

     Called by init_run:
     wfcinit      :      0.08s CPU      0.09s WALL (       1 calls)
     potinit      :      0.00s CPU      0.01s WALL (       1 calls)

     Called by electrons:
     c_bands      :      2.48s CPU      2.61s WALL (       7 calls)
     sum_band     :      0.31s CPU      0.31s WALL (       7 calls)
     v_of_rho     :      0.04s CPU      0.03s WALL (       7 calls)
     newd         :      0.03s CPU      0.04s WALL (       7 calls)
     mix_rho      :      0.00s CPU      0.00s WALL (       7 calls)

     Called by c_bands:
     init_us_2    :      0.04s CPU      0.04s WALL (     528 calls)
     cegterg      :      2.09s CPU      2.17s WALL (     231 calls)

     Called by sum_band:
     sum_band:bec :      0.00s CPU      0.00s WALL (     231 calls)
     addusdens    :      0.05s CPU      0.04s WALL (       7 calls)

     Called by *egterg:
     h_psi        :      1.05s CPU      1.14s WALL (    1023 calls)
     s_psi        :      0.02s CPU      0.03s WALL (    1023 calls)
     g_psi        :      0.01s CPU      0.01s WALL (     759 calls)
     cdiaghg      :      0.79s CPU      0.80s WALL (     957 calls)

     Called by h_psi:
     add_vuspsi   :      0.04s CPU      0.03s WALL (    1023 calls)

     General routines
     calbec       :      0.06s CPU      0.06s WALL (    1287 calls)
     fft          :      0.02s CPU      0.02s WALL (      98 calls)
     fftw         :      1.04s CPU      1.12s WALL (   13937 calls)
     davcio       :      0.00s CPU      0.01s WALL (      33 calls)
 
     Parallel routines
     fft_scatter  :      0.28s CPU      0.30s WALL (   14035 calls)
 
     PWSCF        :     4.86s CPU        34.75s WALL

 
   This run was terminated on:   0:16:31   7Apr2018            

=------------------------------------------------------------------------------=
   JOB DONE.
=------------------------------------------------------------------------------=
Application 30443904 resources: utime ~6593s, stime ~33s, Rss ~29132, inblocks ~1444521, outblocks ~1954141
