
     Program PWSCF v.5.4.0 starts on  7Apr2018 at  0:27:12 

     This program is part of the open-source Quantum ESPRESSO suite
     for quantum simulation of materials; please cite
         "P. Giannozzi et al., J. Phys.:Condens. Matter 21 395502 (2009);
          URL http://www.quantum-espresso.org", 
     in publications or presentations arising from this work. More details at
     http://www.quantum-espresso.org/quote

     Parallel version (MPI & OpenMP), running on     192 processor cores
     Number of MPI processes:               192
     Threads/MPI process:                     1
     K-points division:     npool     =      24
     R & G space division:  proc/nbgrp/npool/nimage =       8
     Waiting for input...
     Reading input from standard input

     Current dimensions of program PWSCF are:
     Max number of different atomic species (ntypx) = 10
     Max number of k-points (npk) =  40000
     Max angular momentum in pseudopotentials (lmaxx) =  3

     Subspace diagonalization in iterative solution of the eigenvalue problem:
     one sub-group per band group will be used
     scalapack distributed-memory algorithm (size of sub-group:  2*  2 procs)

 
     Parallelization info
     --------------------
     sticks:   dense  smooth     PW     G-vecs:    dense   smooth      PW
     Min         204     204     61                 5455     5455     889
     Max         205     205     63                 5458     5458     891
     Sum        1639    1639    499                43655    43655    7119
 


     bravais-lattice index     =            2
     lattice parameter (alat)  =       9.0100  a.u.
     unit-cell volume          =     182.8582 (a.u.)^3
     number of atoms/cell      =            1
     number of atomic types    =            1
     number of electrons       =         9.00
     number of Kohn-Sham states=            9
     kinetic-energy cutoff     =     146.0000  Ry
     charge density cutoff     =     584.0000  Ry
     convergence threshold     =      1.0E-10
     mixing beta               =       0.7000
     number of iterations used =            8  plain     mixing
     Exchange-correlation      = SLA  PW   PBE  PBE ( 1  4  3  4 0 0)

     celldm(1)=   9.010000  celldm(2)=   0.000000  celldm(3)=   0.000000
     celldm(4)=   0.000000  celldm(5)=   0.000000  celldm(6)=   0.000000

     crystal axes: (cart. coord. in units of alat)
               a(1) = (  -0.500000   0.000000   0.500000 )  
               a(2) = (   0.000000   0.500000   0.500000 )  
               a(3) = (  -0.500000   0.500000   0.000000 )  

     reciprocal axes: (cart. coord. in units 2 pi/alat)
               b(1) = ( -1.000000 -1.000000  1.000000 )  
               b(2) = (  1.000000  1.000000  1.000000 )  
               b(3) = ( -1.000000  1.000000 -1.000000 )  


     PseudoPot. # 1 for Na read from file:
     ./Na_pbe_v1.uspp.F.UPF
     MD5 check sum: 76a99c7e9422403d3e93cbc85ab7bccb
     Pseudo is Ultrasoft, Zval =  9.0
     Generated by new atomic code, or converted to UPF format
     Using radial grid of  819 points,  5 beta functions with: 
                l(1) =   0
                l(2) =   0
                l(3) =   1
                l(4) =   1
                l(5) =   2
     Q(r) pseudized with  8 coefficients,  rinner =    1.250   1.250   1.250
                                                       1.250   1.250

     atomic species   valence    mass     pseudopotential
        Na             9.00    22.99000     Na( 1.00)

     48 Sym. Ops., with inversion, found



   Cartesian axes

     site n.     atom                  positions (alat units)
         1           Na  tau(   1) = (   0.0000000   0.0000000   0.0000000  )

     number of k points=   770  Marzari-Vanderbilt smearing, width (Ry)=  0.0200

     Number of k-points >= 100: set verbosity='high' to print them.

     Dense  grid:    43655 G-vectors     FFT dimensions: (  50,  50,  50)

     Largest allocated arrays     est. size (Mb)     dimensions
        Kohn-Sham Wavefunctions         0.10 Mb     (     695,    9)
        NL pseudopotentials             0.14 Mb     (     695,   13)
        Each V/rho on FFT grid          0.27 Mb     (   17500)
        Each G-vector array             0.04 Mb     (    5457)
        G-vector shells                 0.00 Mb     (     396)
     Largest temporary arrays     est. size (Mb)     dimensions
        Auxiliary wavefunctions         0.38 Mb     (     695,   36)
        Each subspace H/S matrix        0.00 Mb     (      18,   18)
        Each <psi_i|beta_j> matrix      0.00 Mb     (      13,    9)
        Arrays for rho mixing           2.14 Mb     (   17500,    8)

     Initial potential from superposition of free atoms

     starting charge    8.99371, renormalised to    9.00000
     Starting wfc are    5 randomized atomic wfcs +    4 random wfc

     total cpu time spent up to now is        0.4 secs

     per-process dynamical memory:    15.4 Mb

     Self-consistent Calculation

     iteration #  1     ecut=   146.00 Ry     beta=0.70
     Davidson diagonalization with overlap
     ethr =  1.00E-02,  avg # of iterations =  5.5

     Threshold (ethr) on eigenvalues was too large:
     Diagonalizing with lowered threshold

     Davidson diagonalization with overlap
     ethr =  1.23E-05,  avg # of iterations =  3.6

     total cpu time spent up to now is        2.7 secs

     total energy              =     -95.10223467 Ry
     Harris-Foulkes estimate   =     -95.09582181 Ry
     estimated scf accuracy    <       0.00110146 Ry

     iteration #  2     ecut=   146.00 Ry     beta=0.70
     Davidson diagonalization with overlap
     ethr =  1.22E-05,  avg # of iterations =  2.0

     total cpu time spent up to now is        3.3 secs

     total energy              =     -95.10257026 Ry
     Harris-Foulkes estimate   =     -95.10242178 Ry
     estimated scf accuracy    <       0.00013237 Ry

     iteration #  3     ecut=   146.00 Ry     beta=0.70
     Davidson diagonalization with overlap
     ethr =  1.47E-06,  avg # of iterations =  1.4

     total cpu time spent up to now is        4.0 secs

     total energy              =     -95.10259398 Ry
     Harris-Foulkes estimate   =     -95.10258352 Ry
     estimated scf accuracy    <       0.00000868 Ry

     iteration #  4     ecut=   146.00 Ry     beta=0.70
     Davidson diagonalization with overlap
     ethr =  9.64E-08,  avg # of iterations =  1.0

     total cpu time spent up to now is        4.6 secs

     total energy              =     -95.10259471 Ry
     Harris-Foulkes estimate   =     -95.10259470 Ry
     estimated scf accuracy    <       0.00000001 Ry

     iteration #  5     ecut=   146.00 Ry     beta=0.70
     Davidson diagonalization with overlap
     ethr =  1.16E-10,  avg # of iterations =  3.0

     total cpu time spent up to now is        5.3 secs

     total energy              =     -95.10259473 Ry
     Harris-Foulkes estimate   =     -95.10259473 Ry
     estimated scf accuracy    <          2.8E-09 Ry

     iteration #  6     ecut=   146.00 Ry     beta=0.70
     Davidson diagonalization with overlap
     ethr =  3.06E-11,  avg # of iterations =  2.0

     total cpu time spent up to now is        6.0 secs

     total energy              =     -95.10259473 Ry
     Harris-Foulkes estimate   =     -95.10259473 Ry
     estimated scf accuracy    <          1.0E-09 Ry

     iteration #  7     ecut=   146.00 Ry     beta=0.70
     Davidson diagonalization with overlap
     ethr =  1.13E-11,  avg # of iterations =  2.0

     total cpu time spent up to now is        6.6 secs

     End of self-consistent calculation

     Number of k-points >= 100: set verbosity='high' to print the bands.

     the Fermi energy is     3.1582 ev

!    total energy              =     -95.10259473 Ry
     Harris-Foulkes estimate   =     -95.10259473 Ry
     estimated scf accuracy    <          1.0E-11 Ry

     The total energy is the sum of the following terms:

     one-electron contribution =     -81.00383656 Ry
     hartree contribution      =      41.43184786 Ry
     xc contribution           =     -14.31260846 Ry
     ewald contribution        =     -41.21796093 Ry
     smearing contrib. (-TS)   =      -0.00003664 Ry

     convergence has been achieved in   7 iterations


     entering subroutine stress ...

          total   stress  (Ry/bohr**3)                   (kbar)     P=   38.84
   0.00026406  -0.00000000   0.00000000         38.84     -0.00      0.00
  -0.00000000   0.00026406  -0.00000000         -0.00     38.84     -0.00
   0.00000000  -0.00000000   0.00026406          0.00     -0.00     38.84


     Writing output data file na.fcc.save
 
     init_run     :      0.32s CPU      0.34s WALL (       1 calls)
     electrons    :      5.88s CPU      6.16s WALL (       1 calls)
     stress       :      0.15s CPU      0.15s WALL (       1 calls)

     Called by init_run:
     wfcinit      :      0.17s CPU      0.18s WALL (       1 calls)
     potinit      :      0.02s CPU      0.02s WALL (       1 calls)

     Called by electrons:
     c_bands      :      4.92s CPU      5.14s WALL (       8 calls)
     sum_band     :      0.80s CPU      0.82s WALL (       8 calls)
     v_of_rho     :      0.07s CPU      0.08s WALL (       8 calls)
     newd         :      0.08s CPU      0.09s WALL (       8 calls)
     mix_rho      :      0.02s CPU      0.01s WALL (       8 calls)

     Called by c_bands:
     init_us_2    :      0.04s CPU      0.09s WALL (     594 calls)
     cegterg      :      4.37s CPU      4.46s WALL (     264 calls)

     Called by sum_band:
     sum_band:bec :      0.00s CPU      0.00s WALL (     264 calls)
     addusdens    :      0.12s CPU      0.13s WALL (       8 calls)

     Called by *egterg:
     h_psi        :      3.06s CPU      3.07s WALL (    1147 calls)
     s_psi        :      0.04s CPU      0.06s WALL (    1147 calls)
     g_psi        :      0.01s CPU      0.02s WALL (     850 calls)
     cdiaghg      :      0.91s CPU      0.92s WALL (    1081 calls)

     Called by h_psi:
     add_vuspsi   :      0.06s CPU      0.07s WALL (    1147 calls)

     General routines
     calbec       :      0.05s CPU      0.11s WALL (    1444 calls)
     fft          :      0.04s CPU      0.04s WALL (     111 calls)
     fftw         :      3.12s CPU      3.07s WALL (   15884 calls)
     davcio       :      0.00s CPU      0.02s WALL (      33 calls)
 
     Parallel routines
     fft_scatter  :      0.63s CPU      0.68s WALL (   15995 calls)
 
     PWSCF        :     8.13s CPU        32.33s WALL

 
   This run was terminated on:   0:27:44   7Apr2018            

=------------------------------------------------------------------------------=
   JOB DONE.
=------------------------------------------------------------------------------=
Application 30443940 resources: utime ~6113s, stime ~41s, Rss ~38696, inblocks ~1444229, outblocks ~2602679
