
     Program PWSCF v.5.4.0 starts on  7Apr2018 at  1: 7: 6 

     This program is part of the open-source Quantum ESPRESSO suite
     for quantum simulation of materials; please cite
         "P. Giannozzi et al., J. Phys.:Condens. Matter 21 395502 (2009);
          URL http://www.quantum-espresso.org", 
     in publications or presentations arising from this work. More details at
     http://www.quantum-espresso.org/quote

     Parallel version (MPI & OpenMP), running on     192 processor cores
     Number of MPI processes:               192
     Threads/MPI process:                     1
     K-points division:     npool     =      24
     R & G space division:  proc/nbgrp/npool/nimage =       8
     Waiting for input...
     Reading input from standard input

     Current dimensions of program PWSCF are:
     Max number of different atomic species (ntypx) = 10
     Max number of k-points (npk) =  40000
     Max angular momentum in pseudopotentials (lmaxx) =  3

     Subspace diagonalization in iterative solution of the eigenvalue problem:
     one sub-group per band group will be used
     scalapack distributed-memory algorithm (size of sub-group:  2*  2 procs)

 
     Parallelization info
     --------------------
     sticks:   dense  smooth     PW     G-vecs:    dense   smooth      PW
     Min         111      54     18                 2196      775     153
     Max         112      55     19                 2198      783     156
     Sum         889     439    151                17573     6231    1243
 


     bravais-lattice index     =            2
     lattice parameter (alat)  =       9.0100  a.u.
     unit-cell volume          =     182.8582 (a.u.)^3
     number of atoms/cell      =            1
     number of atomic types    =            1
     number of electrons       =         9.00
     number of Kohn-Sham states=            9
     kinetic-energy cutoff     =      40.0000  Ry
     charge density cutoff     =     320.0000  Ry
     convergence threshold     =      1.0E-10
     mixing beta               =       0.7000
     number of iterations used =            8  plain     mixing
     Exchange-correlation      = SLA  PW   PBE  PBE ( 1  4  3  4 0 0)

     celldm(1)=   9.010000  celldm(2)=   0.000000  celldm(3)=   0.000000
     celldm(4)=   0.000000  celldm(5)=   0.000000  celldm(6)=   0.000000

     crystal axes: (cart. coord. in units of alat)
               a(1) = (  -0.500000   0.000000   0.500000 )  
               a(2) = (   0.000000   0.500000   0.500000 )  
               a(3) = (  -0.500000   0.500000   0.000000 )  

     reciprocal axes: (cart. coord. in units 2 pi/alat)
               b(1) = ( -1.000000 -1.000000  1.000000 )  
               b(2) = (  1.000000  1.000000  1.000000 )  
               b(3) = ( -1.000000  1.000000 -1.000000 )  


     PseudoPot. # 1 for Na read from file:
     ./Na_pbe_v1.uspp.F.UPF
     MD5 check sum: 76a99c7e9422403d3e93cbc85ab7bccb
     Pseudo is Ultrasoft, Zval =  9.0
     Generated by new atomic code, or converted to UPF format
     Using radial grid of  819 points,  5 beta functions with: 
                l(1) =   0
                l(2) =   0
                l(3) =   1
                l(4) =   1
                l(5) =   2
     Q(r) pseudized with  8 coefficients,  rinner =    1.250   1.250   1.250
                                                       1.250   1.250

     atomic species   valence    mass     pseudopotential
        Na             9.00    22.99000     Na( 1.00)

     48 Sym. Ops., with inversion, found



   Cartesian axes

     site n.     atom                  positions (alat units)
         1           Na  tau(   1) = (   0.0000000   0.0000000   0.0000000  )

     number of k points=    28  Marzari-Vanderbilt smearing, width (Ry)=  0.0200
                       cart. coord. in units 2pi/alat
        k(    1) = (  -0.0833333   0.0833333   0.0833333), wk =   0.0185185
        k(    2) = (  -0.2500000   0.2500000  -0.0833333), wk =   0.0555556
        k(    3) = (  -0.4166667   0.4166667  -0.2500000), wk =   0.0555556
        k(    4) = (   0.4166667  -0.4166667   0.5833333), wk =   0.0555556
        k(    5) = (   0.2500000  -0.2500000   0.4166667), wk =   0.0555556
        k(    6) = (   0.0833333  -0.0833333   0.2500000), wk =   0.0555556
        k(    7) = (  -0.0833333   0.4166667   0.0833333), wk =   0.0555556
        k(    8) = (  -0.2500000   0.5833333  -0.0833333), wk =   0.1111111
        k(    9) = (   0.5833333  -0.2500000   0.7500000), wk =   0.1111111
        k(   10) = (   0.4166667  -0.0833333   0.5833333), wk =   0.1111111
        k(   11) = (   0.2500000   0.0833333   0.4166667), wk =   0.1111111
        k(   12) = (  -0.0833333   0.7500000   0.0833333), wk =   0.0555556
        k(   13) = (   0.7500000  -0.0833333   0.9166667), wk =   0.1111111
        k(   14) = (   0.5833333   0.0833333   0.7500000), wk =   0.1111111
        k(   15) = (   0.4166667   0.2500000   0.5833333), wk =   0.1111111
        k(   16) = (  -0.0833333  -0.9166667   0.0833333), wk =   0.0555556
        k(   17) = (  -0.2500000  -0.7500000  -0.0833333), wk =   0.1111111
        k(   18) = (  -0.0833333  -0.5833333   0.0833333), wk =   0.0555556
        k(   19) = (  -0.2500000   0.2500000   0.2500000), wk =   0.0185185
        k(   20) = (  -0.4166667   0.4166667   0.0833333), wk =   0.0555556
        k(   21) = (   0.4166667  -0.4166667   0.9166667), wk =   0.0555556
        k(   22) = (   0.2500000  -0.2500000   0.7500000), wk =   0.0555556
        k(   23) = (  -0.2500000   0.5833333   0.2500000), wk =   0.0555556
        k(   24) = (   0.5833333  -0.2500000   1.0833333), wk =   0.1111111
        k(   25) = (   0.4166667  -0.0833333   0.9166667), wk =   0.1111111
        k(   26) = (  -0.2500000  -1.0833333   0.2500000), wk =   0.0555556
        k(   27) = (  -0.4166667   0.4166667   0.4166667), wk =   0.0185185
        k(   28) = (   0.4166667  -0.4166667   1.2500000), wk =   0.0555556

     Dense  grid:    17573 G-vectors     FFT dimensions: (  40,  40,  40)

     Smooth grid:     6231 G-vectors     FFT dimensions: (  25,  25,  25)

     Largest allocated arrays     est. size (Mb)     dimensions
        Kohn-Sham Wavefunctions         0.01 Mb     (     102,    9)
        NL pseudopotentials             0.02 Mb     (     102,   13)
        Each V/rho on FFT grid          0.12 Mb     (    8000)
        Each G-vector array             0.02 Mb     (    2197)
        G-vector shells                 0.00 Mb     (     218)
     Largest temporary arrays     est. size (Mb)     dimensions
        Auxiliary wavefunctions         0.06 Mb     (     102,   36)
        Each subspace H/S matrix        0.00 Mb     (      18,   18)
        Each <psi_i|beta_j> matrix      0.00 Mb     (      13,    9)
        Arrays for rho mixing           0.98 Mb     (    8000,    8)

     Initial potential from superposition of free atoms

     starting charge    8.99371, renormalised to    9.00000
     Starting wfc are    5 randomized atomic wfcs +    4 random wfc

     total cpu time spent up to now is        0.2 secs

     per-process dynamical memory:    10.4 Mb

     Self-consistent Calculation

     iteration #  1     ecut=    40.00 Ry     beta=0.70
     Davidson diagonalization with overlap
     ethr =  1.00E-02,  avg # of iterations =  5.4

     Threshold (ethr) on eigenvalues was too large:
     Diagonalizing with lowered threshold

     Davidson diagonalization with overlap
     ethr =  1.31E-05,  avg # of iterations =  3.6

     total cpu time spent up to now is        0.3 secs

     total energy              =     -95.09852395 Ry
     Harris-Foulkes estimate   =     -95.09893875 Ry
     estimated scf accuracy    <       0.00117490 Ry

     iteration #  2     ecut=    40.00 Ry     beta=0.70
     Davidson diagonalization with overlap
     ethr =  1.31E-05,  avg # of iterations =  2.0

     total cpu time spent up to now is        0.4 secs

     total energy              =     -95.09867153 Ry
     Harris-Foulkes estimate   =     -95.09870604 Ry
     estimated scf accuracy    <       0.00013157 Ry

     iteration #  3     ecut=    40.00 Ry     beta=0.70
     Davidson diagonalization with overlap
     ethr =  1.46E-06,  avg # of iterations =  2.0

     total cpu time spent up to now is        0.4 secs

     total energy              =     -95.09868735 Ry
     Harris-Foulkes estimate   =     -95.09868867 Ry
     estimated scf accuracy    <       0.00000772 Ry

     iteration #  4     ecut=    40.00 Ry     beta=0.70
     Davidson diagonalization with overlap
     ethr =  8.58E-08,  avg # of iterations =  1.0

     total cpu time spent up to now is        0.4 secs

     total energy              =     -95.09868806 Ry
     Harris-Foulkes estimate   =     -95.09868800 Ry
     estimated scf accuracy    <       0.00000001 Ry

     iteration #  5     ecut=    40.00 Ry     beta=0.70
     Davidson diagonalization with overlap
     ethr =  1.12E-10,  avg # of iterations =  3.0

     total cpu time spent up to now is        0.5 secs

     total energy              =     -95.09868809 Ry
     Harris-Foulkes estimate   =     -95.09868809 Ry
     estimated scf accuracy    <          1.5E-09 Ry

     iteration #  6     ecut=    40.00 Ry     beta=0.70
     Davidson diagonalization with overlap
     ethr =  1.72E-11,  avg # of iterations =  1.6

     total cpu time spent up to now is        0.5 secs

     End of self-consistent calculation

          k =-0.0833 0.0833 0.0833 (   785 PWs)   bands (ev):

   -49.7155 -21.5954 -21.5890 -21.5890  -0.7188  14.4649  16.0878  16.0878
    18.0746

          k =-0.2500 0.2500-0.0833 (   792 PWs)   bands (ev):

   -49.7131 -21.6249 -21.5980 -21.5917   0.0418  11.3301  13.7088  16.6775
    17.9677

          k =-0.4167 0.4167-0.2500 (   785 PWs)   bands (ev):

   -49.7093 -21.6720 -21.6056 -21.5987   1.8799   7.1467  13.2005  15.4718
    17.1943

          k = 0.4167-0.4167 0.5833 (   785 PWs)   bands (ev):

   -49.7079 -21.6885 -21.6059 -21.6032   3.5785   4.8509  13.5188  14.5284
    16.3402

          k = 0.2500-0.2500 0.4167 (   782 PWs)   bands (ev):

   -49.7104 -21.6577 -21.6006 -21.5992   1.1553   8.4705  14.3455  14.3523
    16.5849

          k = 0.0833-0.0833 0.2500 (   791 PWs)   bands (ev):

   -49.7142 -21.6095 -21.5937 -21.5924  -0.3366  12.8871  14.9253  15.3141
    17.2594

          k =-0.0833 0.4167 0.0833 (   791 PWs)   bands (ev):

   -49.7119 -21.6305 -21.6016 -21.6009   0.4165  11.5433  13.6831  13.8251
    14.9812

          k =-0.2500 0.5833-0.0833 (   783 PWs)   bands (ev):

   -49.7088 -21.6593 -21.6171 -21.6067   1.8807   8.9943  11.0498  12.8919
    15.4414

          k = 0.5833-0.2500 0.7500 (   781 PWs)   bands (ev):

   -49.7068 -21.6762 -21.6282 -21.6104   4.2435   5.5347  10.3096  12.3473
    16.1202

          k = 0.4167-0.0833 0.5833 (   781 PWs)   bands (ev):

   -49.7079 -21.6656 -21.6270 -21.6042   2.5909   7.7134  10.0152  13.3628
    17.4584

          k = 0.2500 0.0833 0.4167 (   788 PWs)   bands (ev):

   -49.7111 -21.6432 -21.6067 -21.5969   0.7876  10.0100  12.3781  15.1601
    16.4631

          k =-0.0833 0.7500 0.0833 (   781 PWs)   bands (ev):

   -49.7070 -21.6710 -21.6213 -21.6185   2.9470   8.8907   9.9668  12.4249
    12.8144

          k = 0.7500-0.0833 0.9167 (   775 PWs)   bands (ev):

   -49.7056 -21.6741 -21.6350 -21.6223   4.9721   6.9116   8.2377  11.0323
    14.4480

          k = 0.5833 0.0833 0.7500 (   779 PWs)   bands (ev):

   -49.7061 -21.6643 -21.6466 -21.6139   4.8935   6.1412   8.3198  11.8461
    15.7781

          k = 0.4167 0.2500 0.5833 (   787 PWs)   bands (ev):

   -49.7079 -21.6790 -21.6142 -21.6041   2.9370   6.1436  12.0062  13.7406
    16.7987

          k =-0.0833-0.9167 0.0833 (   774 PWs)   bands (ev):

   -49.7056 -21.6811 -21.6268 -21.6231   4.6539   6.7209   9.5761  12.1471
    12.4465

          k =-0.2500-0.7500-0.0833 (   775 PWs)   bands (ev):

   -49.7068 -21.6698 -21.6275 -21.6165   3.2926   8.2268   9.3238  11.5399
    14.7778

          k =-0.0833-0.5833 0.0833 (   788 PWs)   bands (ev):

   -49.7093 -21.6528 -21.6116 -21.6107   1.5200  10.4747  11.4700  12.9839
    13.5811

          k =-0.2500 0.2500 0.2500 (   790 PWs)   bands (ev):

   -49.7121 -21.6406 -21.5950 -21.5950   0.4165   9.7933  15.4389  15.4389
    16.9879

          k =-0.4167 0.4167 0.0833 (   789 PWs)   bands (ev):

   -49.7096 -21.6569 -21.6159 -21.5976   1.5193   8.7060  11.1006  15.5095
    17.0241

          k = 0.4167-0.4167 0.9167 (   783 PWs)   bands (ev):

   -49.7070 -21.6672 -21.6383 -21.6067   3.6238   6.7416   9.0495  13.8291
    15.0594

          k = 0.2500-0.2500 0.7500 (   781 PWs)   bands (ev):

   -49.7068 -21.6732 -21.6282 -21.6131   3.6294   6.7652   9.8402  12.9770
    13.9775

          k =-0.2500 0.5833 0.2500 (   783 PWs)   bands (ev):

   -49.7085 -21.6697 -21.6113 -21.6073   2.2376   7.4574  12.1610  13.5261
    14.9466

          k = 0.5833-0.2500 1.0833 (   778 PWs)   bands (ev):

   -49.7065 -21.6670 -21.6379 -21.6144   3.9666   7.0406   9.0124  11.1796
    17.3987

          k = 0.4167-0.0833 0.9167 (   769 PWs)   bands (ev):

   -49.7056 -21.6627 -21.6467 -21.6223   5.5513   6.6333   7.7081  10.0429
    17.0869

          k =-0.2500-1.0833 0.2500 (   773 PWs)   bands (ev):

   -49.7058 -21.6689 -21.6436 -21.6165   5.2325   6.3269   7.8249  12.7040
    13.5180

          k =-0.4167 0.4167 0.4167 (   772 PWs)   bands (ev):

   -49.7086 -21.6847 -21.6006 -21.6006   2.5876   5.8129  15.1021  15.1021
    16.5587

          k = 0.4167-0.4167 1.2500 (   778 PWs)   bands (ev):

   -49.7073 -21.6814 -21.6200 -21.6053   3.9105   5.1995  11.1849  14.0698
    15.4888

     the Fermi energy is     3.1309 ev

!    total energy              =     -95.09868809 Ry
     Harris-Foulkes estimate   =     -95.09868809 Ry
     estimated scf accuracy    <          8.3E-11 Ry

     The total energy is the sum of the following terms:

     one-electron contribution =     -81.00140959 Ry
     hartree contribution      =      41.43382401 Ry
     xc contribution           =     -14.31317132 Ry
     ewald contribution        =     -41.21796093 Ry
     smearing contrib. (-TS)   =       0.00002974 Ry

     convergence has been achieved in   6 iterations


     entering subroutine stress ...

          total   stress  (Ry/bohr**3)                   (kbar)     P=   39.57
   0.00026901  -0.00000000  -0.00000000         39.57     -0.00     -0.00
  -0.00000000   0.00026901   0.00000000         -0.00     39.57      0.00
  -0.00000000   0.00000000   0.00026901         -0.00      0.00     39.57


     Writing output data file na.fcc.save
 
     init_run     :      0.07s CPU      0.09s WALL (       1 calls)
     electrons    :      0.24s CPU      0.29s WALL (       1 calls)
     stress       :      0.03s CPU      0.03s WALL (       1 calls)

     Called by init_run:
     wfcinit      :      0.00s CPU      0.01s WALL (       1 calls)
     potinit      :      0.01s CPU      0.01s WALL (       1 calls)

     Called by electrons:
     c_bands      :      0.11s CPU      0.11s WALL (       7 calls)
     sum_band     :      0.07s CPU      0.08s WALL (       7 calls)
     v_of_rho     :      0.03s CPU      0.03s WALL (       7 calls)
     newd         :      0.04s CPU      0.03s WALL (       7 calls)
     mix_rho      :      0.00s CPU      0.00s WALL (       7 calls)

     Called by c_bands:
     init_us_2    :      0.00s CPU      0.00s WALL (      32 calls)
     cegterg      :      0.10s CPU      0.10s WALL (      14 calls)

     Called by sum_band:
     sum_band:bec :      0.00s CPU      0.00s WALL (      14 calls)
     addusdens    :      0.04s CPU      0.04s WALL (       7 calls)

     Called by *egterg:
     h_psi        :      0.04s CPU      0.04s WALL (      64 calls)
     s_psi        :      0.00s CPU      0.00s WALL (      64 calls)
     g_psi        :      0.00s CPU      0.00s WALL (      48 calls)
     cdiaghg      :      0.05s CPU      0.05s WALL (      60 calls)

     Called by h_psi:
     add_vuspsi   :      0.00s CPU      0.00s WALL (      64 calls)

     General routines
     calbec       :      0.00s CPU      0.00s WALL (      80 calls)
     fft          :      0.01s CPU      0.02s WALL (     117 calls)
     ffts         :      0.00s CPU      0.00s WALL (      14 calls)
     fftw         :      0.04s CPU      0.04s WALL (     862 calls)
     interpolate  :      0.00s CPU      0.00s WALL (      14 calls)
     davcio       :      0.00s CPU      0.01s WALL (       2 calls)
 
     Parallel routines
     fft_scatter  :      0.02s CPU      0.03s WALL (     993 calls)
 
     PWSCF        :     0.56s CPU         2.46s WALL

 
   This run was terminated on:   1: 7: 8   7Apr2018            

=------------------------------------------------------------------------------=
   JOB DONE.
=------------------------------------------------------------------------------=
Application 30444041 resources: utime ~471s, stime ~26s, Rss ~26476, inblocks ~1441222, outblocks ~1406256
