
     Program PWSCF v.5.4.0 starts on  7Apr2018 at  1: 7:15 

     This program is part of the open-source Quantum ESPRESSO suite
     for quantum simulation of materials; please cite
         "P. Giannozzi et al., J. Phys.:Condens. Matter 21 395502 (2009);
          URL http://www.quantum-espresso.org", 
     in publications or presentations arising from this work. More details at
     http://www.quantum-espresso.org/quote

     Parallel version (MPI & OpenMP), running on     192 processor cores
     Number of MPI processes:               192
     Threads/MPI process:                     1
     K-points division:     npool     =      24
     R & G space division:  proc/nbgrp/npool/nimage =       8
     Waiting for input...
     Reading input from standard input

     Current dimensions of program PWSCF are:
     Max number of different atomic species (ntypx) = 10
     Max number of k-points (npk) =  40000
     Max angular momentum in pseudopotentials (lmaxx) =  3

     Subspace diagonalization in iterative solution of the eigenvalue problem:
     one sub-group per band group will be used
     scalapack distributed-memory algorithm (size of sub-group:  2*  2 procs)

 
     Parallelization info
     --------------------
     sticks:   dense  smooth     PW     G-vecs:    dense   smooth      PW
     Min         111      54     18                 2196      775     153
     Max         112      55     19                 2198      783     156
     Sum         889     439    151                17573     6231    1243
 


     bravais-lattice index     =            2
     lattice parameter (alat)  =       9.0100  a.u.
     unit-cell volume          =     182.8582 (a.u.)^3
     number of atoms/cell      =            1
     number of atomic types    =            1
     number of electrons       =         9.00
     number of Kohn-Sham states=            9
     kinetic-energy cutoff     =      40.0000  Ry
     charge density cutoff     =     320.0000  Ry
     convergence threshold     =      1.0E-10
     mixing beta               =       0.7000
     number of iterations used =            8  plain     mixing
     Exchange-correlation      = SLA  PW   PBE  PBE ( 1  4  3  4 0 0)

     celldm(1)=   9.010000  celldm(2)=   0.000000  celldm(3)=   0.000000
     celldm(4)=   0.000000  celldm(5)=   0.000000  celldm(6)=   0.000000

     crystal axes: (cart. coord. in units of alat)
               a(1) = (  -0.500000   0.000000   0.500000 )  
               a(2) = (   0.000000   0.500000   0.500000 )  
               a(3) = (  -0.500000   0.500000   0.000000 )  

     reciprocal axes: (cart. coord. in units 2 pi/alat)
               b(1) = ( -1.000000 -1.000000  1.000000 )  
               b(2) = (  1.000000  1.000000  1.000000 )  
               b(3) = ( -1.000000  1.000000 -1.000000 )  


     PseudoPot. # 1 for Na read from file:
     ./Na_pbe_v1.uspp.F.UPF
     MD5 check sum: 76a99c7e9422403d3e93cbc85ab7bccb
     Pseudo is Ultrasoft, Zval =  9.0
     Generated by new atomic code, or converted to UPF format
     Using radial grid of  819 points,  5 beta functions with: 
                l(1) =   0
                l(2) =   0
                l(3) =   1
                l(4) =   1
                l(5) =   2
     Q(r) pseudized with  8 coefficients,  rinner =    1.250   1.250   1.250
                                                       1.250   1.250

     atomic species   valence    mass     pseudopotential
        Na             9.00    22.99000     Na( 1.00)

     48 Sym. Ops., with inversion, found



   Cartesian axes

     site n.     atom                  positions (alat units)
         1           Na  tau(   1) = (   0.0000000   0.0000000   0.0000000  )

     number of k points=    60  Marzari-Vanderbilt smearing, width (Ry)=  0.0200
                       cart. coord. in units 2pi/alat
        k(    1) = (  -0.0625000   0.0625000   0.0625000), wk =   0.0078125
        k(    2) = (  -0.1875000   0.1875000  -0.0625000), wk =   0.0234375
        k(    3) = (  -0.3125000   0.3125000  -0.1875000), wk =   0.0234375
        k(    4) = (  -0.4375000   0.4375000  -0.3125000), wk =   0.0234375
        k(    5) = (   0.4375000  -0.4375000   0.5625000), wk =   0.0234375
        k(    6) = (   0.3125000  -0.3125000   0.4375000), wk =   0.0234375
        k(    7) = (   0.1875000  -0.1875000   0.3125000), wk =   0.0234375
        k(    8) = (   0.0625000  -0.0625000   0.1875000), wk =   0.0234375
        k(    9) = (  -0.0625000   0.3125000   0.0625000), wk =   0.0234375
        k(   10) = (  -0.1875000   0.4375000  -0.0625000), wk =   0.0468750
        k(   11) = (  -0.3125000   0.5625000  -0.1875000), wk =   0.0468750
        k(   12) = (   0.5625000  -0.3125000   0.6875000), wk =   0.0468750
        k(   13) = (   0.4375000  -0.1875000   0.5625000), wk =   0.0468750
        k(   14) = (   0.3125000  -0.0625000   0.4375000), wk =   0.0468750
        k(   15) = (   0.1875000   0.0625000   0.3125000), wk =   0.0468750
        k(   16) = (  -0.0625000   0.5625000   0.0625000), wk =   0.0234375
        k(   17) = (  -0.1875000   0.6875000  -0.0625000), wk =   0.0468750
        k(   18) = (   0.6875000  -0.1875000   0.8125000), wk =   0.0468750
        k(   19) = (   0.5625000  -0.0625000   0.6875000), wk =   0.0468750
        k(   20) = (   0.4375000   0.0625000   0.5625000), wk =   0.0468750
        k(   21) = (   0.3125000   0.1875000   0.4375000), wk =   0.0468750
        k(   22) = (  -0.0625000   0.8125000   0.0625000), wk =   0.0234375
        k(   23) = (   0.8125000  -0.0625000   0.9375000), wk =   0.0468750
        k(   24) = (   0.6875000   0.0625000   0.8125000), wk =   0.0468750
        k(   25) = (   0.5625000   0.1875000   0.6875000), wk =   0.0468750
        k(   26) = (   0.4375000   0.3125000   0.5625000), wk =   0.0468750
        k(   27) = (  -0.0625000  -0.9375000   0.0625000), wk =   0.0234375
        k(   28) = (  -0.1875000  -0.8125000  -0.0625000), wk =   0.0468750
        k(   29) = (  -0.3125000  -0.6875000  -0.1875000), wk =   0.0468750
        k(   30) = (  -0.0625000  -0.6875000   0.0625000), wk =   0.0234375
        k(   31) = (  -0.1875000  -0.5625000  -0.0625000), wk =   0.0468750
        k(   32) = (  -0.0625000  -0.4375000   0.0625000), wk =   0.0234375
        k(   33) = (  -0.1875000   0.1875000   0.1875000), wk =   0.0078125
        k(   34) = (  -0.3125000   0.3125000   0.0625000), wk =   0.0234375
        k(   35) = (  -0.4375000   0.4375000  -0.0625000), wk =   0.0234375
        k(   36) = (   0.4375000  -0.4375000   0.8125000), wk =   0.0234375
        k(   37) = (   0.3125000  -0.3125000   0.6875000), wk =   0.0234375
        k(   38) = (   0.1875000  -0.1875000   0.5625000), wk =   0.0234375
        k(   39) = (  -0.1875000   0.4375000   0.1875000), wk =   0.0234375
        k(   40) = (  -0.3125000   0.5625000   0.0625000), wk =   0.0468750
        k(   41) = (   0.5625000  -0.3125000   0.9375000), wk =   0.0468750
        k(   42) = (   0.4375000  -0.1875000   0.8125000), wk =   0.0468750
        k(   43) = (   0.3125000  -0.0625000   0.6875000), wk =   0.0468750
        k(   44) = (  -0.1875000   0.6875000   0.1875000), wk =   0.0234375
        k(   45) = (   0.6875000  -0.1875000   1.0625000), wk =   0.0468750
        k(   46) = (   0.5625000  -0.0625000   0.9375000), wk =   0.0468750
        k(   47) = (   0.4375000   0.0625000   0.8125000), wk =   0.0468750
        k(   48) = (  -0.1875000  -1.0625000   0.1875000), wk =   0.0234375
        k(   49) = (  -0.3125000  -0.9375000   0.0625000), wk =   0.0468750
        k(   50) = (  -0.1875000  -0.8125000   0.1875000), wk =   0.0234375
        k(   51) = (  -0.3125000   0.3125000   0.3125000), wk =   0.0078125
        k(   52) = (  -0.4375000   0.4375000   0.1875000), wk =   0.0234375
        k(   53) = (   0.4375000  -0.4375000   1.0625000), wk =   0.0234375
        k(   54) = (   0.3125000  -0.3125000   0.9375000), wk =   0.0234375
        k(   55) = (  -0.3125000   0.5625000   0.3125000), wk =   0.0234375
        k(   56) = (   0.5625000  -0.3125000   1.1875000), wk =   0.0468750
        k(   57) = (   0.4375000  -0.1875000   1.0625000), wk =   0.0468750
        k(   58) = (  -0.3125000  -1.1875000   0.3125000), wk =   0.0234375
        k(   59) = (  -0.4375000   0.4375000   0.4375000), wk =   0.0078125
        k(   60) = (   0.4375000  -0.4375000   1.3125000), wk =   0.0234375

     Dense  grid:    17573 G-vectors     FFT dimensions: (  40,  40,  40)

     Smooth grid:     6231 G-vectors     FFT dimensions: (  25,  25,  25)

     Largest allocated arrays     est. size (Mb)     dimensions
        Kohn-Sham Wavefunctions         0.01 Mb     (     104,    9)
        NL pseudopotentials             0.02 Mb     (     104,   13)
        Each V/rho on FFT grid          0.12 Mb     (    8000)
        Each G-vector array             0.02 Mb     (    2197)
        G-vector shells                 0.00 Mb     (     218)
     Largest temporary arrays     est. size (Mb)     dimensions
        Auxiliary wavefunctions         0.06 Mb     (     104,   36)
        Each subspace H/S matrix        0.00 Mb     (      18,   18)
        Each <psi_i|beta_j> matrix      0.00 Mb     (      13,    9)
        Arrays for rho mixing           0.98 Mb     (    8000,    8)

     Initial potential from superposition of free atoms

     starting charge    8.99371, renormalised to    9.00000
     Starting wfc are    5 randomized atomic wfcs +    4 random wfc

     total cpu time spent up to now is        0.2 secs

     per-process dynamical memory:    10.5 Mb

     Self-consistent Calculation

     iteration #  1     ecut=    40.00 Ry     beta=0.70
     Davidson diagonalization with overlap
     ethr =  1.00E-02,  avg # of iterations =  5.3

     Threshold (ethr) on eigenvalues was too large:
     Diagonalizing with lowered threshold

     Davidson diagonalization with overlap
     ethr =  1.31E-05,  avg # of iterations =  3.2

     total cpu time spent up to now is        0.4 secs

     total energy              =     -95.09889612 Ry
     Harris-Foulkes estimate   =     -95.09931083 Ry
     estimated scf accuracy    <       0.00117407 Ry

     iteration #  2     ecut=    40.00 Ry     beta=0.70
     Davidson diagonalization with overlap
     ethr =  1.30E-05,  avg # of iterations =  2.0

     total cpu time spent up to now is        0.4 secs

     total energy              =     -95.09904312 Ry
     Harris-Foulkes estimate   =     -95.09907751 Ry
     estimated scf accuracy    <       0.00013112 Ry

     iteration #  3     ecut=    40.00 Ry     beta=0.70
     Davidson diagonalization with overlap
     ethr =  1.46E-06,  avg # of iterations =  2.0

     total cpu time spent up to now is        0.4 secs

     total energy              =     -95.09905914 Ry
     Harris-Foulkes estimate   =     -95.09906042 Ry
     estimated scf accuracy    <       0.00000766 Ry

     iteration #  4     ecut=    40.00 Ry     beta=0.70
     Davidson diagonalization with overlap
     ethr =  8.52E-08,  avg # of iterations =  1.0

     total cpu time spent up to now is        0.5 secs

     total energy              =     -95.09905984 Ry
     Harris-Foulkes estimate   =     -95.09905978 Ry
     estimated scf accuracy    <       0.00000001 Ry

     iteration #  5     ecut=    40.00 Ry     beta=0.70
     Davidson diagonalization with overlap
     ethr =  1.16E-10,  avg # of iterations =  3.0

     total cpu time spent up to now is        0.5 secs

     total energy              =     -95.09905988 Ry
     Harris-Foulkes estimate   =     -95.09905987 Ry
     estimated scf accuracy    <          1.6E-09 Ry

     iteration #  6     ecut=    40.00 Ry     beta=0.70
     Davidson diagonalization with overlap
     ethr =  1.79E-11,  avg # of iterations =  1.6

     total cpu time spent up to now is        0.5 secs

     End of self-consistent calculation

          k =-0.0625 0.0625 0.0625 (   773 PWs)   bands (ev):

   -49.7157 -21.5922 -21.5885 -21.5885  -0.7818  15.0492  16.1569  16.1569
    18.1458

          k =-0.1875 0.1875-0.0625 (   784 PWs)   bands (ev):

   -49.7143 -21.6106 -21.5938 -21.5900  -0.3514  12.6472  14.5455  16.5370
    18.2981

          k =-0.3125 0.3125-0.1875 (   784 PWs)   bands (ev):

   -49.7114 -21.6473 -21.5999 -21.5947   0.7039   9.2996  13.9194  16.0593
    17.5779

          k =-0.4375 0.4375-0.3125 (   781 PWs)   bands (ev):

   -49.7088 -21.6800 -21.6040 -21.5999   2.3331   6.3223  13.7685  15.2958
    17.0700

          k = 0.4375-0.4375 0.5625 (   783 PWs)   bands (ev):

   -49.7080 -21.6899 -21.6041 -21.6026   3.6273   4.6911  14.0099  14.7279
    16.6309

          k = 0.3125-0.3125 0.4375 (   784 PWs)   bands (ev):

   -49.7095 -21.6710 -21.6012 -21.6002   1.7311   7.2619  14.5065  14.5417
    16.7666

          k = 0.1875-0.1875 0.3125 (   794 PWs)   bands (ev):

   -49.7124 -21.6344 -21.5967 -21.5945   0.2852  10.3939  14.7596  15.1408
    17.5290

          k = 0.0625-0.0625 0.1875 (   787 PWs)   bands (ev):

   -49.7150 -21.6008 -21.5914 -21.5905  -0.5660  13.8427  15.3492  15.7053
    17.8537

          k =-0.0625 0.3125 0.0625 (   787 PWs)   bands (ev):

   -49.7136 -21.6145 -21.5963 -21.5955  -0.1380  12.7206  14.4566  14.6721
    16.0871

          k =-0.1875 0.4375-0.0625 (   786 PWs)   bands (ev):

   -49.7112 -21.6393 -21.6058 -21.5992   0.7039  10.6038  12.5230  14.5609
    15.5738

          k =-0.3125 0.5625-0.1875 (   785 PWs)   bands (ev):

   -49.7086 -21.6680 -21.6134 -21.6046   2.1346   7.6066  11.9369  13.5064
    15.8396

          k = 0.5625-0.3125 0.6875 (   781 PWs)   bands (ev):

   -49.7073 -21.6823 -21.6183 -21.6067   3.9984   5.0871  11.5223  13.2727
    16.2386

          k = 0.4375-0.1875 0.5625 (   783 PWs)   bands (ev):

   -49.7080 -21.6741 -21.6187 -21.6031   2.7293   6.6823  11.2617  13.9094
    17.1117

          k = 0.3125-0.0625 0.4375 (   787 PWs)   bands (ev):

   -49.7104 -21.6494 -21.6119 -21.5971   1.1181   9.5224  11.5175  15.1522
    17.2099

          k = 0.1875 0.0625 0.3125 (   787 PWs)   bands (ev):

   -49.7130 -21.6243 -21.5990 -21.5931   0.0741  11.5431  13.5214  15.9813
    16.9219

          k =-0.0625 0.5625 0.0625 (   793 PWs)   bands (ev):

   -49.7097 -21.6492 -21.6102 -21.6098   1.3240  10.9520  11.7209  13.0437
    13.4878

          k =-0.1875 0.6875-0.0625 (   778 PWs)   bands (ev):

   -49.7076 -21.6657 -21.6210 -21.6144   2.5361   9.1821  10.0086  12.0595
    14.2185

          k = 0.6875-0.1875 0.8125 (   776 PWs)   bands (ev):

   -49.7063 -21.6712 -21.6353 -21.6156   4.2641   6.6266   8.9985  11.9318
    14.7969

          k = 0.5625-0.0625 0.6875 (   780 PWs)   bands (ev):

   -49.7064 -21.6642 -21.6453 -21.6106   4.2542   6.5972   8.4436  12.5521
    15.6427

          k = 0.4375 0.0625 0.5625 (   781 PWs)   bands (ev):

   -49.7080 -21.6642 -21.6283 -21.6032   2.5330   7.8663   9.7930  13.7385
    16.9613

          k = 0.3125 0.1875 0.4375 (   786 PWs)   bands (ev):

   -49.7101 -21.6593 -21.6057 -21.5983   1.3236   8.3648  12.9635  15.0239
    16.7460

          k =-0.0625 0.8125 0.0625 (   780 PWs)   bands (ev):

   -49.7064 -21.6764 -21.6229 -21.6211   3.5213   8.0468  10.0586  12.2578
    12.4937

          k = 0.8125-0.0625 0.9375 (   772 PWs)   bands (ev):

   -49.7056 -21.6783 -21.6308 -21.6233   5.0223   6.5837   8.8251  11.3150
    13.6689

          k = 0.6875 0.0625 0.8125 (   773 PWs)   bands (ev):

   -49.7057 -21.6674 -21.6451 -21.6179   5.4738   6.3091   7.6545  11.6942
    14.5951

          k = 0.5625 0.1875 0.6875 (   777 PWs)   bands (ev):

   -49.7067 -21.6749 -21.6313 -21.6093   4.3661   5.4695   9.9247  12.7733
    15.8409

          k = 0.4375 0.3125 0.5625 (   785 PWs)   bands (ev):

   -49.7080 -21.6841 -21.6092 -21.6030   3.1129   5.5742  12.8540  14.2521
    16.8334

          k =-0.0625-0.9375 0.0625 (   776 PWs)   bands (ev):

   -49.7056 -21.6825 -21.6259 -21.6238   4.8436   6.4406   9.8563  12.1016
    12.3028

          k =-0.1875-0.8125-0.0625 (   779 PWs)   bands (ev):

   -49.7063 -21.6741 -21.6273 -21.6203   3.7123   8.0902   9.0784  11.5475
    13.8513

          k =-0.3125-0.6875-0.1875 (   786 PWs)   bands (ev):

   -49.7073 -21.6721 -21.6237 -21.6111   3.1231   7.0294  10.5662  12.4673
    15.2061

          k =-0.0625-0.6875 0.0625 (   785 PWs)   bands (ev):

   -49.7078 -21.6647 -21.6174 -21.6162   2.3373   9.7641  10.4892  12.5713
    12.8803

          k =-0.1875-0.5625-0.0625 (   787 PWs)   bands (ev):

   -49.7094 -21.6538 -21.6135 -21.6069   1.5283   9.8342  11.4098  13.0275
    14.7782

          k =-0.0625-0.4375 0.0625 (   793 PWs)   bands (ev):

   -49.7117 -21.6314 -21.6028 -21.6025   0.4951  11.7584  13.4168  13.6749
    14.4644

          k =-0.1875 0.1875 0.1875 (   794 PWs)   bands (ev):

   -49.7136 -21.6209 -21.5924 -21.5924  -0.1380  11.4903  15.6652  15.6652
    17.3500

          k =-0.3125 0.3125 0.0625 (   790 PWs)   bands (ev):

   -49.7118 -21.6369 -21.6046 -21.5933   0.4951  10.4494  12.4769  16.7144
    17.5771

          k =-0.4375 0.4375-0.0625 (   785 PWs)   bands (ev):

   -49.7092 -21.6584 -21.6196 -21.5985   1.7311   8.6054  10.5964  15.2681
    16.7529

          k = 0.4375-0.4375 0.8125 (   781 PWs)   bands (ev):

   -49.7074 -21.6767 -21.6248 -21.6049   3.4979   5.9464  10.5576  14.1282
    15.5016

          k = 0.3125-0.3125 0.6875 (   782 PWs)   bands (ev):

   -49.7073 -21.6785 -21.6199 -21.6087   3.5000   5.9462  11.1273  13.4948
    14.7844

          k = 0.1875-0.1875 0.5625 (   791 PWs)   bands (ev):

   -49.7091 -21.6601 -21.6105 -21.6080   1.7316   8.6895  12.1109  13.3501
    14.6329

          k =-0.1875 0.4375 0.1875 (   786 PWs)   bands (ev):

   -49.7108 -21.6481 -21.6020 -21.6009   0.9115   9.4562  13.7644  13.9783
    15.8562

          k =-0.3125 0.5625 0.0625 (   781 PWs)   bands (ev):

   -49.7088 -21.6596 -21.6199 -21.6039   1.9337   8.7719  10.6309  13.2717
    16.5603

          k = 0.5625-0.3125 0.9375 (   777 PWs)   bands (ev):

   -49.7069 -21.6661 -21.6365 -21.6104   3.5091   7.3078   9.0890  11.9534
    17.7951

          k = 0.4375-0.1875 0.8125 (   777 PWs)   bands (ev):

   -49.7063 -21.6699 -21.6379 -21.6146   4.7372   5.8296   9.2739  11.3124
    16.7920

          k = 0.3125-0.0625 0.6875 (   782 PWs)   bands (ev):

   -49.7073 -21.6666 -21.6278 -21.6121   2.9297   8.1920   9.6911  11.7151
    16.0331

          k =-0.1875 0.6875 0.1875 (   779 PWs)   bands (ev):

   -49.7075 -21.6684 -21.6213 -21.6134   2.7334   8.0842  10.3752  12.8806
    13.8176

          k = 0.6875-0.1875 1.0625 (   771 PWs)   bands (ev):

   -49.7062 -21.6698 -21.6345 -21.6192   4.0885   7.7148   8.5472  10.7773
    15.6753

          k = 0.5625-0.0625 0.9375 (   769 PWs)   bands (ev):

   -49.7056 -21.6606 -21.6487 -21.6237   5.8301   6.6544   7.4578   9.7852
    17.5555

          k = 0.4375 0.0625 0.8125 (   775 PWs)   bands (ev):

   -49.7060 -21.6642 -21.6436 -21.6182   4.6332   6.9258   8.3607  10.5221
    17.7296

          k =-0.1875-1.0625 0.1875 (   771 PWs)   bands (ev):

   -49.7056 -21.6744 -21.6375 -21.6198   5.1916   6.6120   7.9746  12.4143
    13.0560

          k =-0.3125-0.9375 0.0625 (   772 PWs)   bands (ev):

   -49.7056 -21.6705 -21.6387 -21.6235   5.3698   6.7879   7.8705  10.3965
    15.4954

          k =-0.1875-0.8125 0.1875 (   777 PWs)   bands (ev):

   -49.7063 -21.6729 -21.6313 -21.6176   3.9000   7.5516   8.8041  12.5693
    13.3059

          k =-0.3125 0.3125 0.3125 (   775 PWs)   bands (ev):

   -49.7106 -21.6601 -21.5974 -21.5974   1.1181   8.2004  15.2661  15.2661
    16.7422

          k =-0.4375 0.4375 0.1875 (   788 PWs)   bands (ev):

   -49.7091 -21.6688 -21.6116 -21.5990   1.9332   7.4332  12.0800  15.3087
    16.9156

          k = 0.4375-0.4375 1.0625 (   779 PWs)   bands (ev):

   -49.7072 -21.6657 -21.6373 -21.6054   3.3142   7.1376   9.0488  13.9972
    15.2653

          k = 0.3125-0.3125 0.9375 (   781 PWs)   bands (ev):

   -49.7060 -21.6636 -21.6494 -21.6132   5.0919   6.1154   7.9266  13.0441
    14.0067

          k =-0.3125 0.5625 0.3125 (   783 PWs)   bands (ev):

   -49.7084 -21.6776 -21.6079 -21.6051   2.5320   6.5051  12.8859  13.9454
    15.6049

          k = 0.5625-0.3125 1.1875 (   782 PWs)   bands (ev):

   -49.7070 -21.6746 -21.6273 -21.6092   3.6907   6.1276  10.4136  12.3209
    17.1403

          k = 0.4375-0.1875 1.0625 (   774 PWs)   bands (ev):

   -49.7059 -21.6611 -21.6498 -21.6176   5.2777   6.2862   7.9634  10.9184
    16.6113

          k =-0.3125-1.1875 0.3125 (   779 PWs)   bands (ev):

   -49.7065 -21.6735 -21.6344 -21.6116   4.5544   5.6475   9.4194  13.1942
    14.2624

          k =-0.4375 0.4375 0.4375 (   778 PWs)   bands (ev):

   -49.7084 -21.6877 -21.6011 -21.6011   2.9185   5.3834  15.0859  15.0859
    16.5458

          k = 0.4375-0.4375 1.3125 (   782 PWs)   bands (ev):

   -49.7076 -21.6858 -21.6125 -21.6038   3.8125   4.8911  12.2735  14.3814
    15.9703

     the Fermi energy is     3.1501 ev

!    total energy              =     -95.09905988 Ry
     Harris-Foulkes estimate   =     -95.09905988 Ry
     estimated scf accuracy    <          9.5E-11 Ry

     The total energy is the sum of the following terms:

     one-electron contribution =     -81.00178034 Ry
     hartree contribution      =      41.43381359 Ry
     xc contribution           =     -14.31315648 Ry
     ewald contribution        =     -41.21796093 Ry
     smearing contrib. (-TS)   =       0.00002429 Ry

     convergence has been achieved in   6 iterations


     entering subroutine stress ...

          total   stress  (Ry/bohr**3)                   (kbar)     P=   39.39
   0.00026777  -0.00000000   0.00000000         39.39     -0.00      0.00
  -0.00000000   0.00026777  -0.00000000         -0.00     39.39     -0.00
  -0.00000000  -0.00000000   0.00026777         -0.00     -0.00     39.39


     Writing output data file na.fcc.save
 
     init_run     :      0.08s CPU      0.09s WALL (       1 calls)
     electrons    :      0.31s CPU      0.34s WALL (       1 calls)
     stress       :      0.03s CPU      0.03s WALL (       1 calls)

     Called by init_run:
     wfcinit      :      0.00s CPU      0.01s WALL (       1 calls)
     potinit      :      0.01s CPU      0.01s WALL (       1 calls)

     Called by electrons:
     c_bands      :      0.16s CPU      0.17s WALL (       7 calls)
     sum_band     :      0.08s CPU      0.09s WALL (       7 calls)
     v_of_rho     :      0.04s CPU      0.03s WALL (       7 calls)
     newd         :      0.03s CPU      0.03s WALL (       7 calls)
     mix_rho      :      0.00s CPU      0.00s WALL (       7 calls)

     Called by c_bands:
     init_us_2    :      0.00s CPU      0.00s WALL (      48 calls)
     cegterg      :      0.15s CPU      0.15s WALL (      21 calls)

     Called by sum_band:
     sum_band:bec :      0.00s CPU      0.00s WALL (      21 calls)
     addusdens    :      0.04s CPU      0.04s WALL (       7 calls)

     Called by *egterg:
     h_psi        :      0.06s CPU      0.06s WALL (      97 calls)
     s_psi        :      0.00s CPU      0.00s WALL (      97 calls)
     g_psi        :      0.00s CPU      0.00s WALL (      73 calls)
     cdiaghg      :      0.08s CPU      0.08s WALL (      91 calls)

     Called by h_psi:
     add_vuspsi   :      0.00s CPU      0.00s WALL (      97 calls)

     General routines
     calbec       :      0.00s CPU      0.00s WALL (     121 calls)
     fft          :      0.02s CPU      0.02s WALL (     117 calls)
     ffts         :      0.00s CPU      0.00s WALL (      14 calls)
     fftw         :      0.06s CPU      0.06s WALL (    1271 calls)
     interpolate  :      0.00s CPU      0.00s WALL (      14 calls)
     davcio       :      0.00s CPU      0.01s WALL (       3 calls)
 
     Parallel routines
     fft_scatter  :      0.04s CPU      0.03s WALL (    1402 calls)
 
     PWSCF        :     0.63s CPU         2.91s WALL

 
   This run was terminated on:   1: 7:18   7Apr2018            

=------------------------------------------------------------------------------=
   JOB DONE.
=------------------------------------------------------------------------------=
Application 30444042 resources: utime ~557s, stime ~25s, Rss ~26376, inblocks ~1441230, outblocks ~1416529
