
     Program PWSCF v.6.1 (svn rev. 13369) starts on 29Jan2018 at 17: 4:39 

     This program is part of the open-source Quantum ESPRESSO suite
     for quantum simulation of materials; please cite
         "P. Giannozzi et al., J. Phys.:Condens. Matter 21 395502 (2009);
          URL http://www.quantum-espresso.org", 
     in publications or presentations arising from this work. More details at
     http://www.quantum-espresso.org/quote

     Parallel version (MPI), running on    64 processors
     K-points division:     npool     =       4
     R & G space division:  proc/nbgrp/npool/nimage =      16
     Waiting for input...
     Reading input from standard input

     Current dimensions of program PWSCF are:
     Max number of different atomic species (ntypx) = 10
     Max number of k-points (npk) =  80000
     Max angular momentum in pseudopotentials (lmaxx) =  3

     Subspace diagonalization in iterative solution of the eigenvalue problem:
     a serial algorithm will be used


     Parallelization info
     --------------------
     sticks:   dense  smooth     PW     G-vecs:    dense   smooth      PW
     Min          59      29     10                 1221      427      84
     Max          60      30     11                 1225      430      86
     Sum         955     475    163                19579     6855    1363



     bravais-lattice index     =            2
     lattice parameter (alat)  =       9.2902  a.u.
     unit-cell volume          =     200.4522 (a.u.)^3
     number of atoms/cell      =            1
     number of atomic types    =            1
     number of electrons       =         9.00
     number of Kohn-Sham states=            9
     kinetic-energy cutoff     =      40.0000  Ry
     charge density cutoff     =     320.0000  Ry
     convergence threshold     =      1.0E-10
     mixing beta               =       0.7000
     number of iterations used =            8  plain     mixing
     Exchange-correlation      = SLA  PW   PBE  PBE ( 1  4  3  4 0 0)

     celldm(1)=   9.290169  celldm(2)=   0.000000  celldm(3)=   0.000000
     celldm(4)=   0.000000  celldm(5)=   0.000000  celldm(6)=   0.000000

     crystal axes: (cart. coord. in units of alat)
               a(1) = (  -0.500000   0.000000   0.500000 )  
               a(2) = (   0.000000   0.500000   0.500000 )  
               a(3) = (  -0.500000   0.500000   0.000000 )  

     reciprocal axes: (cart. coord. in units 2 pi/alat)
               b(1) = ( -1.000000 -1.000000  1.000000 )  
               b(2) = (  1.000000  1.000000  1.000000 )  
               b(3) = ( -1.000000  1.000000 -1.000000 )  


     PseudoPot. # 1 for Na read from file:
     /home/s1333534/quantum_espresso/qe-6.1/pseudo/Na_pbe_v1.uspp.F.UPF
     MD5 check sum: 76a99c7e9422403d3e93cbc85ab7bccb
     Pseudo is Ultrasoft, Zval =  9.0
     Generated by new atomic code, or converted to UPF format
     Using radial grid of  819 points,  5 beta functions with: 
                l(1) =   0
                l(2) =   0
                l(3) =   1
                l(4) =   1
                l(5) =   2
     Q(r) pseudized with  8 coefficients,  rinner =    1.250   1.250   1.250
                                                       1.250   1.250

     atomic species   valence    mass     pseudopotential
        Na             9.00    22.99000     Na( 1.00)

     48 Sym. Ops., with inversion, found



   Cartesian axes

     site n.     atom                  positions (alat units)
         1           Na  tau(   1) = (   0.0000000   0.0000000   0.0000000  )

     number of k points=   770  Marzari-Vanderbilt smearing, width (Ry)=  0.0200

     Number of k-points >= 100: set verbosity='high' to print them.

     Dense  grid:    19579 G-vectors     FFT dimensions: (  40,  40,  40)

     Smooth grid:     6855 G-vectors     FFT dimensions: (  27,  27,  27)

     Estimated max dynamical RAM per process >       2.34MB

     Estimated total allocated dynamical RAM >     149.52MB

     Initial potential from superposition of free atoms

     starting charge    8.99371, renormalised to    9.00000
     Starting wfc are    5 randomized atomic wfcs +    4 random wfc

     total cpu time spent up to now is        1.2 secs

     per-process dynamical memory:     8.5 Mb

     Self-consistent Calculation

     iteration #  1     ecut=    40.00 Ry     beta=0.70
     Davidson diagonalization with overlap
     ethr =  1.00E-02,  avg # of iterations =  5.3

     Threshold (ethr) on eigenvalues was too large:
     Diagonalizing with lowered threshold

     Davidson diagonalization with overlap
     ethr =  1.16E-05,  avg # of iterations =  3.6

     total cpu time spent up to now is        8.0 secs

     total energy              =     -95.10279484 Ry
     Harris-Foulkes estimate   =     -95.10312169 Ry
     estimated scf accuracy    <       0.00104092 Ry

     iteration #  2     ecut=    40.00 Ry     beta=0.70
     Davidson diagonalization with overlap
     ethr =  1.16E-05,  avg # of iterations =  2.0

     total cpu time spent up to now is       10.0 secs

     total energy              =     -95.10292266 Ry
     Harris-Foulkes estimate   =     -95.10295125 Ry
     estimated scf accuracy    <       0.00011575 Ry

     iteration #  3     ecut=    40.00 Ry     beta=0.70
     Davidson diagonalization with overlap
     ethr =  1.29E-06,  avg # of iterations =  2.1

     total cpu time spent up to now is       12.2 secs

     total energy              =     -95.10293655 Ry
     Harris-Foulkes estimate   =     -95.10293773 Ry
     estimated scf accuracy    <       0.00000686 Ry

     iteration #  4     ecut=    40.00 Ry     beta=0.70
     Davidson diagonalization with overlap
     ethr =  7.62E-08,  avg # of iterations =  1.0

     total cpu time spent up to now is       14.1 secs

     total energy              =     -95.10293719 Ry
     Harris-Foulkes estimate   =     -95.10293713 Ry
     estimated scf accuracy    <          9.4E-09 Ry

     iteration #  5     ecut=    40.00 Ry     beta=0.70
     Davidson diagonalization with overlap
     ethr =  1.04E-10,  avg # of iterations =  3.0

     total cpu time spent up to now is       16.8 secs

     total energy              =     -95.10293722 Ry
     Harris-Foulkes estimate   =     -95.10293722 Ry
     estimated scf accuracy    <          1.5E-09 Ry

     iteration #  6     ecut=    40.00 Ry     beta=0.70
     Davidson diagonalization with overlap
     ethr =  1.72E-11,  avg # of iterations =  1.6

     total cpu time spent up to now is       18.8 secs

     End of self-consistent calculation

     Number of k-points >= 100: set verbosity='high' to print the bands.

     the Fermi energy is     2.6442 ev

!    total energy              =     -95.10293723 Ry
     Harris-Foulkes estimate   =     -95.10293722 Ry
     estimated scf accuracy    <          6.6E-11 Ry

     The total energy is the sum of the following terms:

     one-electron contribution =     -83.16540050 Ry
     hartree contribution      =      42.33652049 Ry
     xc contribution           =     -14.29909288 Ry
     ewald contribution        =     -39.97492515 Ry
     smearing contrib. (-TS)   =      -0.00003917 Ry

     convergence has been achieved in   6 iterations


     Computing stress (Cartesian axis) and pressure

          total   stress  (Ry/bohr**3)                   (kbar)     P=   22.34
   0.00015184   0.00000000  -0.00000000         22.34      0.00     -0.00
   0.00000000   0.00015184   0.00000000          0.00     22.34      0.00
  -0.00000000   0.00000000   0.00015184         -0.00      0.00     22.34


     Writing output data file na.fcc.save

     init_run     :      0.77s CPU      0.83s WALL (       1 calls)
     electrons    :     16.46s CPU     17.62s WALL (       1 calls)
     stress       :      0.35s CPU      0.36s WALL (       1 calls)

     Called by init_run:
     wfcinit      :      0.52s CPU      0.57s WALL (       1 calls)
     potinit      :      0.11s CPU      0.11s WALL (       1 calls)

     Called by electrons:
     c_bands      :     14.25s CPU     15.28s WALL (       7 calls)
     sum_band     :      2.06s CPU      2.18s WALL (       7 calls)
     v_of_rho     :      0.08s CPU      0.08s WALL (       7 calls)
     newd         :      0.06s CPU      0.06s WALL (       7 calls)
     mix_rho      :      0.01s CPU      0.01s WALL (       7 calls)

     Called by c_bands:
     init_us_2    :      0.20s CPU      0.21s WALL (    3088 calls)
     cegterg      :     12.48s CPU     13.48s WALL (    1351 calls)

     Called by sum_band:
     sum_band:bec :      0.01s CPU      0.02s WALL (    1351 calls)
     addusdens    :      0.06s CPU      0.07s WALL (       7 calls)

     Called by *egterg:
     h_psi        :      9.19s CPU      9.78s WALL (    5233 calls)
     s_psi        :      0.09s CPU      0.10s WALL (    5233 calls)
     g_psi        :      0.02s CPU      0.03s WALL (    3689 calls)
     cdiaghg      :      2.15s CPU      2.34s WALL (    4847 calls)

     Called by h_psi:
     h_psi:pot    :      9.15s CPU      9.74s WALL (    5233 calls)
     h_psi:calbec :      0.42s CPU      0.44s WALL (    5233 calls)
     vloc_psi     :      8.58s CPU      9.14s WALL (    5233 calls)
     add_vuspsi   :      0.10s CPU      0.11s WALL (    5233 calls)

     General routines
     calbec       :      0.55s CPU      0.59s WALL (    6777 calls)
     fft          :      0.10s CPU      0.11s WALL (     117 calls)
     ffts         :      0.01s CPU      0.01s WALL (      14 calls)
     fftw         :      9.20s CPU      9.79s WALL (   78263 calls)
     interpolate  :      0.03s CPU      0.03s WALL (      14 calls)
     davcio       :      0.00s CPU      0.02s WALL (     193 calls)

     Parallel routines
     fft_scatter  :      4.37s CPU      4.66s WALL (   78394 calls)

     PWSCF        :    20.78s CPU        22.20s WALL


   This run was terminated on:  17: 5: 2  29Jan2018            

=------------------------------------------------------------------------------=
   JOB DONE.
=------------------------------------------------------------------------------=
