
     Program PHONON v.6.1 (svn rev. 13369) starts on 29Jan2018 at 17: 5: 2 

     This program is part of the open-source Quantum ESPRESSO suite
     for quantum simulation of materials; please cite
         "P. Giannozzi et al., J. Phys.:Condens. Matter 21 395502 (2009);
          URL http://www.quantum-espresso.org", 
     in publications or presentations arising from this work. More details at
     http://www.quantum-espresso.org/quote

     Parallel version (MPI), running on    64 processors
     K-points division:     npool     =       4
     R & G space division:  proc/nbgrp/npool/nimage =      16

     Reading data from directory:
     ./na.fcc.save

   Info: using nr1, nr2, nr3 values from input

   Info: using nr1, nr2, nr3 values from input

     IMPORTANT: XC functional enforced from input :
     Exchange-correlation      = SLA  PW   PBE  PBE ( 1  4  3  4 0 0)
     Any further DFT definition will be discarded
     Please, verify this is what you really want


     Parallelization info
     --------------------
     sticks:   dense  smooth     PW     G-vecs:    dense   smooth      PW
     Min          59      29     10                 1221      427      84
     Max          60      30     11                 1225      430      86
     Sum         955     475    163                19579     6855    1363



     Dynamical matrices for ( 6, 6, 6)  uniform grid of q-points
     (  16q-points):
       N         xq(1)         xq(2)         xq(3) 
       1   0.000000000   0.000000000   0.000000000
       2  -0.166666667   0.166666667  -0.166666667
       3  -0.333333333   0.333333333  -0.333333333
       4   0.500000000  -0.500000000   0.500000000
       5   0.000000000   0.333333333   0.000000000
       6  -0.166666667   0.500000000  -0.166666667
       7   0.666666667  -0.333333333   0.666666667
       8   0.500000000  -0.166666667   0.500000000
       9   0.333333333   0.000000000   0.333333333
      10   0.000000000   0.666666667   0.000000000
      11   0.833333333  -0.166666667   0.833333333
      12   0.666666667  -0.000000000   0.666666667
      13   0.000000000  -1.000000000   0.000000000
      14   0.666666667  -0.333333333   1.000000000
      15   0.500000000  -0.166666667   0.833333333
      16  -0.333333333  -1.000000000   0.000000000

     Calculation of q =    0.0000000   0.0000000   0.0000000

                                                                                

     bravais-lattice index     =            2
     lattice parameter (alat)  =       9.2902  a.u.
     unit-cell volume          =     200.4522 (a.u.)^3
     number of atoms/cell      =            1
     number of atomic types    =            1
     kinetic-energy cut-off    =      40.0000  Ry
     charge density cut-off    =     320.0000  Ry
     convergence threshold     =      1.0E-16
     beta                      =       0.7000
     number of iterations used =            4
     Exchange-correlation      = SLA  PW   PBE  PBE ( 1  4  3  4 0 0)


     celldm(1)=    9.29017  celldm(2)=    0.00000  celldm(3)=    0.00000
     celldm(4)=    0.00000  celldm(5)=    0.00000  celldm(6)=    0.00000

     crystal axes: (cart. coord. in units of alat)
               a(1) = ( -0.5000  0.0000  0.5000 )  
               a(2) = (  0.0000  0.5000  0.5000 )  
               a(3) = ( -0.5000  0.5000  0.0000 )  

     reciprocal axes: (cart. coord. in units 2 pi/alat)
               b(1) = ( -1.0000 -1.0000  1.0000 )  
               b(2) = (  1.0000  1.0000  1.0000 )  
               b(3) = ( -1.0000  1.0000 -1.0000 )  


     Atoms inside the unit cell: 

     Cartesian axes

     site n.  atom      mass           positions (alat units)
        1     Na  22.9900   tau(    1) = (    0.00000    0.00000    0.00000  )

     Computing dynamical matrix for 
                    q = (   0.0000000   0.0000000   0.0000000 )

     49 Sym.Ops. (with q -> -q+G )


     G cutoff =  699.5802  (   1225 G-vectors)     FFT grid: ( 40, 40, 40)
     G cutoff =  349.7901  (    430 G-vectors)  smooth grid: ( 27, 27, 27)

     number of k points=   770  Marzari-Vanderbilt smearing, width (Ry)=  0.0200

     PseudoPot. # 1 for Na read from file:
     /home/s1333534/quantum_espresso/qe-6.1/pseudo/Na_pbe_v1.uspp.F.UPF
     MD5 check sum: 76a99c7e9422403d3e93cbc85ab7bccb
     Pseudo is Ultrasoft, Zval =  9.0
     Generated by new atomic code, or converted to UPF format
     Using radial grid of  819 points,  5 beta functions with: 
                l(1) =   0
                l(2) =   0
                l(3) =   1
                l(4) =   1
                l(5) =   2
     Q(r) pseudized with  8 coefficients,  rinner =    1.250   1.250   1.250
                                                       1.250   1.250

     Mode symmetry, O_h (m-3m)  point group:


     Atomic displacements:
     There are   1 irreducible representations

     Representation     1      3 modes -T_1u G_15  G_4-  To be done



     Alpha used in Ewald sum =   2.8000
     PHONON       :     7.49s CPU         8.12s WALL



     Representation #  1 modes #   1  2  3

     Self-consistent Calculation

     Pert. #  1: Fermi energy shift (Ry) =    -1.0340E-25     1.5673E-38
     Pert. #  2: Fermi energy shift (Ry) =    -4.3082E-26    -8.6203E-38
     Pert. #  3: Fermi energy shift (Ry) =    -8.6165E-27     1.4106E-37

      iter #   1 total cpu time :    17.6 secs   av.it.:   5.4
      thresh= 1.000E-02 alpha_mix =  0.700 |ddv_scf|^2 =  1.152E-06

     Pert. #  1: Fermi energy shift (Ry) =    -3.4466E-26     1.4694E-39
     Pert. #  2: Fermi energy shift (Ry) =    -3.5328E-25    -1.3469E-39
     Pert. #  3: Fermi energy shift (Ry) =     2.4557E-25    -5.1428E-39

      iter #   2 total cpu time :    29.1 secs   av.it.:   8.4
      thresh= 1.073E-04 alpha_mix =  0.700 |ddv_scf|^2 =  2.195E-08

     Pert. #  1: Fermi energy shift (Ry) =     3.4466E-26     4.5918E-41
     Pert. #  2: Fermi energy shift (Ry) =     3.4466E-26    -1.3010E-40
     Pert. #  3: Fermi energy shift (Ry) =    -3.4466E-26    -3.0612E-41

      iter #   3 total cpu time :    40.4 secs   av.it.:   8.7
      thresh= 1.481E-05 alpha_mix =  0.700 |ddv_scf|^2 =  3.169E-10

     Pert. #  1: Fermi energy shift (Ry) =     1.2925E-26     7.6530E-42
     Pert. #  2: Fermi energy shift (Ry) =    -6.4623E-27     3.8265E-42
     Pert. #  3: Fermi energy shift (Ry) =     8.6165E-27    -1.9132E-42

      iter #   4 total cpu time :    51.4 secs   av.it.:   8.1
      thresh= 1.780E-06 alpha_mix =  0.700 |ddv_scf|^2 =  1.202E-12

     Pert. #  1: Fermi energy shift (Ry) =     0.0000E+00    -6.6963E-42
     Pert. #  2: Fermi energy shift (Ry) =    -2.5849E-26    -8.6096E-42
     Pert. #  3: Fermi energy shift (Ry) =    -2.1541E-26    -3.3482E-42

      iter #   5 total cpu time :    62.7 secs   av.it.:   8.4
      thresh= 1.096E-07 alpha_mix =  0.700 |ddv_scf|^2 =  3.160E-15

     Pert. #  1: Fermi energy shift (Ry) =    -1.7233E-26    -6.6963E-42
     Pert. #  2: Fermi energy shift (Ry) =    -2.1541E-26    -8.6096E-42
     Pert. #  3: Fermi energy shift (Ry) =     2.1541E-26    -3.3482E-42

      iter #   6 total cpu time :    74.0 secs   av.it.:   8.2
      thresh= 5.621E-09 alpha_mix =  0.700 |ddv_scf|^2 =  5.060E-17

     End of self-consistent calculation

     Convergence has been achieved 

     Number of q in the star =    1
     List of q in the star:
          1   0.000000000   0.000000000   0.000000000

     Diagonalizing the dynamical matrix

     q = (    0.000000000   0.000000000   0.000000000 ) 

 **************************************************************************
     freq (    1) =      -0.327939 [THz] =     -10.938883 [cm-1]
     freq (    2) =      -0.327939 [THz] =     -10.938883 [cm-1]
     freq (    3) =      -0.327939 [THz] =     -10.938883 [cm-1]
 **************************************************************************

     Mode symmetry, O_h (m-3m)  point group:

     freq (  1 -  3) =        -10.9  [cm-1]   --> T_1u G_15  G_4- I  

     Calculation of q =   -0.1666667   0.1666667  -0.1666667

   Info: using nr1, nr2, nr3 values from input

   Info: using nr1, nr2, nr3 values from input

     Parallelization info
     --------------------
     sticks:   dense  smooth     PW     G-vecs:    dense   smooth      PW
     Min          59      29     10                 1221      427      90
     Max          60      30     11                 1225      430      94
     Sum         955     475    163                19579     6855    1459



     bravais-lattice index     =            2
     lattice parameter (alat)  =       9.2902  a.u.
     unit-cell volume          =     200.4522 (a.u.)^3
     number of atoms/cell      =            1
     number of atomic types    =            1
     number of electrons       =         9.00
     number of Kohn-Sham states=            9
     kinetic-energy cutoff     =      40.0000  Ry
     charge density cutoff     =     320.0000  Ry
     Exchange-correlation      = SLA  PW   PBE  PBE ( 1  4  3  4 0 0)

     celldm(1)=   9.290169  celldm(2)=   0.000000  celldm(3)=   0.000000
     celldm(4)=   0.000000  celldm(5)=   0.000000  celldm(6)=   0.000000

     crystal axes: (cart. coord. in units of alat)
               a(1) = (  -0.500000   0.000000   0.500000 )  
               a(2) = (   0.000000   0.500000   0.500000 )  
               a(3) = (  -0.500000   0.500000   0.000000 )  

     reciprocal axes: (cart. coord. in units 2 pi/alat)
               b(1) = ( -1.000000 -1.000000  1.000000 )  
               b(2) = (  1.000000  1.000000  1.000000 )  
               b(3) = ( -1.000000  1.000000 -1.000000 )  


     PseudoPot. # 1 for Na read from file:
     /home/s1333534/quantum_espresso/qe-6.1/pseudo/Na_pbe_v1.uspp.F.UPF
     MD5 check sum: 76a99c7e9422403d3e93cbc85ab7bccb
     Pseudo is Ultrasoft, Zval =  9.0
     Generated by new atomic code, or converted to UPF format
     Using radial grid of  819 points,  5 beta functions with: 
                l(1) =   0
                l(2) =   0
                l(3) =   1
                l(4) =   1
                l(5) =   2
     Q(r) pseudized with  8 coefficients,  rinner =    1.250   1.250   1.250
                                                       1.250   1.250

     atomic species   valence    mass     pseudopotential
        Na             9.00    22.99000     Na( 1.00)

     48 Sym. Ops., with inversion, found



   Cartesian axes

     site n.     atom                  positions (alat units)
         1           Na  tau(   1) = (   0.0000000   0.0000000   0.0000000  )

     number of k points= 11480  Marzari-Vanderbilt smearing, width (Ry)=  0.0200

     Number of k-points >= 100: set verbosity='high' to print them.

     Dense  grid:    19579 G-vectors     FFT dimensions: (  40,  40,  40)

     Smooth grid:     6855 G-vectors     FFT dimensions: (  27,  27,  27)

     Estimated max dynamical RAM per process >       0.67MB

     Estimated total allocated dynamical RAM >      43.02MB

     The potential is recalculated from file :
     ./_ph0/na.fcc.save/charge-density.dat

     Starting wfc are    5 atomic +    4 random wfc

     Band Structure Calculation
     Davidson diagonalization with overlap
     c_bands:  1 eigenvalues not converged

     ethr =  1.11E-10,  avg # of iterations = 18.3

     total cpu time spent up to now is      166.0 secs

     End of band structure calculation

     Number of k-points >= 100: set verbosity='high' to print the bands.

     the Fermi energy is     2.6442 ev

     Writing output data file na.fcc.save

                                                                                

     bravais-lattice index     =            2
     lattice parameter (alat)  =       9.2902  a.u.
     unit-cell volume          =     200.4522 (a.u.)^3
     number of atoms/cell      =            1
     number of atomic types    =            1
     kinetic-energy cut-off    =      40.0000  Ry
     charge density cut-off    =     320.0000  Ry
     convergence threshold     =      1.0E-16
     beta                      =       0.7000
     number of iterations used =            4
     Exchange-correlation      = SLA  PW   PBE  PBE ( 1  4  3  4 0 0)


     celldm(1)=    9.29017  celldm(2)=    0.00000  celldm(3)=    0.00000
     celldm(4)=    0.00000  celldm(5)=    0.00000  celldm(6)=    0.00000

     crystal axes: (cart. coord. in units of alat)
               a(1) = ( -0.5000  0.0000  0.5000 )  
               a(2) = (  0.0000  0.5000  0.5000 )  
               a(3) = ( -0.5000  0.5000  0.0000 )  

     reciprocal axes: (cart. coord. in units 2 pi/alat)
               b(1) = ( -1.0000 -1.0000  1.0000 )  
               b(2) = (  1.0000  1.0000  1.0000 )  
               b(3) = ( -1.0000  1.0000 -1.0000 )  


     Atoms inside the unit cell: 

     Cartesian axes

     site n.  atom      mass           positions (alat units)
        1     Na  22.9900   tau(    1) = (    0.00000    0.00000    0.00000  )

     Computing dynamical matrix for 
                    q = (  -0.1666667   0.1666667  -0.1666667 )

      6 Sym.Ops. (no q -> -q+G )


     G cutoff =  699.5802  (   1225 G-vectors)     FFT grid: ( 40, 40, 40)
     G cutoff =  349.7901  (    430 G-vectors)  smooth grid: ( 27, 27, 27)

     number of k points= 11480  Marzari-Vanderbilt smearing, width (Ry)=  0.0200

     PseudoPot. # 1 for Na read from file:
     /home/s1333534/quantum_espresso/qe-6.1/pseudo/Na_pbe_v1.uspp.F.UPF
     MD5 check sum: 76a99c7e9422403d3e93cbc85ab7bccb
     Pseudo is Ultrasoft, Zval =  9.0
     Generated by new atomic code, or converted to UPF format
     Using radial grid of  819 points,  5 beta functions with: 
                l(1) =   0
                l(2) =   0
                l(3) =   1
                l(4) =   1
                l(5) =   2
     Q(r) pseudized with  8 coefficients,  rinner =    1.250   1.250   1.250
                                                       1.250   1.250

     Mode symmetry, C_3v (3m)   point group:


     Atomic displacements:
     There are   2 irreducible representations

     Representation     1      1 modes -A_1  L_1  To be done

     Representation     2      2 modes -E    L_3  To be done



     Alpha used in Ewald sum =   2.8000
     PHONON       :  4m26.39s CPU     4m42.04s WALL



     Representation #  1 mode #   1

     Self-consistent Calculation

      iter #   1 total cpu time :   303.5 secs   av.it.:   5.7
      thresh= 1.000E-02 alpha_mix =  0.700 |ddv_scf|^2 =  3.258E-02

      iter #   2 total cpu time :   324.4 secs   av.it.:   6.6
      thresh= 1.000E-02 alpha_mix =  0.700 |ddv_scf|^2 =  4.914E+00

      iter #   3 total cpu time :   345.6 secs   av.it.:   6.6
      thresh= 1.000E-02 alpha_mix =  0.700 |ddv_scf|^2 =  3.007E-07

      iter #   4 total cpu time :   370.2 secs   av.it.:   8.2
      thresh= 5.483E-05 alpha_mix =  0.700 |ddv_scf|^2 =  6.155E-08

      iter #   5 total cpu time :   393.4 secs   av.it.:   7.5
      thresh= 2.481E-05 alpha_mix =  0.700 |ddv_scf|^2 =  4.324E-09

      iter #   6 total cpu time :   416.6 secs   av.it.:   7.5
      thresh= 6.576E-06 alpha_mix =  0.700 |ddv_scf|^2 =  2.571E-08

      iter #   7 total cpu time :   432.4 secs   av.it.:   4.2
      thresh= 1.603E-05 alpha_mix =  0.700 |ddv_scf|^2 =  5.639E-10

      iter #   8 total cpu time :   454.8 secs   av.it.:   7.4
      thresh= 2.375E-06 alpha_mix =  0.700 |ddv_scf|^2 =  3.872E-11

      iter #   9 total cpu time :   477.0 secs   av.it.:   7.3
      thresh= 6.223E-07 alpha_mix =  0.700 |ddv_scf|^2 =  1.251E-12

      iter #  10 total cpu time :   499.1 secs   av.it.:   7.2
      thresh= 1.119E-07 alpha_mix =  0.700 |ddv_scf|^2 =  1.202E-13

      iter #  11 total cpu time :   521.0 secs   av.it.:   7.2
      thresh= 3.467E-08 alpha_mix =  0.700 |ddv_scf|^2 =  6.036E-16

      iter #  12 total cpu time :   544.6 secs   av.it.:   7.8
      thresh= 2.457E-09 alpha_mix =  0.700 |ddv_scf|^2 =  6.738E-16

      iter #  13 total cpu time :   565.5 secs   av.it.:   6.6
      thresh= 2.596E-09 alpha_mix =  0.700 |ddv_scf|^2 =  4.774E-15

      iter #  14 total cpu time :   585.6 secs   av.it.:   6.4
      thresh= 6.910E-09 alpha_mix =  0.700 |ddv_scf|^2 =  5.002E-18

     End of self-consistent calculation

     Convergence has been achieved 


     Representation #  2 modes #   2  3

     Self-consistent Calculation

      iter #   1 total cpu time :   628.7 secs   av.it.:   5.5
      thresh= 1.000E-02 alpha_mix =  0.700 |ddv_scf|^2 =  2.636E-06

      iter #   2 total cpu time :   679.0 secs   av.it.:   8.5
      thresh= 1.624E-04 alpha_mix =  0.700 |ddv_scf|^2 =  4.900E-08

      iter #   3 total cpu time :   729.4 secs   av.it.:   8.6
      thresh= 2.214E-05 alpha_mix =  0.700 |ddv_scf|^2 =  8.277E-10

      iter #   4 total cpu time :   779.4 secs   av.it.:   8.4
      thresh= 2.877E-06 alpha_mix =  0.700 |ddv_scf|^2 =  3.085E-12

      iter #   5 total cpu time :   829.8 secs   av.it.:   8.6
      thresh= 1.757E-07 alpha_mix =  0.700 |ddv_scf|^2 =  7.016E-15

      iter #   6 total cpu time :   879.2 secs   av.it.:   8.2
      thresh= 8.376E-09 alpha_mix =  0.700 |ddv_scf|^2 =  1.619E-16

      iter #   7 total cpu time :   930.0 secs   av.it.:   8.6
      thresh= 1.273E-09 alpha_mix =  0.700 |ddv_scf|^2 =  1.579E-19

     End of self-consistent calculation

     Convergence has been achieved 

     Number of q in the star =    8
     List of q in the star:
          1  -0.166666667   0.166666667  -0.166666667
          2   0.166666667   0.166666667   0.166666667
          3  -0.166666667  -0.166666667  -0.166666667
          4   0.166666667  -0.166666667   0.166666667
          5   0.166666667  -0.166666667  -0.166666667
          6   0.166666667   0.166666667  -0.166666667
          7  -0.166666667  -0.166666667   0.166666667
          8  -0.166666667   0.166666667   0.166666667

     Diagonalizing the dynamical matrix

     q = (   -0.166666667   0.166666667  -0.166666667 ) 

 **************************************************************************
     freq (    1) =       0.963347 [THz] =      32.133791 [cm-1]
     freq (    2) =       0.963347 [THz] =      32.133791 [cm-1]
     freq (    3) =       2.665069 [THz] =      88.897118 [cm-1]
 **************************************************************************

     Mode symmetry, C_3v (3m)   point group:

     freq (  1 -  2) =         32.1  [cm-1]   --> E    L_3           
     freq (  3 -  3) =         88.9  [cm-1]   --> A_1  L_1           

     Calculation of q =   -0.3333333   0.3333333  -0.3333333

   Info: using nr1, nr2, nr3 values from input

   Info: using nr1, nr2, nr3 values from input

     Parallelization info
     --------------------
     sticks:   dense  smooth     PW     G-vecs:    dense   smooth      PW
     Min          59      29     11                 1221      427      99
     Max          60      30     13                 1225      430     101
     Sum         955     475    187                19579     6855    1591



     bravais-lattice index     =            2
     lattice parameter (alat)  =       9.2902  a.u.
     unit-cell volume          =     200.4522 (a.u.)^3
     number of atoms/cell      =            1
     number of atomic types    =            1
     number of electrons       =         9.00
     number of Kohn-Sham states=            9
     kinetic-energy cutoff     =      40.0000  Ry
     charge density cutoff     =     320.0000  Ry
     Exchange-correlation      = SLA  PW   PBE  PBE ( 1  4  3  4 0 0)

     celldm(1)=   9.290169  celldm(2)=   0.000000  celldm(3)=   0.000000
     celldm(4)=   0.000000  celldm(5)=   0.000000  celldm(6)=   0.000000

     crystal axes: (cart. coord. in units of alat)
               a(1) = (  -0.500000   0.000000   0.500000 )  
               a(2) = (   0.000000   0.500000   0.500000 )  
               a(3) = (  -0.500000   0.500000   0.000000 )  

     reciprocal axes: (cart. coord. in units 2 pi/alat)
               b(1) = ( -1.000000 -1.000000  1.000000 )  
               b(2) = (  1.000000  1.000000  1.000000 )  
               b(3) = ( -1.000000  1.000000 -1.000000 )  


     PseudoPot. # 1 for Na read from file:
     /home/s1333534/quantum_espresso/qe-6.1/pseudo/Na_pbe_v1.uspp.F.UPF
     MD5 check sum: 76a99c7e9422403d3e93cbc85ab7bccb
     Pseudo is Ultrasoft, Zval =  9.0
     Generated by new atomic code, or converted to UPF format
     Using radial grid of  819 points,  5 beta functions with: 
                l(1) =   0
                l(2) =   0
                l(3) =   1
                l(4) =   1
                l(5) =   2
     Q(r) pseudized with  8 coefficients,  rinner =    1.250   1.250   1.250
                                                       1.250   1.250

     atomic species   valence    mass     pseudopotential
        Na             9.00    22.99000     Na( 1.00)

     48 Sym. Ops., with inversion, found



   Cartesian axes

     site n.     atom                  positions (alat units)
         1           Na  tau(   1) = (   0.0000000   0.0000000   0.0000000  )

     number of k points= 11480  Marzari-Vanderbilt smearing, width (Ry)=  0.0200

     Number of k-points >= 100: set verbosity='high' to print them.

     Dense  grid:    19579 G-vectors     FFT dimensions: (  40,  40,  40)

     Smooth grid:     6855 G-vectors     FFT dimensions: (  27,  27,  27)

     Estimated max dynamical RAM per process >       0.67MB

     Estimated total allocated dynamical RAM >      43.02MB

     The potential is recalculated from file :
     ./_ph0/na.fcc.save/charge-density.dat

     Starting wfc are    5 atomic +    4 random wfc

     Band Structure Calculation
     Davidson diagonalization with overlap

     ethr =  1.11E-10,  avg # of iterations = 18.3

     total cpu time spent up to now is      367.4 secs

     End of band structure calculation

     Number of k-points >= 100: set verbosity='high' to print the bands.

     the Fermi energy is     2.6442 ev

     Writing output data file na.fcc.save

                                                                                

     bravais-lattice index     =            2
     lattice parameter (alat)  =       9.2902  a.u.
     unit-cell volume          =     200.4522 (a.u.)^3
     number of atoms/cell      =            1
     number of atomic types    =            1
     kinetic-energy cut-off    =      40.0000  Ry
     charge density cut-off    =     320.0000  Ry
     convergence threshold     =      1.0E-16
     beta                      =       0.7000
     number of iterations used =            4
     Exchange-correlation      = SLA  PW   PBE  PBE ( 1  4  3  4 0 0)


     celldm(1)=    9.29017  celldm(2)=    0.00000  celldm(3)=    0.00000
     celldm(4)=    0.00000  celldm(5)=    0.00000  celldm(6)=    0.00000

     crystal axes: (cart. coord. in units of alat)
               a(1) = ( -0.5000  0.0000  0.5000 )  
               a(2) = (  0.0000  0.5000  0.5000 )  
               a(3) = ( -0.5000  0.5000  0.0000 )  

     reciprocal axes: (cart. coord. in units 2 pi/alat)
               b(1) = ( -1.0000 -1.0000  1.0000 )  
               b(2) = (  1.0000  1.0000  1.0000 )  
               b(3) = ( -1.0000  1.0000 -1.0000 )  


     Atoms inside the unit cell: 

     Cartesian axes

     site n.  atom      mass           positions (alat units)
        1     Na  22.9900   tau(    1) = (    0.00000    0.00000    0.00000  )

     Computing dynamical matrix for 
                    q = (  -0.3333333   0.3333333  -0.3333333 )

      6 Sym.Ops. (no q -> -q+G )


     G cutoff =  699.5802  (   1225 G-vectors)     FFT grid: ( 40, 40, 40)
     G cutoff =  349.7901  (    430 G-vectors)  smooth grid: ( 27, 27, 27)

     number of k points= 11480  Marzari-Vanderbilt smearing, width (Ry)=  0.0200

     PseudoPot. # 1 for Na read from file:
     /home/s1333534/quantum_espresso/qe-6.1/pseudo/Na_pbe_v1.uspp.F.UPF
     MD5 check sum: 76a99c7e9422403d3e93cbc85ab7bccb
     Pseudo is Ultrasoft, Zval =  9.0
     Generated by new atomic code, or converted to UPF format
     Using radial grid of  819 points,  5 beta functions with: 
                l(1) =   0
                l(2) =   0
                l(3) =   1
                l(4) =   1
                l(5) =   2
     Q(r) pseudized with  8 coefficients,  rinner =    1.250   1.250   1.250
                                                       1.250   1.250

     Mode symmetry, C_3v (3m)   point group:


     Atomic displacements:
     There are   2 irreducible representations

     Representation     1      1 modes -A_1  L_1  To be done

     Representation     2      2 modes -E    L_3  To be done



     Alpha used in Ewald sum =   2.8000
     PHONON       : 17m42.10s CPU    19m 2.85s WALL



     Representation #  1 mode #   1

     Self-consistent Calculation

      iter #   1 total cpu time :  1165.4 secs   av.it.:   5.7
      thresh= 1.000E-02 alpha_mix =  0.700 |ddv_scf|^2 =  5.535E-04

      iter #   2 total cpu time :  1187.3 secs   av.it.:   6.7
      thresh= 2.353E-03 alpha_mix =  0.700 |ddv_scf|^2 =  3.333E-03

      iter #   3 total cpu time :  1207.4 secs   av.it.:   5.9
      thresh= 5.773E-03 alpha_mix =  0.700 |ddv_scf|^2 =  6.088E-07

      iter #   4 total cpu time :  1232.1 secs   av.it.:   7.7
      thresh= 7.803E-05 alpha_mix =  0.700 |ddv_scf|^2 =  8.677E-09

      iter #   5 total cpu time :  1257.5 secs   av.it.:   8.3
      thresh= 9.315E-06 alpha_mix =  0.700 |ddv_scf|^2 =  4.578E-10

      iter #   6 total cpu time :  1282.7 secs   av.it.:   8.1
      thresh= 2.140E-06 alpha_mix =  0.700 |ddv_scf|^2 =  1.827E-11

      iter #   7 total cpu time :  1307.6 secs   av.it.:   7.7
      thresh= 4.274E-07 alpha_mix =  0.700 |ddv_scf|^2 =  5.011E-13

      iter #   8 total cpu time :  1333.1 secs   av.it.:   8.1
      thresh= 7.079E-08 alpha_mix =  0.700 |ddv_scf|^2 =  1.101E-15

      iter #   9 total cpu time :  1357.5 secs   av.it.:   7.8
      thresh= 3.318E-09 alpha_mix =  0.700 |ddv_scf|^2 =  2.404E-16

      iter #  10 total cpu time :  1381.4 secs   av.it.:   7.6
      thresh= 1.551E-09 alpha_mix =  0.700 |ddv_scf|^2 =  5.906E-16

      iter #  11 total cpu time :  1402.9 secs   av.it.:   6.4
      thresh= 2.430E-09 alpha_mix =  0.700 |ddv_scf|^2 =  1.515E-17

     End of self-consistent calculation

     Convergence has been achieved 


     Representation #  2 modes #   2  3

     Self-consistent Calculation

      iter #   1 total cpu time :  1447.9 secs   av.it.:   5.6
      thresh= 1.000E-02 alpha_mix =  0.700 |ddv_scf|^2 =  2.722E-06

      iter #   2 total cpu time :  1500.6 secs   av.it.:   8.5
      thresh= 1.650E-04 alpha_mix =  0.700 |ddv_scf|^2 =  4.847E-08

      iter #   3 total cpu time :  1553.6 secs   av.it.:   8.7
      thresh= 2.202E-05 alpha_mix =  0.700 |ddv_scf|^2 =  1.036E-09

      iter #   4 total cpu time :  1605.7 secs   av.it.:   8.4
      thresh= 3.219E-06 alpha_mix =  0.700 |ddv_scf|^2 =  3.791E-12

      iter #   5 total cpu time :  1659.1 secs   av.it.:   8.7
      thresh= 1.947E-07 alpha_mix =  0.700 |ddv_scf|^2 =  7.104E-15

      iter #   6 total cpu time :  1710.8 secs   av.it.:   8.1
      thresh= 8.428E-09 alpha_mix =  0.700 |ddv_scf|^2 =  2.363E-16

      iter #   7 total cpu time :  1763.6 secs   av.it.:   8.6
      thresh= 1.537E-09 alpha_mix =  0.700 |ddv_scf|^2 =  2.627E-19

     End of self-consistent calculation

     Convergence has been achieved 

     Number of q in the star =    8
     List of q in the star:
          1  -0.333333333   0.333333333  -0.333333333
          2   0.333333333   0.333333333   0.333333333
          3  -0.333333333  -0.333333333  -0.333333333
          4   0.333333333  -0.333333333   0.333333333
          5   0.333333333  -0.333333333  -0.333333333
          6   0.333333333   0.333333333  -0.333333333
          7  -0.333333333  -0.333333333   0.333333333
          8  -0.333333333   0.333333333   0.333333333

     Diagonalizing the dynamical matrix

     q = (   -0.333333333   0.333333333  -0.333333333 ) 

 **************************************************************************
     freq (    1) =       1.675852 [THz] =      55.900410 [cm-1]
     freq (    2) =       1.675852 [THz] =      55.900410 [cm-1]
     freq (    3) =       4.611767 [THz] =     153.831986 [cm-1]
 **************************************************************************

     Mode symmetry, C_3v (3m)   point group:

     freq (  1 -  2) =         55.9  [cm-1]   --> E    L_3           
     freq (  3 -  3) =        153.8  [cm-1]   --> A_1  L_1           

     Calculation of q =    0.5000000  -0.5000000   0.5000000

   Info: using nr1, nr2, nr3 values from input

   Info: using nr1, nr2, nr3 values from input

     Parallelization info
     --------------------
     sticks:   dense  smooth     PW     G-vecs:    dense   smooth      PW
     Min          59      29     11                 1221      427     103
     Max          60      30     12                 1225      430     106
     Sum         955     475    187                19579     6855    1687



     bravais-lattice index     =            2
     lattice parameter (alat)  =       9.2902  a.u.
     unit-cell volume          =     200.4522 (a.u.)^3
     number of atoms/cell      =            1
     number of atomic types    =            1
     number of electrons       =         9.00
     number of Kohn-Sham states=            9
     kinetic-energy cutoff     =      40.0000  Ry
     charge density cutoff     =     320.0000  Ry
     Exchange-correlation      = SLA  PW   PBE  PBE ( 1  4  3  4 0 0)

     celldm(1)=   9.290169  celldm(2)=   0.000000  celldm(3)=   0.000000
     celldm(4)=   0.000000  celldm(5)=   0.000000  celldm(6)=   0.000000

     crystal axes: (cart. coord. in units of alat)
               a(1) = (  -0.500000   0.000000   0.500000 )  
               a(2) = (   0.000000   0.500000   0.500000 )  
               a(3) = (  -0.500000   0.500000   0.000000 )  

     reciprocal axes: (cart. coord. in units 2 pi/alat)
               b(1) = ( -1.000000 -1.000000  1.000000 )  
               b(2) = (  1.000000  1.000000  1.000000 )  
               b(3) = ( -1.000000  1.000000 -1.000000 )  


     PseudoPot. # 1 for Na read from file:
     /home/s1333534/quantum_espresso/qe-6.1/pseudo/Na_pbe_v1.uspp.F.UPF
     MD5 check sum: 76a99c7e9422403d3e93cbc85ab7bccb
     Pseudo is Ultrasoft, Zval =  9.0
     Generated by new atomic code, or converted to UPF format
     Using radial grid of  819 points,  5 beta functions with: 
                l(1) =   0
                l(2) =   0
                l(3) =   1
                l(4) =   1
                l(5) =   2
     Q(r) pseudized with  8 coefficients,  rinner =    1.250   1.250   1.250
                                                       1.250   1.250

     atomic species   valence    mass     pseudopotential
        Na             9.00    22.99000     Na( 1.00)

     48 Sym. Ops., with inversion, found



   Cartesian axes

     site n.     atom                  positions (alat units)
         1           Na  tau(   1) = (   0.0000000   0.0000000   0.0000000  )

     number of k points=  5740  Marzari-Vanderbilt smearing, width (Ry)=  0.0200

     Number of k-points >= 100: set verbosity='high' to print them.

     Dense  grid:    19579 G-vectors     FFT dimensions: (  40,  40,  40)

     Smooth grid:     6855 G-vectors     FFT dimensions: (  27,  27,  27)

     Estimated max dynamical RAM per process >       0.67MB

     Estimated total allocated dynamical RAM >      43.02MB

     The potential is recalculated from file :
     ./_ph0/na.fcc.save/charge-density.dat

     Starting wfc are    5 atomic +    4 random wfc

     Band Structure Calculation
     Davidson diagonalization with overlap

     ethr =  1.11E-10,  avg # of iterations = 18.3

     total cpu time spent up to now is      483.7 secs

     End of band structure calculation

     Number of k-points >= 100: set verbosity='high' to print the bands.

     the Fermi energy is     2.6442 ev

     Writing output data file na.fcc.save

                                                                                

     bravais-lattice index     =            2
     lattice parameter (alat)  =       9.2902  a.u.
     unit-cell volume          =     200.4522 (a.u.)^3
     number of atoms/cell      =            1
     number of atomic types    =            1
     kinetic-energy cut-off    =      40.0000  Ry
     charge density cut-off    =     320.0000  Ry
     convergence threshold     =      1.0E-16
     beta                      =       0.7000
     number of iterations used =            4
     Exchange-correlation      = SLA  PW   PBE  PBE ( 1  4  3  4 0 0)


     celldm(1)=    9.29017  celldm(2)=    0.00000  celldm(3)=    0.00000
     celldm(4)=    0.00000  celldm(5)=    0.00000  celldm(6)=    0.00000

     crystal axes: (cart. coord. in units of alat)
               a(1) = ( -0.5000  0.0000  0.5000 )  
               a(2) = (  0.0000  0.5000  0.5000 )  
               a(3) = ( -0.5000  0.5000  0.0000 )  

     reciprocal axes: (cart. coord. in units 2 pi/alat)
               b(1) = ( -1.0000 -1.0000  1.0000 )  
               b(2) = (  1.0000  1.0000  1.0000 )  
               b(3) = ( -1.0000  1.0000 -1.0000 )  


     Atoms inside the unit cell: 

     Cartesian axes

     site n.  atom      mass           positions (alat units)
        1     Na  22.9900   tau(    1) = (    0.00000    0.00000    0.00000  )

     Computing dynamical matrix for 
                    q = (   0.5000000  -0.5000000   0.5000000 )

     13 Sym.Ops. (with q -> -q+G )


     G cutoff =  699.5802  (   1225 G-vectors)     FFT grid: ( 40, 40, 40)
     G cutoff =  349.7901  (    430 G-vectors)  smooth grid: ( 27, 27, 27)

     number of k points=  5740  Marzari-Vanderbilt smearing, width (Ry)=  0.0200

     PseudoPot. # 1 for Na read from file:
     /home/s1333534/quantum_espresso/qe-6.1/pseudo/Na_pbe_v1.uspp.F.UPF
     MD5 check sum: 76a99c7e9422403d3e93cbc85ab7bccb
     Pseudo is Ultrasoft, Zval =  9.0
     Generated by new atomic code, or converted to UPF format
     Using radial grid of  819 points,  5 beta functions with: 
                l(1) =   0
                l(2) =   0
                l(3) =   1
                l(4) =   1
                l(5) =   2
     Q(r) pseudized with  8 coefficients,  rinner =    1.250   1.250   1.250
                                                       1.250   1.250

     Mode symmetry, D_3d (-3m)  point group:


     Atomic displacements:
     There are   2 irreducible representations

     Representation     1      1 modes -A_2u L_2'  To be done

     Representation     2      2 modes -E_u  L_3'  To be done



     Alpha used in Ewald sum =   2.8000
     PHONON       : 28m51.69s CPU    31m 9.69s WALL



     Representation #  1 mode #   1

     Self-consistent Calculation

      iter #   1 total cpu time :  1881.4 secs   av.it.:   5.7
      thresh= 1.000E-02 alpha_mix =  0.700 |ddv_scf|^2 =  1.122E-04

      iter #   2 total cpu time :  1892.9 secs   av.it.:   6.9
      thresh= 1.059E-03 alpha_mix =  0.700 |ddv_scf|^2 =  6.623E-05

      iter #   3 total cpu time :  1904.6 secs   av.it.:   6.8
      thresh= 8.138E-04 alpha_mix =  0.700 |ddv_scf|^2 =  7.568E-08

      iter #   4 total cpu time :  1917.0 secs   av.it.:   7.9
      thresh= 2.751E-05 alpha_mix =  0.700 |ddv_scf|^2 =  2.872E-10

      iter #   5 total cpu time :  1928.1 secs   av.it.:   7.0
      thresh= 1.695E-06 alpha_mix =  0.700 |ddv_scf|^2 =  6.596E-12

      iter #   6 total cpu time :  1939.1 secs   av.it.:   6.6
      thresh= 2.568E-07 alpha_mix =  0.700 |ddv_scf|^2 =  1.608E-14

      iter #   7 total cpu time :  1950.7 secs   av.it.:   7.5
      thresh= 1.268E-08 alpha_mix =  0.700 |ddv_scf|^2 =  2.450E-17

     End of self-consistent calculation

     Convergence has been achieved 


     Representation #  2 modes #   2  3

     Self-consistent Calculation

      iter #   1 total cpu time :  1971.9 secs   av.it.:   5.4
      thresh= 1.000E-02 alpha_mix =  0.700 |ddv_scf|^2 =  2.762E-06

      iter #   2 total cpu time :  1997.2 secs   av.it.:   8.4
      thresh= 1.662E-04 alpha_mix =  0.700 |ddv_scf|^2 =  4.836E-08

      iter #   3 total cpu time :  2022.8 secs   av.it.:   8.6
      thresh= 2.199E-05 alpha_mix =  0.700 |ddv_scf|^2 =  1.125E-09

      iter #   4 total cpu time :  2047.8 secs   av.it.:   7.9
      thresh= 3.354E-06 alpha_mix =  0.700 |ddv_scf|^2 =  4.111E-12

      iter #   5 total cpu time :  2073.8 secs   av.it.:   8.3
      thresh= 2.027E-07 alpha_mix =  0.700 |ddv_scf|^2 =  7.270E-15

      iter #   6 total cpu time :  2098.3 secs   av.it.:   7.8
      thresh= 8.526E-09 alpha_mix =  0.700 |ddv_scf|^2 =  2.637E-16

      iter #   7 total cpu time :  2124.6 secs   av.it.:   8.3
      thresh= 1.624E-09 alpha_mix =  0.700 |ddv_scf|^2 =  2.570E-19

     End of self-consistent calculation

     Convergence has been achieved 

     Number of q in the star =    4
     List of q in the star:
          1   0.500000000  -0.500000000   0.500000000
          2   0.500000000   0.500000000   0.500000000
          3  -0.500000000   0.500000000   0.500000000
          4   0.500000000   0.500000000  -0.500000000

     Diagonalizing the dynamical matrix

     q = (    0.500000000  -0.500000000   0.500000000 ) 

 **************************************************************************
     freq (    1) =       1.951033 [THz] =      65.079444 [cm-1]
     freq (    2) =       1.951033 [THz] =      65.079444 [cm-1]
     freq (    3) =       5.327044 [THz] =     177.691050 [cm-1]
 **************************************************************************

     Mode symmetry, D_3d (-3m)  point group:

     freq (  1 -  2) =         65.1  [cm-1]   --> E_u  L_3'          
     freq (  3 -  3) =        177.7  [cm-1]   --> A_2u L_2'          

     Calculation of q =    0.0000000   0.3333333   0.0000000

   Info: using nr1, nr2, nr3 values from input

   Info: using nr1, nr2, nr3 values from input

     Parallelization info
     --------------------
     sticks:   dense  smooth     PW     G-vecs:    dense   smooth      PW
     Min          59      29     10                 1221      427      90
     Max          60      30     11                 1225      430      94
     Sum         955     475    163                19579     6855    1459



     bravais-lattice index     =            2
     lattice parameter (alat)  =       9.2902  a.u.
     unit-cell volume          =     200.4522 (a.u.)^3
     number of atoms/cell      =            1
     number of atomic types    =            1
     number of electrons       =         9.00
     number of Kohn-Sham states=            9
     kinetic-energy cutoff     =      40.0000  Ry
     charge density cutoff     =     320.0000  Ry
     Exchange-correlation      = SLA  PW   PBE  PBE ( 1  4  3  4 0 0)

     celldm(1)=   9.290169  celldm(2)=   0.000000  celldm(3)=   0.000000
     celldm(4)=   0.000000  celldm(5)=   0.000000  celldm(6)=   0.000000

     crystal axes: (cart. coord. in units of alat)
               a(1) = (  -0.500000   0.000000   0.500000 )  
               a(2) = (   0.000000   0.500000   0.500000 )  
               a(3) = (  -0.500000   0.500000   0.000000 )  

     reciprocal axes: (cart. coord. in units 2 pi/alat)
               b(1) = ( -1.000000 -1.000000  1.000000 )  
               b(2) = (  1.000000  1.000000  1.000000 )  
               b(3) = ( -1.000000  1.000000 -1.000000 )  


     PseudoPot. # 1 for Na read from file:
     /home/s1333534/quantum_espresso/qe-6.1/pseudo/Na_pbe_v1.uspp.F.UPF
     MD5 check sum: 76a99c7e9422403d3e93cbc85ab7bccb
     Pseudo is Ultrasoft, Zval =  9.0
     Generated by new atomic code, or converted to UPF format
     Using radial grid of  819 points,  5 beta functions with: 
                l(1) =   0
                l(2) =   0
                l(3) =   1
                l(4) =   1
                l(5) =   2
     Q(r) pseudized with  8 coefficients,  rinner =    1.250   1.250   1.250
                                                       1.250   1.250

     atomic species   valence    mass     pseudopotential
        Na             9.00    22.99000     Na( 1.00)

     48 Sym. Ops., with inversion, found



   Cartesian axes

     site n.     atom                  positions (alat units)
         1           Na  tau(   1) = (   0.0000000   0.0000000   0.0000000  )

     number of k points=  8400  Marzari-Vanderbilt smearing, width (Ry)=  0.0200

     Number of k-points >= 100: set verbosity='high' to print them.

     Dense  grid:    19579 G-vectors     FFT dimensions: (  40,  40,  40)

     Smooth grid:     6855 G-vectors     FFT dimensions: (  27,  27,  27)

     Estimated max dynamical RAM per process >       0.67MB

     Estimated total allocated dynamical RAM >      43.02MB

     The potential is recalculated from file :
     ./_ph0/na.fcc.save/charge-density.dat

     Starting wfc are    5 atomic +    4 random wfc

     Band Structure Calculation
     Davidson diagonalization with overlap

     ethr =  1.11E-10,  avg # of iterations = 18.3

     total cpu time spent up to now is      620.4 secs

     End of band structure calculation

     Number of k-points >= 100: set verbosity='high' to print the bands.

     the Fermi energy is     2.6442 ev

     Writing output data file na.fcc.save

                                                                                

     bravais-lattice index     =            2
     lattice parameter (alat)  =       9.2902  a.u.
     unit-cell volume          =     200.4522 (a.u.)^3
     number of atoms/cell      =            1
     number of atomic types    =            1
     kinetic-energy cut-off    =      40.0000  Ry
     charge density cut-off    =     320.0000  Ry
     convergence threshold     =      1.0E-16
     beta                      =       0.7000
     number of iterations used =            4
     Exchange-correlation      = SLA  PW   PBE  PBE ( 1  4  3  4 0 0)


     celldm(1)=    9.29017  celldm(2)=    0.00000  celldm(3)=    0.00000
     celldm(4)=    0.00000  celldm(5)=    0.00000  celldm(6)=    0.00000

     crystal axes: (cart. coord. in units of alat)
               a(1) = ( -0.5000  0.0000  0.5000 )  
               a(2) = (  0.0000  0.5000  0.5000 )  
               a(3) = ( -0.5000  0.5000  0.0000 )  

     reciprocal axes: (cart. coord. in units 2 pi/alat)
               b(1) = ( -1.0000 -1.0000  1.0000 )  
               b(2) = (  1.0000  1.0000  1.0000 )  
               b(3) = ( -1.0000  1.0000 -1.0000 )  


     Atoms inside the unit cell: 

     Cartesian axes

     site n.  atom      mass           positions (alat units)
        1     Na  22.9900   tau(    1) = (    0.00000    0.00000    0.00000  )

     Computing dynamical matrix for 
                    q = (   0.0000000   0.3333333   0.0000000 )

      8 Sym.Ops. (no q -> -q+G )


     G cutoff =  699.5802  (   1225 G-vectors)     FFT grid: ( 40, 40, 40)
     G cutoff =  349.7901  (    430 G-vectors)  smooth grid: ( 27, 27, 27)

     number of k points=  8400  Marzari-Vanderbilt smearing, width (Ry)=  0.0200

     PseudoPot. # 1 for Na read from file:
     /home/s1333534/quantum_espresso/qe-6.1/pseudo/Na_pbe_v1.uspp.F.UPF
     MD5 check sum: 76a99c7e9422403d3e93cbc85ab7bccb
     Pseudo is Ultrasoft, Zval =  9.0
     Generated by new atomic code, or converted to UPF format
     Using radial grid of  819 points,  5 beta functions with: 
                l(1) =   0
                l(2) =   0
                l(3) =   1
                l(4) =   1
                l(5) =   2
     Q(r) pseudized with  8 coefficients,  rinner =    1.250   1.250   1.250
                                                       1.250   1.250

     Mode symmetry, C_4v (4mm)  point group:


     Atomic displacements:
     There are   2 irreducible representations

     Representation     1      1 modes -A_1  G_1 D_1  To be done

     Representation     2      2 modes -E    G_5 D_5  To be done



     Alpha used in Ewald sum =   2.8000
     PHONON       : 35m10.69s CPU    37m56.98s WALL



     Representation #  1 mode #   1

     Self-consistent Calculation

      iter #   1 total cpu time :  2292.4 secs   av.it.:   5.7
      thresh= 1.000E-02 alpha_mix =  0.700 |ddv_scf|^2 =  1.396E-02

      iter #   2 total cpu time :  2307.6 secs   av.it.:   6.4
      thresh= 1.000E-02 alpha_mix =  0.700 |ddv_scf|^2 =  1.144E+00

      iter #   3 total cpu time :  2322.7 secs   av.it.:   6.3
      thresh= 1.000E-02 alpha_mix =  0.700 |ddv_scf|^2 =  2.148E-06

      iter #   4 total cpu time :  2339.6 secs   av.it.:   7.4
      thresh= 1.466E-04 alpha_mix =  0.700 |ddv_scf|^2 =  6.767E-08

      iter #   5 total cpu time :  2357.4 secs   av.it.:   7.5
      thresh= 2.601E-05 alpha_mix =  0.700 |ddv_scf|^2 =  1.617E-09

      iter #   6 total cpu time :  2374.5 secs   av.it.:   7.6
      thresh= 4.022E-06 alpha_mix =  0.700 |ddv_scf|^2 =  4.369E-09

      iter #   7 total cpu time :  2387.2 secs   av.it.:   5.1
      thresh= 6.610E-06 alpha_mix =  0.700 |ddv_scf|^2 =  1.339E-09

      iter #   8 total cpu time :  2403.0 secs   av.it.:   6.7
      thresh= 3.659E-06 alpha_mix =  0.700 |ddv_scf|^2 =  4.353E-11

      iter #   9 total cpu time :  2418.8 secs   av.it.:   6.8
      thresh= 6.598E-07 alpha_mix =  0.700 |ddv_scf|^2 =  1.447E-12

      iter #  10 total cpu time :  2434.6 secs   av.it.:   6.9
      thresh= 1.203E-07 alpha_mix =  0.700 |ddv_scf|^2 =  3.745E-14

      iter #  11 total cpu time :  2451.5 secs   av.it.:   7.5
      thresh= 1.935E-08 alpha_mix =  0.700 |ddv_scf|^2 =  3.023E-16

      iter #  12 total cpu time :  2469.0 secs   av.it.:   8.0
      thresh= 1.739E-09 alpha_mix =  0.700 |ddv_scf|^2 =  2.247E-16

      iter #  13 total cpu time :  2485.5 secs   av.it.:   7.2
      thresh= 1.499E-09 alpha_mix =  0.700 |ddv_scf|^2 =  2.985E-15

      iter #  14 total cpu time :  2500.0 secs   av.it.:   6.3
      thresh= 5.464E-09 alpha_mix =  0.700 |ddv_scf|^2 =  3.385E-18

     End of self-consistent calculation

     Convergence has been achieved 


     Representation #  2 modes #   2  3

     Self-consistent Calculation

      iter #   1 total cpu time :  2530.9 secs   av.it.:   5.5
      thresh= 1.000E-02 alpha_mix =  0.700 |ddv_scf|^2 =  2.788E-06

      iter #   2 total cpu time :  2567.9 secs   av.it.:   8.4
      thresh= 1.670E-04 alpha_mix =  0.700 |ddv_scf|^2 =  4.700E-08

      iter #   3 total cpu time :  2605.7 secs   av.it.:   8.6
      thresh= 2.168E-05 alpha_mix =  0.700 |ddv_scf|^2 =  1.335E-09

      iter #   4 total cpu time :  2642.9 secs   av.it.:   8.3
      thresh= 3.653E-06 alpha_mix =  0.700 |ddv_scf|^2 =  4.533E-12

      iter #   5 total cpu time :  2681.3 secs   av.it.:   8.6
      thresh= 2.129E-07 alpha_mix =  0.700 |ddv_scf|^2 =  6.176E-15

      iter #   6 total cpu time :  2717.5 secs   av.it.:   8.0
      thresh= 7.859E-09 alpha_mix =  0.700 |ddv_scf|^2 =  2.572E-16

      iter #   7 total cpu time :  2754.8 secs   av.it.:   8.5
      thresh= 1.604E-09 alpha_mix =  0.700 |ddv_scf|^2 =  2.090E-19

     End of self-consistent calculation

     Convergence has been achieved 

     Number of q in the star =    6
     List of q in the star:
          1   0.000000000   0.333333333   0.000000000
          2   0.333333333   0.000000000   0.000000000
          3   0.000000000   0.000000000   0.333333333
          4   0.000000000  -0.333333333   0.000000000
          5  -0.333333333   0.000000000   0.000000000
          6   0.000000000   0.000000000  -0.333333333

     Diagonalizing the dynamical matrix

     q = (    0.000000000   0.333333333   0.000000000 ) 

 **************************************************************************
     freq (    1) =       1.721300 [THz] =      57.416389 [cm-1]
     freq (    2) =       1.721300 [THz] =      57.416389 [cm-1]
     freq (    3) =       2.471347 [THz] =      82.435256 [cm-1]
 **************************************************************************

     Mode symmetry, C_4v (4mm)  point group:

     freq (  1 -  2) =         57.4  [cm-1]   --> E    G_5 D_5       
     freq (  3 -  3) =         82.4  [cm-1]   --> A_1  G_1 D_1       

     Calculation of q =   -0.1666667   0.5000000  -0.1666667

   Info: using nr1, nr2, nr3 values from input

   Info: using nr1, nr2, nr3 values from input

     Parallelization info
     --------------------
     sticks:   dense  smooth     PW     G-vecs:    dense   smooth      PW
     Min          59      29     11                 1221      427      99
     Max          60      30     13                 1225      430     101
     Sum         955     475    187                19579     6855    1591



     bravais-lattice index     =            2
     lattice parameter (alat)  =       9.2902  a.u.
     unit-cell volume          =     200.4522 (a.u.)^3
     number of atoms/cell      =            1
     number of atomic types    =            1
     number of electrons       =         9.00
     number of Kohn-Sham states=            9
     kinetic-energy cutoff     =      40.0000  Ry
     charge density cutoff     =     320.0000  Ry
     Exchange-correlation      = SLA  PW   PBE  PBE ( 1  4  3  4 0 0)

     celldm(1)=   9.290169  celldm(2)=   0.000000  celldm(3)=   0.000000
     celldm(4)=   0.000000  celldm(5)=   0.000000  celldm(6)=   0.000000

     crystal axes: (cart. coord. in units of alat)
               a(1) = (  -0.500000   0.000000   0.500000 )  
               a(2) = (   0.000000   0.500000   0.500000 )  
               a(3) = (  -0.500000   0.500000   0.000000 )  

     reciprocal axes: (cart. coord. in units 2 pi/alat)
               b(1) = ( -1.000000 -1.000000  1.000000 )  
               b(2) = (  1.000000  1.000000  1.000000 )  
               b(3) = ( -1.000000  1.000000 -1.000000 )  


     PseudoPot. # 1 for Na read from file:
     /home/s1333534/quantum_espresso/qe-6.1/pseudo/Na_pbe_v1.uspp.F.UPF
     MD5 check sum: 76a99c7e9422403d3e93cbc85ab7bccb
     Pseudo is Ultrasoft, Zval =  9.0
     Generated by new atomic code, or converted to UPF format
     Using radial grid of  819 points,  5 beta functions with: 
                l(1) =   0
                l(2) =   0
                l(3) =   1
                l(4) =   1
                l(5) =   2
     Q(r) pseudized with  8 coefficients,  rinner =    1.250   1.250   1.250
                                                       1.250   1.250

     atomic species   valence    mass     pseudopotential
        Na             9.00    22.99000     Na( 1.00)

     48 Sym. Ops., with inversion, found



   Cartesian axes

     site n.     atom                  positions (alat units)
         1           Na  tau(   1) = (   0.0000000   0.0000000   0.0000000  )

     number of k points= 32800  Marzari-Vanderbilt smearing, width (Ry)=  0.0200

     Number of k-points >= 100: set verbosity='high' to print them.

     Dense  grid:    19579 G-vectors     FFT dimensions: (  40,  40,  40)

     Smooth grid:     6855 G-vectors     FFT dimensions: (  27,  27,  27)

     Estimated max dynamical RAM per process >       0.67MB

     Estimated total allocated dynamical RAM >      43.02MB

     The potential is recalculated from file :
     ./_ph0/na.fcc.save/charge-density.dat

     Starting wfc are    5 atomic +    4 random wfc

     Band Structure Calculation
     Davidson diagonalization with overlap

     ethr =  1.11E-10,  avg # of iterations = 18.2

     total cpu time spent up to now is     1122.2 secs

     End of band structure calculation

     Number of k-points >= 100: set verbosity='high' to print the bands.

     the Fermi energy is     2.6442 ev

     Writing output data file na.fcc.save

                                                                                

     bravais-lattice index     =            2
     lattice parameter (alat)  =       9.2902  a.u.
     unit-cell volume          =     200.4522 (a.u.)^3
     number of atoms/cell      =            1
     number of atomic types    =            1
     kinetic-energy cut-off    =      40.0000  Ry
     charge density cut-off    =     320.0000  Ry
     convergence threshold     =      1.0E-16
     beta                      =       0.7000
     number of iterations used =            4
     Exchange-correlation      = SLA  PW   PBE  PBE ( 1  4  3  4 0 0)


     celldm(1)=    9.29017  celldm(2)=    0.00000  celldm(3)=    0.00000
     celldm(4)=    0.00000  celldm(5)=    0.00000  celldm(6)=    0.00000

     crystal axes: (cart. coord. in units of alat)
               a(1) = ( -0.5000  0.0000  0.5000 )  
               a(2) = (  0.0000  0.5000  0.5000 )  
               a(3) = ( -0.5000  0.5000  0.0000 )  

     reciprocal axes: (cart. coord. in units 2 pi/alat)
               b(1) = ( -1.0000 -1.0000  1.0000 )  
               b(2) = (  1.0000  1.0000  1.0000 )  
               b(3) = ( -1.0000  1.0000 -1.0000 )  


     Atoms inside the unit cell: 

     Cartesian axes

     site n.  atom      mass           positions (alat units)
        1     Na  22.9900   tau(    1) = (    0.00000    0.00000    0.00000  )

     Computing dynamical matrix for 
                    q = (  -0.1666667   0.5000000  -0.1666667 )

      2 Sym.Ops. (no q -> -q+G )


     G cutoff =  699.5802  (   1225 G-vectors)     FFT grid: ( 40, 40, 40)
     G cutoff =  349.7901  (    430 G-vectors)  smooth grid: ( 27, 27, 27)

     number of k points= 32800  Marzari-Vanderbilt smearing, width (Ry)=  0.0200

     PseudoPot. # 1 for Na read from file:
     /home/s1333534/quantum_espresso/qe-6.1/pseudo/Na_pbe_v1.uspp.F.UPF
     MD5 check sum: 76a99c7e9422403d3e93cbc85ab7bccb
     Pseudo is Ultrasoft, Zval =  9.0
     Generated by new atomic code, or converted to UPF format
     Using radial grid of  819 points,  5 beta functions with: 
                l(1) =   0
                l(2) =   0
                l(3) =   1
                l(4) =   1
                l(5) =   2
     Q(r) pseudized with  8 coefficients,  rinner =    1.250   1.250   1.250
                                                       1.250   1.250

     Mode symmetry, C_s (m)     point group:


     Atomic displacements:
     There are   3 irreducible representations

     Representation     1      1 modes -A'  To be done

     Representation     2      1 modes -A'  To be done

     Representation     3      1 modes -A''  To be done



     Alpha used in Ewald sum =   2.8000
     PHONON       : 52m 2.26s CPU    56m 2.90s WALL



     Representation #  1 mode #   1

     Self-consistent Calculation

      iter #   1 total cpu time :  3429.2 secs   av.it.:   5.8
      thresh= 1.000E-02 alpha_mix =  0.700 |ddv_scf|^2 =  6.164E-04

      iter #   2 total cpu time :  3496.9 secs   av.it.:   6.9
      thresh= 2.483E-03 alpha_mix =  0.700 |ddv_scf|^2 =  4.716E-03

      iter #   3 total cpu time :  3555.8 secs   av.it.:   5.7
      thresh= 6.867E-03 alpha_mix =  0.700 |ddv_scf|^2 =  6.686E-07

      iter #   4 total cpu time :  3628.7 secs   av.it.:   7.8
      thresh= 8.177E-05 alpha_mix =  0.700 |ddv_scf|^2 =  4.747E-09

      iter #   5 total cpu time :  3705.9 secs   av.it.:   8.4
      thresh= 6.890E-06 alpha_mix =  0.700 |ddv_scf|^2 =  6.248E-10

      iter #   6 total cpu time :  3782.6 secs   av.it.:   8.2
      thresh= 2.500E-06 alpha_mix =  0.700 |ddv_scf|^2 =  2.034E-11

      iter #   7 total cpu time :  3858.3 secs   av.it.:   8.0
      thresh= 4.510E-07 alpha_mix =  0.700 |ddv_scf|^2 =  2.915E-11

      iter #   8 total cpu time :  3924.6 secs   av.it.:   6.8
      thresh= 5.399E-07 alpha_mix =  0.700 |ddv_scf|^2 =  4.245E-12

      iter #   9 total cpu time :  3994.8 secs   av.it.:   7.3
      thresh= 2.060E-07 alpha_mix =  0.700 |ddv_scf|^2 =  1.198E-12

      iter #  10 total cpu time :  4061.5 secs   av.it.:   6.9
      thresh= 1.094E-07 alpha_mix =  0.700 |ddv_scf|^2 =  6.582E-15

      iter #  11 total cpu time :  4139.0 secs   av.it.:   8.4
      thresh= 8.113E-09 alpha_mix =  0.700 |ddv_scf|^2 =  3.567E-16

      iter #  12 total cpu time :  4214.3 secs   av.it.:   8.1
      thresh= 1.889E-09 alpha_mix =  0.700 |ddv_scf|^2 =  4.840E-17

     End of self-consistent calculation

     Convergence has been achieved 


     Representation #  2 mode #   2

     Self-consistent Calculation

      iter #   1 total cpu time :  4282.8 secs   av.it.:   5.7
      thresh= 1.000E-02 alpha_mix =  0.700 |ddv_scf|^2 =  1.043E-04

      iter #   2 total cpu time :  4354.9 secs   av.it.:   7.4
      thresh= 1.021E-03 alpha_mix =  0.700 |ddv_scf|^2 =  7.132E-04

      iter #   3 total cpu time :  4414.1 secs   av.it.:   5.8
      thresh= 2.671E-03 alpha_mix =  0.700 |ddv_scf|^2 =  2.082E-07

      iter #   4 total cpu time :  4491.2 secs   av.it.:   8.2
      thresh= 4.563E-05 alpha_mix =  0.700 |ddv_scf|^2 =  6.125E-09

      iter #   5 total cpu time :  4567.6 secs   av.it.:   8.2
      thresh= 7.826E-06 alpha_mix =  0.700 |ddv_scf|^2 =  2.039E-10

      iter #   6 total cpu time :  4644.9 secs   av.it.:   8.3
      thresh= 1.428E-06 alpha_mix =  0.700 |ddv_scf|^2 =  1.577E-11

      iter #   7 total cpu time :  4720.6 secs   av.it.:   8.1
      thresh= 3.971E-07 alpha_mix =  0.700 |ddv_scf|^2 =  8.948E-13

      iter #   8 total cpu time :  4793.9 secs   av.it.:   7.8
      thresh= 9.460E-08 alpha_mix =  0.700 |ddv_scf|^2 =  2.369E-12

      iter #   9 total cpu time :  4853.9 secs   av.it.:   5.9
      thresh= 1.539E-07 alpha_mix =  0.700 |ddv_scf|^2 =  2.071E-14

      iter #  10 total cpu time :  4924.9 secs   av.it.:   7.5
      thresh= 1.439E-08 alpha_mix =  0.700 |ddv_scf|^2 =  1.369E-14

      iter #  11 total cpu time :  4987.7 secs   av.it.:   6.4
      thresh= 1.170E-08 alpha_mix =  0.700 |ddv_scf|^2 =  4.779E-16

      iter #  12 total cpu time :  5060.0 secs   av.it.:   7.8
      thresh= 2.186E-09 alpha_mix =  0.700 |ddv_scf|^2 =  3.555E-18

     End of self-consistent calculation

     Convergence has been achieved 


     Representation #  3 mode #   3

     Self-consistent Calculation

      iter #   1 total cpu time :  5126.5 secs   av.it.:   5.5
      thresh= 1.000E-02 alpha_mix =  0.700 |ddv_scf|^2 =  1.181E-05

      iter #   2 total cpu time :  5200.5 secs   av.it.:   7.9
      thresh= 3.437E-04 alpha_mix =  0.700 |ddv_scf|^2 =  1.818E-07

      iter #   3 total cpu time :  5276.8 secs   av.it.:   8.1
      thresh= 4.264E-05 alpha_mix =  0.700 |ddv_scf|^2 =  7.554E-09

      iter #   4 total cpu time :  5350.1 secs   av.it.:   7.6
      thresh= 8.691E-06 alpha_mix =  0.700 |ddv_scf|^2 =  2.544E-11

      iter #   5 total cpu time :  5425.8 secs   av.it.:   7.9
      thresh= 5.044E-07 alpha_mix =  0.700 |ddv_scf|^2 =  2.521E-14

      iter #   6 total cpu time :  5495.0 secs   av.it.:   7.1
      thresh= 1.588E-08 alpha_mix =  0.700 |ddv_scf|^2 =  1.429E-15

      iter #   7 total cpu time :  5568.7 secs   av.it.:   7.7
      thresh= 3.780E-09 alpha_mix =  0.700 |ddv_scf|^2 =  1.431E-18

     End of self-consistent calculation

     Convergence has been achieved 

     Number of q in the star =   24
     List of q in the star:
          1  -0.166666667   0.500000000  -0.166666667
          2   0.166666667   0.500000000   0.166666667
          3  -0.166666667   0.500000000   0.166666667
          4   0.166666667   0.500000000  -0.166666667
          5   0.500000000  -0.166666667   0.166666667
          6   0.166666667  -0.166666667   0.500000000
          7  -0.166666667  -0.500000000  -0.166666667
          8   0.166666667  -0.500000000  -0.166666667
          9  -0.166666667  -0.500000000   0.166666667
         10   0.500000000  -0.166666667  -0.166666667
         11  -0.500000000  -0.166666667   0.166666667
         12   0.500000000   0.166666667   0.166666667
         13  -0.166666667   0.166666667  -0.500000000
         14  -0.166666667  -0.166666667   0.500000000
         15   0.166666667   0.166666667   0.500000000
         16   0.166666667  -0.166666667  -0.500000000
         17  -0.500000000   0.166666667  -0.166666667
         18  -0.500000000  -0.166666667  -0.166666667
         19   0.166666667  -0.500000000   0.166666667
         20   0.500000000   0.166666667  -0.166666667
         21   0.166666667   0.166666667  -0.500000000
         22  -0.166666667  -0.166666667  -0.500000000
         23  -0.500000000   0.166666667   0.166666667
         24  -0.166666667   0.166666667   0.500000000

     Diagonalizing the dynamical matrix

     q = (   -0.166666667   0.500000000  -0.166666667 ) 

 **************************************************************************
     freq (    1) =       2.299278 [THz] =      76.695673 [cm-1]
     freq (    2) =       2.329431 [THz] =      77.701469 [cm-1]
     freq (    3) =       4.135615 [THz] =     137.949279 [cm-1]
 **************************************************************************

     Mode symmetry, C_s (m)     point group:

     freq (  1 -  1) =         76.7  [cm-1]   --> A'                 
     freq (  2 -  2) =         77.7  [cm-1]   --> A''                
     freq (  3 -  3) =        137.9  [cm-1]   --> A'                 

     Calculation of q =    0.6666667  -0.3333333   0.6666667

   Info: using nr1, nr2, nr3 values from input

   Info: using nr1, nr2, nr3 values from input

     Parallelization info
     --------------------
     sticks:   dense  smooth     PW     G-vecs:    dense   smooth      PW
     Min          59      29     12                 1221      427     112
     Max          60      30     13                 1225      430     114
     Sum         955     475    199                19579     6855    1807



     bravais-lattice index     =            2
     lattice parameter (alat)  =       9.2902  a.u.
     unit-cell volume          =     200.4522 (a.u.)^3
     number of atoms/cell      =            1
     number of atomic types    =            1
     number of electrons       =         9.00
     number of Kohn-Sham states=            9
     kinetic-energy cutoff     =      40.0000  Ry
     charge density cutoff     =     320.0000  Ry
     Exchange-correlation      = SLA  PW   PBE  PBE ( 1  4  3  4 0 0)

     celldm(1)=   9.290169  celldm(2)=   0.000000  celldm(3)=   0.000000
     celldm(4)=   0.000000  celldm(5)=   0.000000  celldm(6)=   0.000000

     crystal axes: (cart. coord. in units of alat)
               a(1) = (  -0.500000   0.000000   0.500000 )  
               a(2) = (   0.000000   0.500000   0.500000 )  
               a(3) = (  -0.500000   0.500000   0.000000 )  

     reciprocal axes: (cart. coord. in units 2 pi/alat)
               b(1) = ( -1.000000 -1.000000  1.000000 )  
               b(2) = (  1.000000  1.000000  1.000000 )  
               b(3) = ( -1.000000  1.000000 -1.000000 )  


     PseudoPot. # 1 for Na read from file:
     /home/s1333534/quantum_espresso/qe-6.1/pseudo/Na_pbe_v1.uspp.F.UPF
     MD5 check sum: 76a99c7e9422403d3e93cbc85ab7bccb
     Pseudo is Ultrasoft, Zval =  9.0
     Generated by new atomic code, or converted to UPF format
     Using radial grid of  819 points,  5 beta functions with: 
                l(1) =   0
                l(2) =   0
                l(3) =   1
                l(4) =   1
                l(5) =   2
     Q(r) pseudized with  8 coefficients,  rinner =    1.250   1.250   1.250
                                                       1.250   1.250

     atomic species   valence    mass     pseudopotential
        Na             9.00    22.99000     Na( 1.00)

     48 Sym. Ops., with inversion, found



   Cartesian axes

     site n.     atom                  positions (alat units)
         1           Na  tau(   1) = (   0.0000000   0.0000000   0.0000000  )

     number of k points= 32800  Marzari-Vanderbilt smearing, width (Ry)=  0.0200

     Number of k-points >= 100: set verbosity='high' to print them.

     Dense  grid:    19579 G-vectors     FFT dimensions: (  40,  40,  40)

     Smooth grid:     6855 G-vectors     FFT dimensions: (  27,  27,  27)

     Estimated max dynamical RAM per process >       0.67MB

     Estimated total allocated dynamical RAM >      43.02MB

     The potential is recalculated from file :
     ./_ph0/na.fcc.save/charge-density.dat

     Starting wfc are    5 atomic +    4 random wfc

     Band Structure Calculation
     Davidson diagonalization with overlap

     ethr =  1.11E-10,  avg # of iterations = 18.2

     total cpu time spent up to now is     1720.3 secs

     End of band structure calculation

     Number of k-points >= 100: set verbosity='high' to print the bands.

     the Fermi energy is     2.6442 ev

     Writing output data file na.fcc.save

                                                                                

     bravais-lattice index     =            2
     lattice parameter (alat)  =       9.2902  a.u.
     unit-cell volume          =     200.4522 (a.u.)^3
     number of atoms/cell      =            1
     number of atomic types    =            1
     kinetic-energy cut-off    =      40.0000  Ry
     charge density cut-off    =     320.0000  Ry
     convergence threshold     =      1.0E-16
     beta                      =       0.7000
     number of iterations used =            4
     Exchange-correlation      = SLA  PW   PBE  PBE ( 1  4  3  4 0 0)


     celldm(1)=    9.29017  celldm(2)=    0.00000  celldm(3)=    0.00000
     celldm(4)=    0.00000  celldm(5)=    0.00000  celldm(6)=    0.00000

     crystal axes: (cart. coord. in units of alat)
               a(1) = ( -0.5000  0.0000  0.5000 )  
               a(2) = (  0.0000  0.5000  0.5000 )  
               a(3) = ( -0.5000  0.5000  0.0000 )  

     reciprocal axes: (cart. coord. in units 2 pi/alat)
               b(1) = ( -1.0000 -1.0000  1.0000 )  
               b(2) = (  1.0000  1.0000  1.0000 )  
               b(3) = ( -1.0000  1.0000 -1.0000 )  


     Atoms inside the unit cell: 

     Cartesian axes

     site n.  atom      mass           positions (alat units)
        1     Na  22.9900   tau(    1) = (    0.00000    0.00000    0.00000  )

     Computing dynamical matrix for 
                    q = (   0.6666667  -0.3333333   0.6666667 )

      2 Sym.Ops. (no q -> -q+G )


     G cutoff =  699.5802  (   1225 G-vectors)     FFT grid: ( 40, 40, 40)
     G cutoff =  349.7901  (    430 G-vectors)  smooth grid: ( 27, 27, 27)

     number of k points= 32800  Marzari-Vanderbilt smearing, width (Ry)=  0.0200

     PseudoPot. # 1 for Na read from file:
     /home/s1333534/quantum_espresso/qe-6.1/pseudo/Na_pbe_v1.uspp.F.UPF
     MD5 check sum: 76a99c7e9422403d3e93cbc85ab7bccb
     Pseudo is Ultrasoft, Zval =  9.0
     Generated by new atomic code, or converted to UPF format
     Using radial grid of  819 points,  5 beta functions with: 
                l(1) =   0
                l(2) =   0
                l(3) =   1
                l(4) =   1
                l(5) =   2
     Q(r) pseudized with  8 coefficients,  rinner =    1.250   1.250   1.250
                                                       1.250   1.250

     Mode symmetry, C_s (m)     point group:


     Atomic displacements:
     There are   3 irreducible representations

     Representation     1      1 modes -A'  To be done

     Representation     2      1 modes -A'  To be done

     Representation     3      1 modes -A''  To be done



     Alpha used in Ewald sum =   2.8000
     PHONON       :     1h35m CPU        1h43m WALL



     Representation #  1 mode #   1

     Self-consistent Calculation

      iter #   1 total cpu time :  6264.0 secs   av.it.:   5.8
      thresh= 1.000E-02 alpha_mix =  0.700 |ddv_scf|^2 =  7.591E-05

      iter #   2 total cpu time :  6337.7 secs   av.it.:   7.4
      thresh= 8.712E-04 alpha_mix =  0.700 |ddv_scf|^2 =  5.189E-05

      iter #   3 total cpu time :  6408.5 secs   av.it.:   7.1
      thresh= 7.204E-04 alpha_mix =  0.700 |ddv_scf|^2 =  1.159E-07

      iter #   4 total cpu time :  6487.5 secs   av.it.:   8.3
      thresh= 3.405E-05 alpha_mix =  0.700 |ddv_scf|^2 =  8.691E-09

      iter #   5 total cpu time :  6565.5 secs   av.it.:   8.2
      thresh= 9.323E-06 alpha_mix =  0.700 |ddv_scf|^2 =  4.816E-10

      iter #   6 total cpu time :  6642.0 secs   av.it.:   8.0
      thresh= 2.195E-06 alpha_mix =  0.700 |ddv_scf|^2 =  7.385E-12

      iter #   7 total cpu time :  6720.2 secs   av.it.:   8.3
      thresh= 2.718E-07 alpha_mix =  0.700 |ddv_scf|^2 =  3.030E-13

      iter #   8 total cpu time :  6798.9 secs   av.it.:   8.3
      thresh= 5.504E-08 alpha_mix =  0.700 |ddv_scf|^2 =  2.459E-14

      iter #   9 total cpu time :  6877.9 secs   av.it.:   8.2
      thresh= 1.568E-08 alpha_mix =  0.700 |ddv_scf|^2 =  1.317E-15

      iter #  10 total cpu time :  6951.0 secs   av.it.:   7.4
      thresh= 3.629E-09 alpha_mix =  0.700 |ddv_scf|^2 =  7.172E-17

     End of self-consistent calculation

     Convergence has been achieved 


     Representation #  2 mode #   2

     Self-consistent Calculation

      iter #   1 total cpu time :  7021.9 secs   av.it.:   5.8
      thresh= 1.000E-02 alpha_mix =  0.700 |ddv_scf|^2 =  3.953E-05

      iter #   2 total cpu time :  7097.2 secs   av.it.:   7.7
      thresh= 6.287E-04 alpha_mix =  0.700 |ddv_scf|^2 =  1.631E-05

      iter #   3 total cpu time :  7169.7 secs   av.it.:   7.3
      thresh= 4.039E-04 alpha_mix =  0.700 |ddv_scf|^2 =  4.556E-07

      iter #   4 total cpu time :  7244.2 secs   av.it.:   7.7
      thresh= 6.750E-05 alpha_mix =  0.700 |ddv_scf|^2 =  1.366E-08

      iter #   5 total cpu time :  7321.7 secs   av.it.:   8.2
      thresh= 1.169E-05 alpha_mix =  0.700 |ddv_scf|^2 =  3.610E-10

      iter #   6 total cpu time :  7399.4 secs   av.it.:   8.1
      thresh= 1.900E-06 alpha_mix =  0.700 |ddv_scf|^2 =  1.841E-11

      iter #   7 total cpu time :  7478.3 secs   av.it.:   8.3
      thresh= 4.291E-07 alpha_mix =  0.700 |ddv_scf|^2 =  1.023E-12

      iter #   8 total cpu time :  7556.8 secs   av.it.:   8.3
      thresh= 1.012E-07 alpha_mix =  0.700 |ddv_scf|^2 =  2.961E-14

      iter #   9 total cpu time :  7634.1 secs   av.it.:   8.0
      thresh= 1.721E-08 alpha_mix =  0.700 |ddv_scf|^2 =  6.208E-15

      iter #  10 total cpu time :  7707.4 secs   av.it.:   7.6
      thresh= 7.879E-09 alpha_mix =  0.700 |ddv_scf|^2 =  1.283E-16

      iter #  11 total cpu time :  7784.8 secs   av.it.:   8.2
      thresh= 1.133E-09 alpha_mix =  0.700 |ddv_scf|^2 =  3.943E-18

     End of self-consistent calculation

     Convergence has been achieved 


     Representation #  3 mode #   3

     Self-consistent Calculation

      iter #   1 total cpu time :  7851.9 secs   av.it.:   5.5
      thresh= 1.000E-02 alpha_mix =  0.700 |ddv_scf|^2 =  1.179E-05

      iter #   2 total cpu time :  7927.4 secs   av.it.:   7.9
      thresh= 3.434E-04 alpha_mix =  0.700 |ddv_scf|^2 =  1.837E-07

      iter #   3 total cpu time :  8003.9 secs   av.it.:   8.0
      thresh= 4.286E-05 alpha_mix =  0.700 |ddv_scf|^2 =  7.356E-09

      iter #   4 total cpu time :  8076.7 secs   av.it.:   7.6
      thresh= 8.577E-06 alpha_mix =  0.700 |ddv_scf|^2 =  2.561E-11

      iter #   5 total cpu time :  8153.7 secs   av.it.:   7.9
      thresh= 5.060E-07 alpha_mix =  0.700 |ddv_scf|^2 =  2.680E-14

      iter #   6 total cpu time :  8224.0 secs   av.it.:   7.1
      thresh= 1.637E-08 alpha_mix =  0.700 |ddv_scf|^2 =  1.492E-15

      iter #   7 total cpu time :  8298.7 secs   av.it.:   7.7
      thresh= 3.863E-09 alpha_mix =  0.700 |ddv_scf|^2 =  1.471E-18

     End of self-consistent calculation

     Convergence has been achieved 

     Number of q in the star =   24
     List of q in the star:
          1   0.666666667  -0.333333333   0.666666667
          2  -0.666666667  -0.333333333  -0.666666667
          3   0.666666667  -0.333333333  -0.666666667
          4  -0.666666667  -0.333333333   0.666666667
          5  -0.333333333   0.666666667  -0.666666667
          6  -0.666666667   0.666666667  -0.333333333
          7   0.666666667   0.333333333   0.666666667
          8  -0.666666667   0.333333333   0.666666667
          9   0.666666667   0.333333333  -0.666666667
         10  -0.333333333   0.666666667   0.666666667
         11   0.333333333   0.666666667  -0.666666667
         12  -0.333333333  -0.666666667  -0.666666667
         13   0.666666667  -0.666666667   0.333333333
         14   0.666666667   0.666666667  -0.333333333
         15  -0.666666667  -0.666666667  -0.333333333
         16  -0.666666667   0.666666667   0.333333333
         17   0.333333333  -0.666666667   0.666666667
         18   0.333333333   0.666666667   0.666666667
         19  -0.666666667   0.333333333  -0.666666667
         20  -0.333333333  -0.666666667   0.666666667
         21  -0.666666667  -0.666666667   0.333333333
         22   0.666666667   0.666666667   0.333333333
         23   0.333333333  -0.666666667  -0.666666667
         24   0.666666667  -0.666666667  -0.333333333

     Diagonalizing the dynamical matrix

     q = (    0.666666667  -0.333333333   0.666666667 ) 

 **************************************************************************
     freq (    1) =       2.436357 [THz] =      81.268123 [cm-1]
     freq (    2) =       2.958600 [THz] =      98.688267 [cm-1]
     freq (    3) =       5.102487 [THz] =     170.200661 [cm-1]
 **************************************************************************

     Mode symmetry, C_s (m)     point group:

     freq (  1 -  1) =         81.3  [cm-1]   --> A''                
     freq (  2 -  2) =         98.7  [cm-1]   --> A'                 
     freq (  3 -  3) =        170.2  [cm-1]   --> A'                 

     Calculation of q =    0.5000000  -0.1666667   0.5000000

   Info: using nr1, nr2, nr3 values from input

   Info: using nr1, nr2, nr3 values from input

     Parallelization info
     --------------------
     sticks:   dense  smooth     PW     G-vecs:    dense   smooth      PW
     Min          59      29     11                 1221      427     101
     Max          60      30     12                 1225      430     103
     Sum         955     475    187                19579     6855    1639



     bravais-lattice index     =            2
     lattice parameter (alat)  =       9.2902  a.u.
     unit-cell volume          =     200.4522 (a.u.)^3
     number of atoms/cell      =            1
     number of atomic types    =            1
     number of electrons       =         9.00
     number of Kohn-Sham states=            9
     kinetic-energy cutoff     =      40.0000  Ry
     charge density cutoff     =     320.0000  Ry
     Exchange-correlation      = SLA  PW   PBE  PBE ( 1  4  3  4 0 0)

     celldm(1)=   9.290169  celldm(2)=   0.000000  celldm(3)=   0.000000
     celldm(4)=   0.000000  celldm(5)=   0.000000  celldm(6)=   0.000000

     crystal axes: (cart. coord. in units of alat)
               a(1) = (  -0.500000   0.000000   0.500000 )  
               a(2) = (   0.000000   0.500000   0.500000 )  
               a(3) = (  -0.500000   0.500000   0.000000 )  

     reciprocal axes: (cart. coord. in units 2 pi/alat)
               b(1) = ( -1.000000 -1.000000  1.000000 )  
               b(2) = (  1.000000  1.000000  1.000000 )  
               b(3) = ( -1.000000  1.000000 -1.000000 )  


     PseudoPot. # 1 for Na read from file:
     /home/s1333534/quantum_espresso/qe-6.1/pseudo/Na_pbe_v1.uspp.F.UPF
     MD5 check sum: 76a99c7e9422403d3e93cbc85ab7bccb
     Pseudo is Ultrasoft, Zval =  9.0
     Generated by new atomic code, or converted to UPF format
     Using radial grid of  819 points,  5 beta functions with: 
                l(1) =   0
                l(2) =   0
                l(3) =   1
                l(4) =   1
                l(5) =   2
     Q(r) pseudized with  8 coefficients,  rinner =    1.250   1.250   1.250
                                                       1.250   1.250

     atomic species   valence    mass     pseudopotential
        Na             9.00    22.99000     Na( 1.00)

     48 Sym. Ops., with inversion, found



   Cartesian axes

     site n.     atom                  positions (alat units)
         1           Na  tau(   1) = (   0.0000000   0.0000000   0.0000000  )

     number of k points= 32800  Marzari-Vanderbilt smearing, width (Ry)=  0.0200

     Number of k-points >= 100: set verbosity='high' to print them.

     Dense  grid:    19579 G-vectors     FFT dimensions: (  40,  40,  40)

     Smooth grid:     6855 G-vectors     FFT dimensions: (  27,  27,  27)

     Estimated max dynamical RAM per process >       0.67MB

     Estimated total allocated dynamical RAM >      43.02MB

     The potential is recalculated from file :
     ./_ph0/na.fcc.save/charge-density.dat

     Starting wfc are    5 atomic +    4 random wfc

     Band Structure Calculation
     Davidson diagonalization with overlap

     ethr =  1.11E-10,  avg # of iterations = 18.2

     total cpu time spent up to now is     2305.7 secs

     End of band structure calculation

     Number of k-points >= 100: set verbosity='high' to print the bands.

     the Fermi energy is     2.6442 ev

     Writing output data file na.fcc.save

                                                                                

     bravais-lattice index     =            2
     lattice parameter (alat)  =       9.2902  a.u.
     unit-cell volume          =     200.4522 (a.u.)^3
     number of atoms/cell      =            1
     number of atomic types    =            1
     kinetic-energy cut-off    =      40.0000  Ry
     charge density cut-off    =     320.0000  Ry
     convergence threshold     =      1.0E-16
     beta                      =       0.7000
     number of iterations used =            4
     Exchange-correlation      = SLA  PW   PBE  PBE ( 1  4  3  4 0 0)


     celldm(1)=    9.29017  celldm(2)=    0.00000  celldm(3)=    0.00000
     celldm(4)=    0.00000  celldm(5)=    0.00000  celldm(6)=    0.00000

     crystal axes: (cart. coord. in units of alat)
               a(1) = ( -0.5000  0.0000  0.5000 )  
               a(2) = (  0.0000  0.5000  0.5000 )  
               a(3) = ( -0.5000  0.5000  0.0000 )  

     reciprocal axes: (cart. coord. in units 2 pi/alat)
               b(1) = ( -1.0000 -1.0000  1.0000 )  
               b(2) = (  1.0000  1.0000  1.0000 )  
               b(3) = ( -1.0000  1.0000 -1.0000 )  


     Atoms inside the unit cell: 

     Cartesian axes

     site n.  atom      mass           positions (alat units)
        1     Na  22.9900   tau(    1) = (    0.00000    0.00000    0.00000  )

     Computing dynamical matrix for 
                    q = (   0.5000000  -0.1666667   0.5000000 )

      2 Sym.Ops. (no q -> -q+G )


     G cutoff =  699.5802  (   1225 G-vectors)     FFT grid: ( 40, 40, 40)
     G cutoff =  349.7901  (    430 G-vectors)  smooth grid: ( 27, 27, 27)

     number of k points= 32800  Marzari-Vanderbilt smearing, width (Ry)=  0.0200

     PseudoPot. # 1 for Na read from file:
     /home/s1333534/quantum_espresso/qe-6.1/pseudo/Na_pbe_v1.uspp.F.UPF
     MD5 check sum: 76a99c7e9422403d3e93cbc85ab7bccb
     Pseudo is Ultrasoft, Zval =  9.0
     Generated by new atomic code, or converted to UPF format
     Using radial grid of  819 points,  5 beta functions with: 
                l(1) =   0
                l(2) =   0
                l(3) =   1
                l(4) =   1
                l(5) =   2
     Q(r) pseudized with  8 coefficients,  rinner =    1.250   1.250   1.250
                                                       1.250   1.250

     Mode symmetry, C_s (m)     point group:


     Atomic displacements:
     There are   3 irreducible representations

     Representation     1      1 modes -A'  To be done

     Representation     2      1 modes -A'  To be done

     Representation     3      1 modes -A''  To be done



     Alpha used in Ewald sum =   2.8000
     PHONON       :     2h17m CPU        2h28m WALL



     Representation #  1 mode #   1

     Self-consistent Calculation

      iter #   1 total cpu time :  8980.3 secs   av.it.:   5.8
[...]

      iter #   4 total cpu time : 21606.6 secs   av.it.:   8.3
      thresh= 1.869E-05 alpha_mix =  0.700 |ddv_scf|^2 =  9.948E-10

      iter #   5 total cpu time : 21681.0 secs   av.it.:   7.8
      thresh= 3.154E-06 alpha_mix =  0.700 |ddv_scf|^2 =  3.070E-11

      iter #   6 total cpu time : 21754.3 secs   av.it.:   7.6
      thresh= 5.541E-07 alpha_mix =  0.700 |ddv_scf|^2 =  5.743E-14

      iter #   7 total cpu time : 21830.6 secs   av.it.:   7.9
      thresh= 2.396E-08 alpha_mix =  0.700 |ddv_scf|^2 =  4.227E-15

      iter #   8 total cpu time : 21905.6 secs   av.it.:   7.9
      thresh= 6.502E-09 alpha_mix =  0.700 |ddv_scf|^2 =  1.245E-17

     End of self-consistent calculation

     Convergence has been achieved 

     Number of q in the star =   24
     List of q in the star:
          1   0.500000000  -0.166666667   0.833333333
          2   0.833333333   0.166666667   0.500000000
          3   0.500000000   0.166666667   0.833333333
          4  -0.833333333  -0.166666667   0.500000000
          5  -0.833333333  -0.166666667  -0.500000000
          6  -0.500000000  -0.166666667  -0.833333333
          7   0.833333333  -0.166666667   0.500000000
          8  -0.500000000  -0.166666667   0.833333333
          9  -0.833333333   0.166666667   0.500000000
         10   0.833333333   0.166666667  -0.500000000
         11   0.833333333  -0.166666667  -0.500000000
         12   0.500000000   0.166666667  -0.833333333
         13  -0.500000000   0.166666667   0.833333333
         14  -0.500000000   0.166666667  -0.833333333
         15  -0.833333333   0.166666667  -0.500000000
         16   0.833333333  -0.500000000   0.166666667
         17   0.833333333   0.500000000  -0.166666667
         18  -0.833333333  -0.500000000  -0.166666667
         19  -0.833333333   0.500000000   0.166666667
         20   0.166666667  -0.500000000   0.833333333
         21  -0.166666667   0.500000000   0.833333333
         22   0.166666667   0.500000000  -0.833333333
         23  -0.166666667  -0.500000000  -0.833333333
         24  -0.500000000   0.833333333   0.166666667

     Diagonalizing the dynamical matrix

     q = (    0.500000000  -0.166666667   0.833333333 ) 

 **************************************************************************
     freq (    1) =       2.926975 [THz] =      97.633381 [cm-1]
     freq (    2) =       4.073828 [THz] =     135.888278 [cm-1]
     freq (    3) =       4.841970 [THz] =     161.510727 [cm-1]
 **************************************************************************

     Mode symmetry, C_2  (2)    point group:

     freq (  1 -  1) =         97.6  [cm-1]   --> B                  
     freq (  2 -  2) =        135.9  [cm-1]   --> A                  
     freq (  3 -  3) =        161.5  [cm-1]   --> B                  

     Calculation of q =   -0.3333333  -1.0000000   0.0000000

   Info: using nr1, nr2, nr3 values from input

   Info: using nr1, nr2, nr3 values from input

     Parallelization info
     --------------------
     sticks:   dense  smooth     PW     G-vecs:    dense   smooth      PW
     Min          59      29     12                 1221      427     112
     Max          60      30     13                 1225      430     114
     Sum         955     475    199                19579     6855    1807



     bravais-lattice index     =            2
     lattice parameter (alat)  =       9.2902  a.u.
     unit-cell volume          =     200.4522 (a.u.)^3
     number of atoms/cell      =            1
     number of atomic types    =            1
     number of electrons       =         9.00
     number of Kohn-Sham states=            9
     kinetic-energy cutoff     =      40.0000  Ry
     charge density cutoff     =     320.0000  Ry
     Exchange-correlation      = SLA  PW   PBE  PBE ( 1  4  3  4 0 0)

     celldm(1)=   9.290169  celldm(2)=   0.000000  celldm(3)=   0.000000
     celldm(4)=   0.000000  celldm(5)=   0.000000  celldm(6)=   0.000000

     crystal axes: (cart. coord. in units of alat)
               a(1) = (  -0.500000   0.000000   0.500000 )  
               a(2) = (   0.000000   0.500000   0.500000 )  
               a(3) = (  -0.500000   0.500000   0.000000 )  

     reciprocal axes: (cart. coord. in units 2 pi/alat)
               b(1) = ( -1.000000 -1.000000  1.000000 )  
               b(2) = (  1.000000  1.000000  1.000000 )  
               b(3) = ( -1.000000  1.000000 -1.000000 )  


     PseudoPot. # 1 for Na read from file:
     /home/s1333534/quantum_espresso/qe-6.1/pseudo/Na_pbe_v1.uspp.F.UPF
     MD5 check sum: 76a99c7e9422403d3e93cbc85ab7bccb
     Pseudo is Ultrasoft, Zval =  9.0
     Generated by new atomic code, or converted to UPF format
     Using radial grid of  819 points,  5 beta functions with: 
                l(1) =   0
                l(2) =   0
                l(3) =   1
                l(4) =   1
                l(5) =   2
     Q(r) pseudized with  8 coefficients,  rinner =    1.250   1.250   1.250
                                                       1.250   1.250

     atomic species   valence    mass     pseudopotential
        Na             9.00    22.99000     Na( 1.00)

     48 Sym. Ops., with inversion, found



   Cartesian axes

     site n.     atom                  positions (alat units)
         1           Na  tau(   1) = (   0.0000000   0.0000000   0.0000000  )

     number of k points= 16000  Marzari-Vanderbilt smearing, width (Ry)=  0.0200

     Number of k-points >= 100: set verbosity='high' to print them.

     Dense  grid:    19579 G-vectors     FFT dimensions: (  40,  40,  40)

     Smooth grid:     6855 G-vectors     FFT dimensions: (  27,  27,  27)

     Estimated max dynamical RAM per process >       0.67MB

     Estimated total allocated dynamical RAM >      43.02MB

     The potential is recalculated from file :
     ./_ph0/na.fcc.save/charge-density.dat

     Starting wfc are    5 atomic +    4 random wfc

     Band Structure Calculation
     Davidson diagonalization with overlap

     ethr =  1.11E-10,  avg # of iterations = 18.1

     total cpu time spent up to now is     5235.7 secs

     End of band structure calculation

     Number of k-points >= 100: set verbosity='high' to print the bands.

     the Fermi energy is     2.6442 ev

     Writing output data file na.fcc.save

                                                                                

     bravais-lattice index     =            2
     lattice parameter (alat)  =       9.2902  a.u.
     unit-cell volume          =     200.4522 (a.u.)^3
     number of atoms/cell      =            1
     number of atomic types    =            1
     kinetic-energy cut-off    =      40.0000  Ry
     charge density cut-off    =     320.0000  Ry
     convergence threshold     =      1.0E-16
     beta                      =       0.7000
     number of iterations used =            4
     Exchange-correlation      = SLA  PW   PBE  PBE ( 1  4  3  4 0 0)


     celldm(1)=    9.29017  celldm(2)=    0.00000  celldm(3)=    0.00000
     celldm(4)=    0.00000  celldm(5)=    0.00000  celldm(6)=    0.00000

     crystal axes: (cart. coord. in units of alat)
               a(1) = ( -0.5000  0.0000  0.5000 )  
               a(2) = (  0.0000  0.5000  0.5000 )  
               a(3) = ( -0.5000  0.5000  0.0000 )  

     reciprocal axes: (cart. coord. in units 2 pi/alat)
               b(1) = ( -1.0000 -1.0000  1.0000 )  
               b(2) = (  1.0000  1.0000  1.0000 )  
               b(3) = ( -1.0000  1.0000 -1.0000 )  


     Atoms inside the unit cell: 

     Cartesian axes

     site n.  atom      mass           positions (alat units)
        1     Na  22.9900   tau(    1) = (    0.00000    0.00000    0.00000  )

     Computing dynamical matrix for 
                    q = (  -0.3333333  -1.0000000   0.0000000 )

      4 Sym.Ops. (no q -> -q+G )


     G cutoff =  699.5802  (   1225 G-vectors)     FFT grid: ( 40, 40, 40)
     G cutoff =  349.7901  (    430 G-vectors)  smooth grid: ( 27, 27, 27)

     number of k points= 16000  Marzari-Vanderbilt smearing, width (Ry)=  0.0200

     PseudoPot. # 1 for Na read from file:
     /home/s1333534/quantum_espresso/qe-6.1/pseudo/Na_pbe_v1.uspp.F.UPF
     MD5 check sum: 76a99c7e9422403d3e93cbc85ab7bccb
     Pseudo is Ultrasoft, Zval =  9.0
     Generated by new atomic code, or converted to UPF format
     Using radial grid of  819 points,  5 beta functions with: 
                l(1) =   0
                l(2) =   0
                l(3) =   1
                l(4) =   1
                l(5) =   2
     Q(r) pseudized with  8 coefficients,  rinner =    1.250   1.250   1.250
                                                       1.250   1.250

     Mode symmetry, C_2v (mm2)  point group:


     Atomic displacements:
     There are   3 irreducible representations

     Representation     1      1 modes -A_1  D_1  S_1  To be done

     Representation     2      1 modes -B_1  D_3  S_3  To be done

     Representation     3      1 modes -B_2  D_4  S_4  To be done



     Alpha used in Ewald sum =   2.8000
     PHONON       :     5h42m CPU        6h10m WALL



     Representation #  1 mode #   1

     Self-consistent Calculation

      iter #   1 total cpu time : 22244.7 secs   av.it.:   5.6
      thresh= 1.000E-02 alpha_mix =  0.700 |ddv_scf|^2 =  1.777E-05

      iter #   2 total cpu time : 22282.6 secs   av.it.:   8.0
      thresh= 4.216E-04 alpha_mix =  0.700 |ddv_scf|^2 =  5.705E-07

      iter #   3 total cpu time : 22319.1 secs   av.it.:   7.7
      thresh= 7.553E-05 alpha_mix =  0.700 |ddv_scf|^2 =  1.811E-08

      iter #   4 total cpu time : 22357.4 secs   av.it.:   8.2
      thresh= 1.346E-05 alpha_mix =  0.700 |ddv_scf|^2 =  7.982E-10

      iter #   5 total cpu time : 22395.0 secs   av.it.:   8.1
      thresh= 2.825E-06 alpha_mix =  0.700 |ddv_scf|^2 =  4.645E-11

      iter #   6 total cpu time : 22433.0 secs   av.it.:   8.2
      thresh= 6.816E-07 alpha_mix =  0.700 |ddv_scf|^2 =  3.479E-12

      iter #   7 total cpu time : 22470.7 secs   av.it.:   8.1
      thresh= 1.865E-07 alpha_mix =  0.700 |ddv_scf|^2 =  6.600E-14

      iter #   8 total cpu time : 22508.3 secs   av.it.:   7.9
      thresh= 2.569E-08 alpha_mix =  0.700 |ddv_scf|^2 =  6.141E-16

      iter #   9 total cpu time : 22546.5 secs   av.it.:   8.2
      thresh= 2.478E-09 alpha_mix =  0.700 |ddv_scf|^2 =  3.731E-17

     End of self-consistent calculation

     Convergence has been achieved 


     Representation #  2 mode #   2

     Self-consistent Calculation

      iter #   1 total cpu time : 22580.0 secs   av.it.:   5.6
      thresh= 1.000E-02 alpha_mix =  0.700 |ddv_scf|^2 =  1.973E-05

      iter #   2 total cpu time : 22617.3 secs   av.it.:   7.8
      thresh= 4.442E-04 alpha_mix =  0.700 |ddv_scf|^2 =  3.827E-07

      iter #   3 total cpu time : 22654.9 secs   av.it.:   7.8
      thresh= 6.186E-05 alpha_mix =  0.700 |ddv_scf|^2 =  1.951E-08

      iter #   4 total cpu time : 22693.4 secs   av.it.:   8.0
      thresh= 1.397E-05 alpha_mix =  0.700 |ddv_scf|^2 =  1.967E-10

      iter #   5 total cpu time : 22728.5 secs   av.it.:   7.2
      thresh= 1.402E-06 alpha_mix =  0.700 |ddv_scf|^2 =  1.559E-13

      iter #   6 total cpu time : 22765.1 secs   av.it.:   7.7
      thresh= 3.948E-08 alpha_mix =  0.700 |ddv_scf|^2 =  4.815E-15

      iter #   7 total cpu time : 22801.1 secs   av.it.:   7.7
      thresh= 6.939E-09 alpha_mix =  0.700 |ddv_scf|^2 =  4.310E-17

     End of self-consistent calculation

     Convergence has been achieved 


     Representation #  3 mode #   3

     Self-consistent Calculation

      iter #   1 total cpu time : 22835.4 secs   av.it.:   5.6
      thresh= 1.000E-02 alpha_mix =  0.700 |ddv_scf|^2 =  3.844E-05

      iter #   2 total cpu time : 22872.4 secs   av.it.:   7.6
      thresh= 6.200E-04 alpha_mix =  0.700 |ddv_scf|^2 =  3.724E-06

      iter #   3 total cpu time : 22907.9 secs   av.it.:   7.3
      thresh= 1.930E-04 alpha_mix =  0.700 |ddv_scf|^2 =  3.830E-08

      iter #   4 total cpu time : 22946.2 secs   av.it.:   8.1
      thresh= 1.957E-05 alpha_mix =  0.700 |ddv_scf|^2 =  1.630E-10

      iter #   5 total cpu time : 22980.9 secs   av.it.:   7.3
      thresh= 1.277E-06 alpha_mix =  0.700 |ddv_scf|^2 =  1.892E-13

      iter #   6 total cpu time : 23017.1 secs   av.it.:   7.7
      thresh= 4.349E-08 alpha_mix =  0.700 |ddv_scf|^2 =  8.758E-15

      iter #   7 total cpu time : 23051.3 secs   av.it.:   7.3
      thresh= 9.358E-09 alpha_mix =  0.700 |ddv_scf|^2 =  1.564E-17

     End of self-consistent calculation

     Convergence has been achieved 

     Number of q in the star =   12
     List of q in the star:
          1  -0.333333333  -1.000000000   0.000000000
          2   0.000000000  -1.000000000  -0.333333333
          3   0.000000000  -1.000000000   0.333333333
          4   0.333333333  -1.000000000   0.000000000
          5  -1.000000000   0.000000000  -0.333333333
          6   1.000000000   0.000000000   0.333333333
          7   0.000000000   0.333333333   1.000000000
          8   0.000000000  -0.333333333  -1.000000000
          9  -1.000000000  -0.333333333   0.000000000
         10   1.000000000   0.333333333   0.000000000
         11  -0.333333333   0.000000000   1.000000000
         12   0.333333333   0.000000000   1.000000000

     Diagonalizing the dynamical matrix

     q = (   -0.333333333  -1.000000000   0.000000000 ) 

 **************************************************************************
     freq (    1) =       3.371051 [THz] =     112.446142 [cm-1]
     freq (    2) =       4.053248 [THz] =     135.201814 [cm-1]
     freq (    3) =       4.988928 [THz] =     166.412713 [cm-1]
 **************************************************************************

     Mode symmetry, C_2v (mm2)  point group:

     freq (  1 -  1) =        112.4  [cm-1]   --> A_1  D_1  S_1      
     freq (  2 -  2) =        135.2  [cm-1]   --> B_1  D_3  S_3      
     freq (  3 -  3) =        166.4  [cm-1]   --> B_2  D_4  S_4      

     init_run     :      3.28s CPU      3.43s WALL (      15 calls)
     electrons    :   4151.53s CPU   4389.87s WALL (      15 calls)

     Called by init_run:
     wfcinit      :      0.00s CPU      0.00s WALL (      15 calls)
     potinit      :      0.62s CPU      0.64s WALL (      15 calls)

     Called by electrons:
     c_bands      :   4150.38s CPU   4388.70s WALL (      15 calls)
     v_of_rho     :      0.17s CPU      0.18s WALL (      16 calls)
     newd         :      0.14s CPU      0.15s WALL (      16 calls)

     Called by c_bands:
     init_us_2    :     85.63s CPU     92.78s WALL ( 1265344 calls)
     cegterg      :   3287.63s CPU   3505.13s WALL (   92273 calls)

     Called by sum_band:

     Called by *egterg:
     h_psi        :  12514.25s CPU  13540.88s WALL (11581119 calls)
     s_psi        :    335.63s CPU    370.60s WALL (22577973 calls)
     g_psi        :      9.94s CPU     10.80s WALL ( 1404548 calls)
     cdiaghg      :    896.44s CPU    953.03s WALL ( 1477974 calls)

     Called by h_psi:
     h_psi:pot    :  12428.66s CPU  13445.22s WALL (11581119 calls)
     h_psi:calbec :    695.65s CPU    747.25s WALL (11581119 calls)
     vloc_psi     :  11419.53s CPU  12358.30s WALL (11581119 calls)
     add_vuspsi   :    181.84s CPU    199.98s WALL (11581119 calls)

     General routines
     calbec       :   1339.09s CPU   1445.36s WALL (24633650 calls)
     fft          :      4.56s CPU      5.20s WALL (    6481 calls)
     ffts         :     15.64s CPU     16.99s WALL (  112705 calls)
     fftw         :  12615.55s CPU  13703.97s WALL (******** calls)
     interpolate  :      0.71s CPU      0.88s WALL (     888 calls)
     davcio       :    122.09s CPU    208.75s WALL ( 5136377 calls)

     Parallel routines
     fft_scatter  :   5484.03s CPU   5944.27s WALL (******** calls)

     PHONON       :     5h54m CPU        6h24m WALL

     INITIALIZATION: 
     phq_setup    :      0.77s CPU      0.82s WALL (      16 calls)
     phq_init     :    237.39s CPU    250.65s WALL (      16 calls)

     phq_init     :    237.39s CPU    250.65s WALL (      16 calls)
     init_vloc    :      0.13s CPU      0.13s WALL (      16 calls)
     init_us_1    :      1.33s CPU      1.45s WALL (      16 calls)
     newd         :      0.14s CPU      0.15s WALL (      16 calls)
     dvanqq       :      0.56s CPU      0.57s WALL (      16 calls)
     drho         :    182.27s CPU    192.46s WALL (      16 calls)

     DYNAMICAL MATRIX:
     dynmat0      :     36.27s CPU     37.92s WALL (      16 calls)
     phqscf       :  16005.98s CPU  17511.76s WALL (      16 calls)
     dynmatrix    :      0.12s CPU      0.12s WALL (      16 calls)

     phqscf       :  16005.98s CPU  17511.76s WALL (      16 calls)
     solve_linter :  15946.14s CPU  17448.40s WALL (      40 calls)
     drhodv       :     59.61s CPU     62.97s WALL (      40 calls)

     dynmat0      :     36.27s CPU     37.92s WALL (      16 calls)
     dynmat_us    :     36.21s CPU     37.86s WALL (      16 calls)
     d2ionq       :      0.01s CPU      0.01s WALL (      16 calls)

     dynmat_us    :     36.21s CPU     37.86s WALL (      16 calls)
     addusdynmat  :      0.00s CPU      0.00s WALL (      16 calls)

     phqscf       :  16005.98s CPU  17511.76s WALL (      16 calls)
     solve_linter :  15946.14s CPU  17448.40s WALL (      40 calls)

     solve_linter :  15946.14s CPU  17448.40s WALL (      40 calls)
     dvqpsi_us    :    310.30s CPU    332.12s WALL (  110718 calls)
     ortho        :    205.00s CPU    219.75s WALL (  985982 calls)
     cgsolve      :  12624.87s CPU  13733.44s WALL (  985982 calls)
     incdrhoscf   :   1215.10s CPU   1382.49s WALL (  985982 calls)
     addusddens   :      4.13s CPU      4.24s WALL (     390 calls)
     vpsifft      :   1006.04s CPU   1092.93s WALL (  875264 calls)
     dv_of_drho   :      3.55s CPU      3.98s WALL (     404 calls)
     mix_pot      :      0.65s CPU      2.43s WALL (     350 calls)
     ef_shift     :      0.03s CPU      0.12s WALL (       7 calls)
     localdos     :      0.22s CPU      0.23s WALL (       1 calls)
     psymdvscf    :     25.81s CPU     26.51s WALL (     350 calls)
     newdq        :      4.20s CPU      4.26s WALL (     350 calls)
     adddvscf     :     52.67s CPU     56.64s WALL (  875264 calls)
     drhodvus     :      0.02s CPU      0.02s WALL (      40 calls)

     dvqpsi_us    :    310.30s CPU    332.12s WALL (  110718 calls)
     dvqpsi_us_on :     52.37s CPU     55.11s WALL (  110718 calls)

     cgsolve      :  12624.87s CPU  13733.44s WALL (  985982 calls)
     ch_psi       :  11945.67s CPU  12984.99s WALL (10010872 calls)

     ch_psi       :  11945.67s CPU  12984.99s WALL (10010872 calls)
     h_psi        :  12514.25s CPU  13540.88s WALL (11581119 calls)
     last         :   1216.29s CPU   1328.83s WALL (10010872 calls)

     h_psi        :  12514.25s CPU  13540.88s WALL (11581119 calls)
     add_vuspsi   :    181.84s CPU    199.98s WALL (11581119 calls)

     incdrhoscf   :   1215.10s CPU   1382.49s WALL (  985982 calls)
     addusdbec    :    102.27s CPU    108.92s WALL ( 1096700 calls)

     drhodvus     :      0.02s CPU      0.02s WALL (      40 calls)

      General routines
     calbec       :   1339.09s CPU   1445.36s WALL (24633650 calls)
     fft          :      4.56s CPU      5.20s WALL (    6481 calls)
     ffts         :     15.64s CPU     16.99s WALL (  112705 calls)
     fftw         :  12615.55s CPU  13703.97s WALL (******** calls)
     davcio       :    122.09s CPU    208.75s WALL ( 5136377 calls)
     write_rec    :      1.30s CPU      2.86s WALL (     390 calls)


     PHONON       :     5h54m CPU        6h24m WALL


   This run was terminated on:  23:29:15  29Jan2018            

=------------------------------------------------------------------------------=
   JOB DONE.
=------------------------------------------------------------------------------=
