
     Program PWSCF v.6.1 (svn rev. 13369) starts on  1Feb2018 at  5:25:47 

     This program is part of the open-source Quantum ESPRESSO suite
     for quantum simulation of materials; please cite
         "P. Giannozzi et al., J. Phys.:Condens. Matter 21 395502 (2009);
          URL http://www.quantum-espresso.org", 
     in publications or presentations arising from this work. More details at
     http://www.quantum-espresso.org/quote

     Parallel version (MPI), running on    64 processors
     K-points division:     npool     =       4
     R & G space division:  proc/nbgrp/npool/nimage =      16
     Waiting for input...
     Reading input from standard input

     Current dimensions of program PWSCF are:
     Max number of different atomic species (ntypx) = 10
     Max number of k-points (npk) =  80000
     Max angular momentum in pseudopotentials (lmaxx) =  3

     Subspace diagonalization in iterative solution of the eigenvalue problem:
     a serial algorithm will be used


     Parallelization info
     --------------------
     sticks:   dense  smooth     PW     G-vecs:    dense   smooth      PW
     Min          79      39     12                 1791      624     108
     Max          80      40     13                 1793      626     110
     Sum        1267     627    201                28675    10005    1745



     bravais-lattice index     =            3
     lattice parameter (alat)  =       8.4000  a.u.
     unit-cell volume          =     296.3520 (a.u.)^3
     number of atoms/cell      =            1
     number of atomic types    =            1
     number of electrons       =         9.00
     number of Kohn-Sham states=            9
     kinetic-energy cutoff     =      40.0000  Ry
     charge density cutoff     =     320.0000  Ry
     convergence threshold     =      1.0E-10
     mixing beta               =       0.7000
     number of iterations used =            8  plain     mixing
     Exchange-correlation      = SLA  PW   PBE  PBE ( 1  4  3  4 0 0)

     celldm(1)=   8.400000  celldm(2)=   0.000000  celldm(3)=   0.000000
     celldm(4)=   0.000000  celldm(5)=   0.000000  celldm(6)=   0.000000

     crystal axes: (cart. coord. in units of alat)
               a(1) = (   0.500000   0.500000   0.500000 )  
               a(2) = (  -0.500000   0.500000   0.500000 )  
               a(3) = (  -0.500000  -0.500000   0.500000 )  

     reciprocal axes: (cart. coord. in units 2 pi/alat)
               b(1) = (  1.000000  0.000000  1.000000 )  
               b(2) = ( -1.000000  1.000000  0.000000 )  
               b(3) = (  0.000000 -1.000000  1.000000 )  


     PseudoPot. # 1 for Na read from file:
     /home/s1333534/quantum_espresso/qe-6.1/pseudo/Na_pbe_v1.uspp.F.UPF
     MD5 check sum: 76a99c7e9422403d3e93cbc85ab7bccb
     Pseudo is Ultrasoft, Zval =  9.0
     Generated by new atomic code, or converted to UPF format
     Using radial grid of  819 points,  5 beta functions with: 
                l(1) =   0
                l(2) =   0
                l(3) =   1
                l(4) =   1
                l(5) =   2
     Q(r) pseudized with  8 coefficients,  rinner =    1.250   1.250   1.250
                                                       1.250   1.250

     atomic species   valence    mass     pseudopotential
        Na             9.00    22.99000     Na( 1.00)

     48 Sym. Ops., with inversion, found



   Cartesian axes

     site n.     atom                  positions (alat units)
         1           Na  tau(   1) = (   0.0000000   0.0000000   0.0000000  )

     number of k points=   250  Marzari-Vanderbilt smearing, width (Ry)=  0.0200

     Number of k-points >= 100: set verbosity='high' to print them.

     Dense  grid:    28675 G-vectors     FFT dimensions: (  45,  45,  45)

     Smooth grid:    10005 G-vectors     FFT dimensions: (  30,  30,  30)

     Estimated max dynamical RAM per process >       1.96MB

     Estimated total allocated dynamical RAM >     125.71MB

     Initial potential from superposition of free atoms

     starting charge    8.99371, renormalised to    9.00000
     Starting wfc are    5 randomized atomic wfcs +    4 random wfc

     total cpu time spent up to now is        0.7 secs

     per-process dynamical memory:     7.6 Mb

     Self-consistent Calculation

     iteration #  1     ecut=    40.00 Ry     beta=0.70
     Davidson diagonalization with overlap
     ethr =  1.00E-02,  avg # of iterations =  5.9

     Threshold (ethr) on eigenvalues was too large:
     Diagonalizing with lowered threshold

     Davidson diagonalization with overlap
     ethr =  9.99E-06,  avg # of iterations =  5.3

     total cpu time spent up to now is        3.6 secs

     total energy              =     -95.10466859 Ry
     Harris-Foulkes estimate   =     -95.10478054 Ry
     estimated scf accuracy    <       0.00090007 Ry

     iteration #  2     ecut=    40.00 Ry     beta=0.70
     Davidson diagonalization with overlap
     ethr =  1.00E-05,  avg # of iterations =  1.7

     total cpu time spent up to now is        4.4 secs

     total energy              =     -95.10475959 Ry
     Harris-Foulkes estimate   =     -95.10477505 Ry
     estimated scf accuracy    <       0.00009743 Ry

     iteration #  3     ecut=    40.00 Ry     beta=0.70
     Davidson diagonalization with overlap
     ethr =  1.08E-06,  avg # of iterations =  2.1

     total cpu time spent up to now is        5.2 secs

     total energy              =     -95.10477292 Ry
     Harris-Foulkes estimate   =     -95.10477342 Ry
     estimated scf accuracy    <       0.00000573 Ry

     iteration #  4     ecut=    40.00 Ry     beta=0.70
     Davidson diagonalization with overlap
     ethr =  6.36E-08,  avg # of iterations =  1.0

     total cpu time spent up to now is        6.0 secs

     total energy              =     -95.10477349 Ry
     Harris-Foulkes estimate   =     -95.10477344 Ry
     estimated scf accuracy    <       0.00000002 Ry

     iteration #  5     ecut=    40.00 Ry     beta=0.70
     Davidson diagonalization with overlap
     ethr =  2.72E-10,  avg # of iterations =  2.9

     total cpu time spent up to now is        6.9 secs

     total energy              =     -95.10477352 Ry
     Harris-Foulkes estimate   =     -95.10477351 Ry
     estimated scf accuracy    <          1.6E-09 Ry

     iteration #  6     ecut=    40.00 Ry     beta=0.70
     Davidson diagonalization with overlap
     ethr =  1.75E-11,  avg # of iterations =  1.6

     total cpu time spent up to now is        7.7 secs

     End of self-consistent calculation

     Number of k-points >= 100: set verbosity='high' to print the bands.

     the Fermi energy is     0.9627 ev

!    total energy              =     -95.10477352 Ry
     Harris-Foulkes estimate   =     -95.10477352 Ry
     estimated scf accuracy    <          5.7E-12 Ry

     The total energy is the sum of the following terms:

     one-electron contribution =     -91.72874780 Ry
     hartree contribution      =      45.96449304 Ry
     xc contribution           =     -14.24782577 Ry
     ewald contribution        =     -35.09260826 Ry
     smearing contrib. (-TS)   =      -0.00008472 Ry

     convergence has been achieved in   6 iterations


     Computing stress (Cartesian axis) and pressure

          total   stress  (Ry/bohr**3)                   (kbar)     P=  -12.06
  -0.00008196   0.00000000  -0.00000000        -12.06      0.00     -0.00
   0.00000000  -0.00008196   0.00000000          0.00    -12.06      0.00
  -0.00000000   0.00000000  -0.00008196         -0.00      0.00    -12.06


     Writing output data file na.bcc.save

     init_run     :      0.37s CPU      0.40s WALL (       1 calls)
     electrons    :      6.61s CPU      7.00s WALL (       1 calls)
     stress       :      0.24s CPU      0.24s WALL (       1 calls)

     Called by init_run:
     wfcinit      :      0.20s CPU      0.21s WALL (       1 calls)
     potinit      :      0.03s CPU      0.03s WALL (       1 calls)

     Called by electrons:
     c_bands      :      5.50s CPU      5.83s WALL (       7 calls)
     sum_band     :      0.91s CPU      0.96s WALL (       7 calls)
     v_of_rho     :      0.09s CPU      0.09s WALL (       7 calls)
     newd         :      0.09s CPU      0.09s WALL (       7 calls)
     mix_rho      :      0.01s CPU      0.01s WALL (       7 calls)

     Called by c_bands:
     init_us_2    :      0.09s CPU      0.09s WALL (    1008 calls)
     cegterg      :      4.73s CPU      5.05s WALL (     441 calls)

     Called by sum_band:
     sum_band:bec :      0.00s CPU      0.00s WALL (     441 calls)
     addusdens    :      0.10s CPU      0.11s WALL (       7 calls)

     Called by *egterg:
     h_psi        :      3.48s CPU      3.67s WALL (    1872 calls)
     s_psi        :      0.04s CPU      0.04s WALL (    1872 calls)
     g_psi        :      0.01s CPU      0.01s WALL (    1368 calls)
     cdiaghg      :      0.81s CPU      0.87s WALL (    1746 calls)

     Called by h_psi:
     h_psi:pot    :      3.47s CPU      3.65s WALL (    1872 calls)
     h_psi:calbec :      0.16s CPU      0.17s WALL (    1872 calls)
     vloc_psi     :      3.25s CPU      3.42s WALL (    1872 calls)
     add_vuspsi   :      0.04s CPU      0.04s WALL (    1872 calls)

     General routines
     calbec       :      0.21s CPU      0.22s WALL (    2376 calls)
     fft          :      0.09s CPU      0.09s WALL (     117 calls)
     ffts         :      0.01s CPU      0.01s WALL (      14 calls)
     fftw         :      3.50s CPU      3.69s WALL (   25991 calls)
     interpolate  :      0.02s CPU      0.02s WALL (      14 calls)
     davcio       :      0.00s CPU      0.00s WALL (      63 calls)

     Parallel routines
     fft_scatter  :      1.74s CPU      1.83s WALL (   26122 calls)

     PWSCF        :     8.48s CPU         9.02s WALL


   This run was terminated on:   5:25:56   1Feb2018            

=------------------------------------------------------------------------------=
   JOB DONE.
=------------------------------------------------------------------------------=
