
     Program PHONON v.5.4.0 starts on 23Jun2016 at 20:43:32 

     This program is part of the open-source Quantum ESPRESSO suite
     for quantum simulation of materials; please cite
         "P. Giannozzi et al., J. Phys.:Condens. Matter 21 395502 (2009);
          URL http://www.quantum-espresso.org", 
     in publications or presentations arising from this work. More details at
     http://www.quantum-espresso.org/quote

     Parallel version (MPI), running on   768 processors
     K-points division:     npool     =     768

     Reading data from directory:
     ./tmp/li-fcc.save

   Info: using nr1, nr2, nr3 values from input

   Info: using nr1, nr2, nr3 values from input

     IMPORTANT: XC functional enforced from input :
     Exchange-correlation      =  SLA  PW   PBX  PBC ( 1  4  3  4 0 0)
     Any further DFT definition will be discarded
     Please, verify this is what you really want

 
     G-vector sticks info
     --------------------
     sticks:   dense  smooth     PW     G-vecs:    dense   smooth      PW
     Sum        1159     583    199                25821     9185    1807
 


     Dynamical matrices for ( 8, 8, 8)  uniform grid of q-points
     (  29q-points):
       N         xq(1)         xq(2)         xq(3) 
       1   0.000000000   0.000000000   0.000000000
       2  -0.125000000   0.125000000  -0.125000000
       3  -0.250000000   0.250000000  -0.250000000
       4  -0.375000000   0.375000000  -0.375000000
       5   0.500000000  -0.500000000   0.500000000
       6   0.000000000   0.250000000   0.000000000
       7  -0.125000000   0.375000000  -0.125000000
       8  -0.250000000   0.500000000  -0.250000000
       9   0.625000000  -0.375000000   0.625000000
      10   0.500000000  -0.250000000   0.500000000
      11   0.375000000  -0.125000000   0.375000000
      12   0.250000000   0.000000000   0.250000000
      13   0.000000000   0.500000000   0.000000000
      14  -0.125000000   0.625000000  -0.125000000
      15   0.750000000  -0.250000000   0.750000000
      16   0.625000000  -0.125000000   0.625000000
      17   0.500000000   0.000000000   0.500000000
      18   0.000000000   0.750000000   0.000000000
      19   0.875000000  -0.125000000   0.875000000
      20   0.750000000   0.000000000   0.750000000
      21   0.000000000  -1.000000000   0.000000000
      22  -0.250000000   0.500000000   0.000000000
      23   0.625000000  -0.375000000   0.875000000
      24   0.500000000  -0.250000000   0.750000000
      25   0.750000000  -0.250000000   1.000000000
      26   0.625000000  -0.125000000   0.875000000
      27   0.500000000   0.000000000   0.750000000
      28  -0.250000000  -1.000000000   0.000000000
      29  -0.500000000  -1.000000000   0.000000000

     Calculation of q =    0.0000000   0.0000000   0.0000000

                                                                                

     bravais-lattice index     =            2
     lattice parameter (alat)  =       8.3422  a.u.
     unit-cell volume          =     145.1385 (a.u.)^3
     number of atoms/cell      =            1
     number of atomic types    =            1
     kinetic-energy cut-off    =      60.0000  Ry
     charge density cut-off    =     480.0000  Ry
     convergence threshold     =      1.0E-16
     beta                      =       0.7000
     number of iterations used =            4
     Exchange-correlation      =  SLA  PW   PBX  PBC ( 1  4  3  4 0 0)


     celldm(1)=    8.34221  celldm(2)=    0.00000  celldm(3)=    0.00000
     celldm(4)=    0.00000  celldm(5)=    0.00000  celldm(6)=    0.00000

     crystal axes: (cart. coord. in units of alat)
               a(1) = ( -0.5000  0.0000  0.5000 )  
               a(2) = (  0.0000  0.5000  0.5000 )  
               a(3) = ( -0.5000  0.5000  0.0000 )  

     reciprocal axes: (cart. coord. in units 2 pi/alat)
               b(1) = ( -1.0000 -1.0000  1.0000 )  
               b(2) = (  1.0000  1.0000  1.0000 )  
               b(3) = ( -1.0000  1.0000 -1.0000 )  


     Atoms inside the unit cell: 

     Cartesian axes

     site n.  atom      mass           positions (alat units)
        1     Li   6.9410   tau(    1) = (    0.00000    0.00000    0.00000  )

     Computing dynamical matrix for 
                    q = (   0.0000000   0.0000000   0.0000000 )
 
     49 Sym.Ops. (with q -> -q+G )


     G cutoff =  846.1421  (  25821 G-vectors)     FFT grid: ( 45, 45, 45)
     G cutoff =  423.0711  (   9185 G-vectors)  smooth grid: ( 30, 30, 30)

     number of k points=  2030  Marzari-Vanderbilt smearing, width (Ry)=  0.0200

     PseudoPot. # 1 for Li read from file:
     ../Li.pbe-s-gbrv14.UPF
     MD5 check sum: 7ca33c4f951f001da2db5c8738379802
     Pseudo is Ultrasoft, Zval =  3.0
     Generated by new atomic code, or converted to UPF format
     Using radial grid of  751 points,  5 beta functions with: 
                l(1) =   0
                l(2) =   0
                l(3) =   0
                l(4) =   1
                l(5) =   1
     Q(r) pseudized with 10 coefficients,  rinner =    1.150   1.150   1.150


     Mode symmetry, O_h (m-3m)  point group:


     Atomic displacements:
     There are   1 irreducible representations

     Representation     1      3 modes -T_1u G_15  G_4-  To be done



     Alpha used in Ewald sum =   2.8000
     PHONON       :    17.40s CPU        48.76s WALL



     Representation #  1 modes #   1  2  3

     Self-consistent Calculation
 
     Pert. #  1: Fermi energy shift (Ry) =    -3.4466E-26     3.9183E-39
     Pert. #  2: Fermi energy shift (Ry) =    -3.3820E-25    -2.7428E-38
     Pert. #  3: Fermi energy shift (Ry) =    -4.9975E-25    -1.7632E-38

      iter #   1 total cpu time :    49.8 secs   av.it.:   5.2
      thresh= 1.000E-02 alpha_mix =  0.700 |ddv_scf|^2 =  7.456E-08
 
     Pert. #  1: Fermi energy shift (Ry) =    -4.3082E-26    -9.1835E-41
     Pert. #  2: Fermi energy shift (Ry) =    -4.5236E-26     3.6352E-41
     Pert. #  3: Fermi energy shift (Ry) =     1.7233E-26     1.5306E-41

      iter #   2 total cpu time :    53.0 secs   av.it.:   9.6
      thresh= 2.731E-05 alpha_mix =  0.700 |ddv_scf|^2 =  4.607E-09
 
     Pert. #  1: Fermi energy shift (Ry) =    -8.6165E-27    -1.3393E-41
     Pert. #  2: Fermi energy shift (Ry) =    -8.9396E-26    -3.8743E-41
     Pert. #  3: Fermi energy shift (Ry) =    -1.2925E-26    -2.3915E-41

      iter #   3 total cpu time :    56.9 secs   av.it.:   9.9
      thresh= 6.788E-06 alpha_mix =  0.700 |ddv_scf|^2 =  3.343E-11
 
     Pert. #  1: Fermi energy shift (Ry) =     1.8095E-25    -6.9355E-42
     Pert. #  2: Fermi energy shift (Ry) =    -4.2005E-26    -1.4349E-42
     Pert. #  3: Fermi energy shift (Ry) =     3.8774E-26    -7.4138E-42

      iter #   4 total cpu time :    62.4 secs   av.it.:   9.5
      thresh= 5.782E-07 alpha_mix =  0.700 |ddv_scf|^2 =  7.689E-14
 
     Pert. #  1: Fermi energy shift (Ry) =    -8.6165E-27    -3.8265E-42
     Pert. #  2: Fermi energy shift (Ry) =    -9.5320E-26    -2.3915E-42
     Pert. #  3: Fermi energy shift (Ry) =    -4.3082E-27    -2.0328E-42

      iter #   5 total cpu time :    71.8 secs   av.it.:   9.2
      thresh= 2.773E-08 alpha_mix =  0.700 |ddv_scf|^2 =  1.044E-15
 
     Pert. #  1: Fermi energy shift (Ry) =     0.0000E+00    -3.8265E-42
     Pert. #  2: Fermi energy shift (Ry) =     1.3679E-25    -2.3915E-42
     Pert. #  3: Fermi energy shift (Ry) =    -2.5849E-26    -2.0328E-42

      iter #   6 total cpu time :    77.3 secs   av.it.:   8.5
      thresh= 3.231E-09 alpha_mix =  0.700 |ddv_scf|^2 =  4.448E-19

     End of self-consistent calculation

     Convergence has been achieved 
 
     Number of q in the star =    1
     List of q in the star:
          1   0.000000000   0.000000000   0.000000000

     Diagonalizing the dynamical matrix

     q = (    0.000000000   0.000000000   0.000000000 ) 

 **************************************************************************
     freq (    1) =      -0.120488 [THz] =      -4.019033 [cm-1]
     freq (    2) =      -0.120488 [THz] =      -4.019033 [cm-1]
     freq (    3) =      -0.120488 [THz] =      -4.019033 [cm-1]
 **************************************************************************

     Mode symmetry, O_h (m-3m)  point group:

     freq (  1 -  3) =         -4.0  [cm-1]   --> T_1u G_15  G_4- I  

     Calculation of q =   -0.1250000   0.1250000  -0.1250000
 
     G-vector sticks info
     --------------------
     sticks:   dense  smooth     PW     G-vecs:    dense   smooth      PW
     Sum        1159     583    199                25821     9185    1837
 


     bravais-lattice index     =            2
     lattice parameter (alat)  =       8.3422  a.u.
     unit-cell volume          =     145.1385 (a.u.)^3
     number of atoms/cell      =            1
     number of atomic types    =            1
     number of electrons       =         3.00
     number of Kohn-Sham states=            6
     kinetic-energy cutoff     =      60.0000  Ry
     charge density cutoff     =     480.0000  Ry
     Exchange-correlation      =  SLA  PW   PBX  PBC ( 1  4  3  4 0 0)

     celldm(1)=   8.342206  celldm(2)=   0.000000  celldm(3)=   0.000000
     celldm(4)=   0.000000  celldm(5)=   0.000000  celldm(6)=   0.000000

     crystal axes: (cart. coord. in units of alat)
               a(1) = (  -0.500000   0.000000   0.500000 )  
               a(2) = (   0.000000   0.500000   0.500000 )  
               a(3) = (  -0.500000   0.500000   0.000000 )  

     reciprocal axes: (cart. coord. in units 2 pi/alat)
               b(1) = ( -1.000000 -1.000000  1.000000 )  
               b(2) = (  1.000000  1.000000  1.000000 )  
               b(3) = ( -1.000000  1.000000 -1.000000 )  


     PseudoPot. # 1 for Li read from file:
     ../Li.pbe-s-gbrv14.UPF
     MD5 check sum: 7ca33c4f951f001da2db5c8738379802
     Pseudo is Ultrasoft, Zval =  3.0
     Generated by new atomic code, or converted to UPF format
     Using radial grid of  751 points,  5 beta functions with: 
                l(1) =   0
                l(2) =   0
                l(3) =   0
                l(4) =   1
                l(5) =   1
     Q(r) pseudized with 10 coefficients,  rinner =    1.150   1.150   1.150


     atomic species   valence    mass     pseudopotential
        Li             3.00     6.94100     Li( 1.00)

     48 Sym. Ops., with inversion, found



   Cartesian axes

     site n.     atom                  positions (alat units)
         1           Li  tau(   1) = (   0.0000000   0.0000000   0.0000000  )

     number of k points= 30856  Marzari-Vanderbilt smearing, width (Ry)=  0.0200

     Number of k-points >= 100: set verbosity='high' to print them.

     Dense  grid:    25821 G-vectors     FFT dimensions: (  45,  45,  45)

     Smooth grid:     9185 G-vectors     FFT dimensions: (  30,  30,  30)

     Largest allocated arrays     est. size (Mb)     dimensions
        Kohn-Sham Wavefunctions         0.11 Mb     (    1159,    6)
        NL pseudopotentials             0.16 Mb     (    1159,    9)
        Each V/rho on FFT grid          1.39 Mb     (   91125)
        Each G-vector array             0.20 Mb     (   25821)
        G-vector shells                 0.00 Mb     (     285)
     Largest temporary arrays     est. size (Mb)     dimensions
        Auxiliary wavefunctions         0.42 Mb     (    1159,   24)
        Each subspace H/S matrix        0.01 Mb     (      24,   24)
        Each <psi_i|beta_j> matrix      0.00 Mb     (       9,    6)

     The potential is recalculated from file :
     ./tmp/_ph0/li-fcc.save/charge-density.dat

     Starting wfc are    5 atomic +    1 random wfc

     Band Structure Calculation
     Davidson diagonalization with overlap

     ethr =  3.33E-10,  avg # of iterations = 15.7

     total cpu time spent up to now is        5.9 secs

     End of band structure calculation

     Number of k-points >= 100: set verbosity='high' to print the bands.

     the Fermi energy is     0.7574 ev

                                                                                

     bravais-lattice index     =            2
     lattice parameter (alat)  =       8.3422  a.u.
     unit-cell volume          =     145.1385 (a.u.)^3
     number of atoms/cell      =            1
     number of atomic types    =            1
     kinetic-energy cut-off    =      60.0000  Ry
     charge density cut-off    =     480.0000  Ry
     convergence threshold     =      1.0E-16
     beta                      =       0.7000
     number of iterations used =            4
     Exchange-correlation      =  SLA  PW   PBX  PBC ( 1  4  3  4 0 0)


     celldm(1)=    8.34221  celldm(2)=    0.00000  celldm(3)=    0.00000
     celldm(4)=    0.00000  celldm(5)=    0.00000  celldm(6)=    0.00000

     crystal axes: (cart. coord. in units of alat)
               a(1) = ( -0.5000  0.0000  0.5000 )  
               a(2) = (  0.0000  0.5000  0.5000 )  
               a(3) = ( -0.5000  0.5000  0.0000 )  

     reciprocal axes: (cart. coord. in units 2 pi/alat)
               b(1) = ( -1.0000 -1.0000  1.0000 )  
               b(2) = (  1.0000  1.0000  1.0000 )  
               b(3) = ( -1.0000  1.0000 -1.0000 )  


     Atoms inside the unit cell: 

     Cartesian axes

     site n.  atom      mass           positions (alat units)
        1     Li   6.9410   tau(    1) = (    0.00000    0.00000    0.00000  )

     Computing dynamical matrix for 
                    q = (  -0.1250000   0.1250000  -0.1250000 )
 
      6 Sym.Ops. (no q -> -q+G )


     G cutoff =  846.1421  (  25821 G-vectors)     FFT grid: ( 45, 45, 45)
     G cutoff =  423.0711  (   9185 G-vectors)  smooth grid: ( 30, 30, 30)

     number of k points= 30856  Marzari-Vanderbilt smearing, width (Ry)=  0.0200

     PseudoPot. # 1 for Li read from file:
     ../Li.pbe-s-gbrv14.UPF
     MD5 check sum: 7ca33c4f951f001da2db5c8738379802
     Pseudo is Ultrasoft, Zval =  3.0
     Generated by new atomic code, or converted to UPF format
     Using radial grid of  751 points,  5 beta functions with: 
                l(1) =   0
                l(2) =   0
                l(3) =   0
                l(4) =   1
                l(5) =   1
     Q(r) pseudized with 10 coefficients,  rinner =    1.150   1.150   1.150


     Mode symmetry, C_3v (3m)   point group:


     Atomic displacements:
     There are   2 irreducible representations

     Representation     1      1 modes -A_1  L_1  To be done

     Representation     2      2 modes -E    L_3  To be done



     Alpha used in Ewald sum =   2.8000
     PHONON       :  1m 0.50s CPU     1m47.61s WALL



     Representation #  1 mode #   1

     Self-consistent Calculation

      iter #   1 total cpu time :   108.4 secs   av.it.:   6.3
      thresh= 1.000E-02 alpha_mix =  0.700 |ddv_scf|^2 =  5.057E-02

      iter #   2 total cpu time :   111.7 secs   av.it.:   7.9
      thresh= 1.000E-02 alpha_mix =  0.700 |ddv_scf|^2 =  4.339E+01

      iter #   3 total cpu time :   114.9 secs   av.it.:   7.8
      thresh= 1.000E-02 alpha_mix =  0.700 |ddv_scf|^2 =  3.413E-04

      iter #   4 total cpu time :   119.8 secs   av.it.:   5.3
      thresh= 1.847E-03 alpha_mix =  0.700 |ddv_scf|^2 =  3.029E-08

      iter #   5 total cpu time :   125.4 secs   av.it.:   8.5
      thresh= 1.740E-05 alpha_mix =  0.700 |ddv_scf|^2 =  3.334E-10

      iter #   6 total cpu time :   132.9 secs   av.it.:   8.8
      thresh= 1.826E-06 alpha_mix =  0.700 |ddv_scf|^2 =  8.256E-08

      iter #   7 total cpu time :   138.5 secs   av.it.:   3.7
      thresh= 2.873E-05 alpha_mix =  0.700 |ddv_scf|^2 =  3.767E-11

      iter #   8 total cpu time :   149.6 secs   av.it.:   8.0
      thresh= 6.137E-07 alpha_mix =  0.700 |ddv_scf|^2 =  2.784E-13

      iter #   9 total cpu time :   153.7 secs   av.it.:   8.4
      thresh= 5.276E-08 alpha_mix =  0.700 |ddv_scf|^2 =  3.750E-14

      iter #  10 total cpu time :   156.6 secs   av.it.:   7.7
      thresh= 1.937E-08 alpha_mix =  0.700 |ddv_scf|^2 =  2.460E-14

      iter #  11 total cpu time :   164.1 secs   av.it.:   6.3
      thresh= 1.568E-08 alpha_mix =  0.700 |ddv_scf|^2 =  2.576E-17

     End of self-consistent calculation

     Convergence has been achieved 


     Representation #  2 modes #   2  3

     Self-consistent Calculation

      iter #   1 total cpu time :   167.5 secs   av.it.:   5.3
      thresh= 1.000E-02 alpha_mix =  0.700 |ddv_scf|^2 =  1.692E-07

      iter #   2 total cpu time :   173.0 secs   av.it.:   9.4
      thresh= 4.113E-05 alpha_mix =  0.700 |ddv_scf|^2 =  1.043E-08

      iter #   3 total cpu time :   177.7 secs   av.it.:   9.6
      thresh= 1.021E-05 alpha_mix =  0.700 |ddv_scf|^2 =  8.341E-11

      iter #   4 total cpu time :   185.0 secs   av.it.:   9.2
      thresh= 9.133E-07 alpha_mix =  0.700 |ddv_scf|^2 =  1.746E-13

      iter #   5 total cpu time :   187.6 secs   av.it.:   9.1
      thresh= 4.179E-08 alpha_mix =  0.700 |ddv_scf|^2 =  2.574E-15

      iter #   6 total cpu time :   192.5 secs   av.it.:   8.1
      thresh= 5.073E-09 alpha_mix =  0.700 |ddv_scf|^2 =  1.341E-18

     End of self-consistent calculation

     Convergence has been achieved 
 
     Number of q in the star =    8
     List of q in the star:
          1  -0.125000000   0.125000000  -0.125000000
          2   0.125000000  -0.125000000  -0.125000000
          3   0.125000000  -0.125000000   0.125000000
          4  -0.125000000   0.125000000   0.125000000
          5   0.125000000   0.125000000  -0.125000000
          6  -0.125000000  -0.125000000  -0.125000000
          7  -0.125000000  -0.125000000   0.125000000
          8   0.125000000   0.125000000   0.125000000

     Diagonalizing the dynamical matrix

     q = (   -0.125000000   0.125000000  -0.125000000 ) 

 **************************************************************************
     freq (    1) =       1.375129 [THz] =      45.869352 [cm-1]
     freq (    2) =       1.375129 [THz] =      45.869352 [cm-1]
     freq (    3) =       3.377407 [THz] =     112.658162 [cm-1]
 **************************************************************************

     Mode symmetry, C_3v (3m)   point group:

     freq (  1 -  2) =         45.9  [cm-1]   --> E    L_3           
     freq (  3 -  3) =        112.7  [cm-1]   --> A_1  L_1           

     Calculation of q =   -0.2500000   0.2500000  -0.2500000
 
     G-vector sticks info
     --------------------
     sticks:   dense  smooth     PW     G-vecs:    dense   smooth      PW
     Sum        1159     583    199                25821     9185    1917
 


     bravais-lattice index     =            2
     lattice parameter (alat)  =       8.3422  a.u.
     unit-cell volume          =     145.1385 (a.u.)^3
     number of atoms/cell      =            1
     number of atomic types    =            1
     number of electrons       =         3.00
     number of Kohn-Sham states=            6
     kinetic-energy cutoff     =      60.0000  Ry
     charge density cutoff     =     480.0000  Ry
     Exchange-correlation      =  SLA  PW   PBX  PBC ( 1  4  3  4 0 0)

     celldm(1)=   8.342206  celldm(2)=   0.000000  celldm(3)=   0.000000
     celldm(4)=   0.000000  celldm(5)=   0.000000  celldm(6)=   0.000000

     crystal axes: (cart. coord. in units of alat)
               a(1) = (  -0.500000   0.000000   0.500000 )  
               a(2) = (   0.000000   0.500000   0.500000 )  
               a(3) = (  -0.500000   0.500000   0.000000 )  

     reciprocal axes: (cart. coord. in units 2 pi/alat)
               b(1) = ( -1.000000 -1.000000  1.000000 )  
               b(2) = (  1.000000  1.000000  1.000000 )  
               b(3) = ( -1.000000  1.000000 -1.000000 )  


     PseudoPot. # 1 for Li read from file:
     ../Li.pbe-s-gbrv14.UPF
     MD5 check sum: 7ca33c4f951f001da2db5c8738379802
     Pseudo is Ultrasoft, Zval =  3.0
     Generated by new atomic code, or converted to UPF format
     Using radial grid of  751 points,  5 beta functions with: 
                l(1) =   0
                l(2) =   0
                l(3) =   0
                l(4) =   1
                l(5) =   1
     Q(r) pseudized with 10 coefficients,  rinner =    1.150   1.150   1.150


     atomic species   valence    mass     pseudopotential
        Li             3.00     6.94100     Li( 1.00)

     48 Sym. Ops., with inversion, found



   Cartesian axes

     site n.     atom                  positions (alat units)
         1           Li  tau(   1) = (   0.0000000   0.0000000   0.0000000  )

     number of k points= 30856  Marzari-Vanderbilt smearing, width (Ry)=  0.0200

     Number of k-points >= 100: set verbosity='high' to print them.

     Dense  grid:    25821 G-vectors     FFT dimensions: (  45,  45,  45)

     Smooth grid:     9185 G-vectors     FFT dimensions: (  30,  30,  30)

     Largest allocated arrays     est. size (Mb)     dimensions
        Kohn-Sham Wavefunctions         0.11 Mb     (    1158,    6)
        NL pseudopotentials             0.16 Mb     (    1158,    9)
        Each V/rho on FFT grid          1.39 Mb     (   91125)
        Each G-vector array             0.20 Mb     (   25821)
        G-vector shells                 0.00 Mb     (     285)
     Largest temporary arrays     est. size (Mb)     dimensions
        Auxiliary wavefunctions         0.42 Mb     (    1158,   24)
        Each subspace H/S matrix        0.01 Mb     (      24,   24)
        Each <psi_i|beta_j> matrix      0.00 Mb     (       9,    6)

     The potential is recalculated from file :
     ./tmp/_ph0/li-fcc.save/charge-density.dat

     Starting wfc are    5 atomic +    1 random wfc

     Band Structure Calculation
     Davidson diagonalization with overlap

     ethr =  3.33E-10,  avg # of iterations = 15.7

     total cpu time spent up to now is       12.6 secs

     End of band structure calculation

     Number of k-points >= 100: set verbosity='high' to print the bands.

     the Fermi energy is     0.7574 ev

                                                                                

     bravais-lattice index     =            2
     lattice parameter (alat)  =       8.3422  a.u.
     unit-cell volume          =     145.1385 (a.u.)^3
     number of atoms/cell      =            1
     number of atomic types    =            1
     kinetic-energy cut-off    =      60.0000  Ry
     charge density cut-off    =     480.0000  Ry
     convergence threshold     =      1.0E-16
     beta                      =       0.7000
     number of iterations used =            4
     Exchange-correlation      =  SLA  PW   PBX  PBC ( 1  4  3  4 0 0)


     celldm(1)=    8.34221  celldm(2)=    0.00000  celldm(3)=    0.00000
     celldm(4)=    0.00000  celldm(5)=    0.00000  celldm(6)=    0.00000

     crystal axes: (cart. coord. in units of alat)
               a(1) = ( -0.5000  0.0000  0.5000 )  
               a(2) = (  0.0000  0.5000  0.5000 )  
               a(3) = ( -0.5000  0.5000  0.0000 )  

     reciprocal axes: (cart. coord. in units 2 pi/alat)
               b(1) = ( -1.0000 -1.0000  1.0000 )  
               b(2) = (  1.0000  1.0000  1.0000 )  
               b(3) = ( -1.0000  1.0000 -1.0000 )  


     Atoms inside the unit cell: 

     Cartesian axes

     site n.  atom      mass           positions (alat units)
        1     Li   6.9410   tau(    1) = (    0.00000    0.00000    0.00000  )

     Computing dynamical matrix for 
                    q = (  -0.2500000   0.2500000  -0.2500000 )
 
      6 Sym.Ops. (no q -> -q+G )


     G cutoff =  846.1421  (  25821 G-vectors)     FFT grid: ( 45, 45, 45)
     G cutoff =  423.0711  (   9185 G-vectors)  smooth grid: ( 30, 30, 30)

     number of k points= 30856  Marzari-Vanderbilt smearing, width (Ry)=  0.0200

     PseudoPot. # 1 for Li read from file:
     ../Li.pbe-s-gbrv14.UPF
     MD5 check sum: 7ca33c4f951f001da2db5c8738379802
     Pseudo is Ultrasoft, Zval =  3.0
     Generated by new atomic code, or converted to UPF format
     Using radial grid of  751 points,  5 beta functions with: 
                l(1) =   0
                l(2) =   0
                l(3) =   0
                l(4) =   1
                l(5) =   1
     Q(r) pseudized with 10 coefficients,  rinner =    1.150   1.150   1.150


     Mode symmetry, C_3v (3m)   point group:


     Atomic displacements:
     There are   2 irreducible representations

     Representation     1      1 modes -A_1  L_1  To be done

     Representation     2      2 modes -E    L_3  To be done



     Alpha used in Ewald sum =   2.8000
     PHONON       :  2m26.51s CPU     3m38.81s WALL



     Representation #  1 mode #   1

     Self-consistent Calculation

      iter #   1 total cpu time :   219.6 secs   av.it.:   6.4
      thresh= 1.000E-02 alpha_mix =  0.700 |ddv_scf|^2 =  6.167E-04

      iter #   2 total cpu time :   223.6 secs   av.it.:   7.9
      thresh= 2.483E-03 alpha_mix =  0.700 |ddv_scf|^2 =  2.249E-02

      iter #   3 total cpu time :   230.6 secs   av.it.:   6.4
      thresh= 1.000E-02 alpha_mix =  0.700 |ddv_scf|^2 =  6.236E-08

      iter #   4 total cpu time :   238.4 secs   av.it.:   9.0
      thresh= 2.497E-05 alpha_mix =  0.700 |ddv_scf|^2 =  2.925E-09

      iter #   5 total cpu time :   240.2 secs   av.it.:   9.0
      thresh= 5.409E-06 alpha_mix =  0.700 |ddv_scf|^2 =  5.689E-11

      iter #   6 total cpu time :   243.8 secs   av.it.:   8.7
      thresh= 7.542E-07 alpha_mix =  0.700 |ddv_scf|^2 =  1.992E-13

      iter #   7 total cpu time :   251.6 secs   av.it.:   9.6
      thresh= 4.463E-08 alpha_mix =  0.700 |ddv_scf|^2 =  1.839E-14

      iter #   8 total cpu time :   254.0 secs   av.it.:   8.6
      thresh= 1.356E-08 alpha_mix =  0.700 |ddv_scf|^2 =  2.771E-14

      iter #   9 total cpu time :   258.7 secs   av.it.:   6.9
      thresh= 1.665E-08 alpha_mix =  0.700 |ddv_scf|^2 =  2.049E-14

      iter #  10 total cpu time :   262.9 secs   av.it.:   6.7
      thresh= 1.432E-08 alpha_mix =  0.700 |ddv_scf|^2 =  2.887E-17

     End of self-consistent calculation

     Convergence has been achieved 


     Representation #  2 modes #   2  3

     Self-consistent Calculation

      iter #   1 total cpu time :   271.5 secs   av.it.:   5.4
      thresh= 1.000E-02 alpha_mix =  0.700 |ddv_scf|^2 =  1.725E-07

      iter #   2 total cpu time :   275.7 secs   av.it.:   9.5
      thresh= 4.153E-05 alpha_mix =  0.700 |ddv_scf|^2 =  1.058E-08

      iter #   3 total cpu time :   280.9 secs   av.it.:   9.7
      thresh= 1.028E-05 alpha_mix =  0.700 |ddv_scf|^2 =  1.010E-10

      iter #   4 total cpu time :   284.6 secs   av.it.:   9.2
      thresh= 1.005E-06 alpha_mix =  0.700 |ddv_scf|^2 =  1.832E-13

      iter #   5 total cpu time :   289.4 secs   av.it.:   9.2
      thresh= 4.280E-08 alpha_mix =  0.700 |ddv_scf|^2 =  2.878E-15

      iter #   6 total cpu time :   294.7 secs   av.it.:   8.0
      thresh= 5.365E-09 alpha_mix =  0.700 |ddv_scf|^2 =  1.669E-18

     End of self-consistent calculation

     Convergence has been achieved 
 
     Number of q in the star =    8
     List of q in the star:
          1  -0.250000000   0.250000000  -0.250000000
          2   0.250000000  -0.250000000  -0.250000000
          3   0.250000000  -0.250000000   0.250000000
          4  -0.250000000   0.250000000   0.250000000
          5   0.250000000   0.250000000  -0.250000000
          6  -0.250000000  -0.250000000  -0.250000000
          7  -0.250000000  -0.250000000   0.250000000
          8   0.250000000   0.250000000   0.250000000

     Diagonalizing the dynamical matrix

     q = (   -0.250000000   0.250000000  -0.250000000 ) 

 **************************************************************************
     freq (    1) =       2.559646 [THz] =      85.380584 [cm-1]
     freq (    2) =       2.559646 [THz] =      85.380584 [cm-1]
     freq (    3) =       6.431384 [THz] =     214.527869 [cm-1]
 **************************************************************************

     Mode symmetry, C_3v (3m)   point group:

     freq (  1 -  2) =         85.4  [cm-1]   --> E    L_3           
     freq (  3 -  3) =        214.5  [cm-1]   --> A_1  L_1           

     Calculation of q =   -0.3750000   0.3750000  -0.3750000
 
     G-vector sticks info
     --------------------
     sticks:   dense  smooth     PW     G-vecs:    dense   smooth      PW
     Sum        1159     583    211                25821     9185    2085
 


     bravais-lattice index     =            2
     lattice parameter (alat)  =       8.3422  a.u.
     unit-cell volume          =     145.1385 (a.u.)^3
     number of atoms/cell      =            1
     number of atomic types    =            1
     number of electrons       =         3.00
     number of Kohn-Sham states=            6
     kinetic-energy cutoff     =      60.0000  Ry
     charge density cutoff     =     480.0000  Ry
     Exchange-correlation      =  SLA  PW   PBX  PBC ( 1  4  3  4 0 0)

     celldm(1)=   8.342206  celldm(2)=   0.000000  celldm(3)=   0.000000
     celldm(4)=   0.000000  celldm(5)=   0.000000  celldm(6)=   0.000000

     crystal axes: (cart. coord. in units of alat)
               a(1) = (  -0.500000   0.000000   0.500000 )  
               a(2) = (   0.000000   0.500000   0.500000 )  
               a(3) = (  -0.500000   0.500000   0.000000 )  

     reciprocal axes: (cart. coord. in units 2 pi/alat)
               b(1) = ( -1.000000 -1.000000  1.000000 )  
               b(2) = (  1.000000  1.000000  1.000000 )  
               b(3) = ( -1.000000  1.000000 -1.000000 )  


     PseudoPot. # 1 for Li read from file:
     ../Li.pbe-s-gbrv14.UPF
     MD5 check sum: 7ca33c4f951f001da2db5c8738379802
     Pseudo is Ultrasoft, Zval =  3.0
     Generated by new atomic code, or converted to UPF format
     Using radial grid of  751 points,  5 beta functions with: 
                l(1) =   0
                l(2) =   0
                l(3) =   0
                l(4) =   1
                l(5) =   1
     Q(r) pseudized with 10 coefficients,  rinner =    1.150   1.150   1.150


     atomic species   valence    mass     pseudopotential
        Li             3.00     6.94100     Li( 1.00)

     48 Sym. Ops., with inversion, found



   Cartesian axes

     site n.     atom                  positions (alat units)
         1           Li  tau(   1) = (   0.0000000   0.0000000   0.0000000  )

     number of k points= 30856  Marzari-Vanderbilt smearing, width (Ry)=  0.0200

     Number of k-points >= 100: set verbosity='high' to print them.

     Dense  grid:    25821 G-vectors     FFT dimensions: (  45,  45,  45)

     Smooth grid:     9185 G-vectors     FFT dimensions: (  30,  30,  30)

     Largest allocated arrays     est. size (Mb)     dimensions
        Kohn-Sham Wavefunctions         0.11 Mb     (    1159,    6)
        NL pseudopotentials             0.16 Mb     (    1159,    9)
        Each V/rho on FFT grid          1.39 Mb     (   91125)
        Each G-vector array             0.20 Mb     (   25821)
        G-vector shells                 0.00 Mb     (     285)
     Largest temporary arrays     est. size (Mb)     dimensions
        Auxiliary wavefunctions         0.42 Mb     (    1159,   24)
        Each subspace H/S matrix        0.01 Mb     (      24,   24)
        Each <psi_i|beta_j> matrix      0.00 Mb     (       9,    6)

     The potential is recalculated from file :
     ./tmp/_ph0/li-fcc.save/charge-density.dat

     Starting wfc are    5 atomic +    1 random wfc

     Band Structure Calculation
     Davidson diagonalization with overlap

     ethr =  3.33E-10,  avg # of iterations = 15.7

     total cpu time spent up to now is       20.4 secs

     End of band structure calculation

     Number of k-points >= 100: set verbosity='high' to print the bands.

     the Fermi energy is     0.7574 ev

                                                                                

     bravais-lattice index     =            2
     lattice parameter (alat)  =       8.3422  a.u.
     unit-cell volume          =     145.1385 (a.u.)^3
     number of atoms/cell      =            1
     number of atomic types    =            1
     kinetic-energy cut-off    =      60.0000  Ry
     charge density cut-off    =     480.0000  Ry
     convergence threshold     =      1.0E-16
     beta                      =       0.7000
     number of iterations used =            4
     Exchange-correlation      =  SLA  PW   PBX  PBC ( 1  4  3  4 0 0)


     celldm(1)=    8.34221  celldm(2)=    0.00000  celldm(3)=    0.00000
     celldm(4)=    0.00000  celldm(5)=    0.00000  celldm(6)=    0.00000

     crystal axes: (cart. coord. in units of alat)
               a(1) = ( -0.5000  0.0000  0.5000 )  
               a(2) = (  0.0000  0.5000  0.5000 )  
               a(3) = ( -0.5000  0.5000  0.0000 )  

     reciprocal axes: (cart. coord. in units 2 pi/alat)
               b(1) = ( -1.0000 -1.0000  1.0000 )  
               b(2) = (  1.0000  1.0000  1.0000 )  
               b(3) = ( -1.0000  1.0000 -1.0000 )  


     Atoms inside the unit cell: 

     Cartesian axes

     site n.  atom      mass           positions (alat units)
        1     Li   6.9410   tau(    1) = (    0.00000    0.00000    0.00000  )

     Computing dynamical matrix for 
                    q = (  -0.3750000   0.3750000  -0.3750000 )
 
      6 Sym.Ops. (no q -> -q+G )


     G cutoff =  846.1421  (  25821 G-vectors)     FFT grid: ( 45, 45, 45)
     G cutoff =  423.0711  (   9185 G-vectors)  smooth grid: ( 30, 30, 30)

     number of k points= 30856  Marzari-Vanderbilt smearing, width (Ry)=  0.0200

     PseudoPot. # 1 for Li read from file:
     ../Li.pbe-s-gbrv14.UPF
     MD5 check sum: 7ca33c4f951f001da2db5c8738379802
     Pseudo is Ultrasoft, Zval =  3.0
     Generated by new atomic code, or converted to UPF format
     Using radial grid of  751 points,  5 beta functions with: 
                l(1) =   0
                l(2) =   0
                l(3) =   0
                l(4) =   1
                l(5) =   1
     Q(r) pseudized with 10 coefficients,  rinner =    1.150   1.150   1.150


     Mode symmetry, C_3v (3m)   point group:


     Atomic displacements:
     There are   2 irreducible representations

     Representation     1      1 modes -A_1  L_1  To be done

     Representation     2      2 modes -E    L_3  To be done



     Alpha used in Ewald sum =   2.8000
     PHONON       :  3m36.97s CPU     5m38.20s WALL



     Representation #  1 mode #   1

     Self-consistent Calculation

      iter #   1 total cpu time :   339.0 secs   av.it.:   6.3
      thresh= 1.000E-02 alpha_mix =  0.700 |ddv_scf|^2 =  4.200E-05

      iter #   2 total cpu time :   344.4 secs   av.it.:   8.6
      thresh= 6.481E-04 alpha_mix =  0.700 |ddv_scf|^2 =  1.611E-04

      iter #   3 total cpu time :   348.5 secs   av.it.:   7.1
      thresh= 1.269E-03 alpha_mix =  0.700 |ddv_scf|^2 =  4.164E-08

      iter #   4 total cpu time :   355.6 secs   av.it.:   8.8
      thresh= 2.041E-05 alpha_mix =  0.700 |ddv_scf|^2 =  2.295E-09

      iter #   5 total cpu time :   360.2 secs   av.it.:   9.0
      thresh= 4.791E-06 alpha_mix =  0.700 |ddv_scf|^2 =  2.869E-12

      iter #   6 total cpu time :   368.2 secs   av.it.:   9.1
      thresh= 1.694E-07 alpha_mix =  0.700 |ddv_scf|^2 =  1.663E-13

      iter #   7 total cpu time :   374.2 secs   av.it.:   9.3
      thresh= 4.078E-08 alpha_mix =  0.700 |ddv_scf|^2 =  8.483E-16

      iter #   8 total cpu time :   389.6 secs   av.it.:   9.6
      thresh= 2.913E-09 alpha_mix =  0.700 |ddv_scf|^2 =  6.135E-16

      iter #   9 total cpu time :   398.0 secs   av.it.:   8.5
      thresh= 2.477E-09 alpha_mix =  0.700 |ddv_scf|^2 =  2.248E-17

     End of self-consistent calculation

     Convergence has been achieved 


     Representation #  2 modes #   2  3

     Self-consistent Calculation

      iter #   1 total cpu time :   404.1 secs   av.it.:   5.5
      thresh= 1.000E-02 alpha_mix =  0.700 |ddv_scf|^2 =  1.757E-07

      iter #   2 total cpu time :   414.8 secs   av.it.:   9.5
      thresh= 4.191E-05 alpha_mix =  0.700 |ddv_scf|^2 =  1.072E-08

      iter #   3 total cpu time :   417.1 secs   av.it.:   9.8
      thresh= 1.035E-05 alpha_mix =  0.700 |ddv_scf|^2 =  1.140E-10

      iter #   4 total cpu time :   420.5 secs   av.it.:   9.2
      thresh= 1.068E-06 alpha_mix =  0.700 |ddv_scf|^2 =  1.910E-13

      iter #   5 total cpu time :   423.2 secs   av.it.:   9.3
      thresh= 4.371E-08 alpha_mix =  0.700 |ddv_scf|^2 =  3.204E-15

      iter #   6 total cpu time :   425.4 secs   av.it.:   8.2
      thresh= 5.660E-09 alpha_mix =  0.700 |ddv_scf|^2 =  1.214E-18

     End of self-consistent calculation

     Convergence has been achieved 
 
     Number of q in the star =    8
     List of q in the star:
          1  -0.375000000   0.375000000  -0.375000000
          2   0.375000000  -0.375000000  -0.375000000
          3   0.375000000  -0.375000000   0.375000000
          4  -0.375000000   0.375000000   0.375000000
          5   0.375000000   0.375000000  -0.375000000
          6  -0.375000000  -0.375000000  -0.375000000
          7  -0.375000000  -0.375000000   0.375000000
          8   0.375000000   0.375000000   0.375000000

     Diagonalizing the dynamical matrix

     q = (   -0.375000000   0.375000000  -0.375000000 ) 

 **************************************************************************
     freq (    1) =       3.392406 [THz] =     113.158497 [cm-1]
     freq (    2) =       3.392406 [THz] =     113.158497 [cm-1]
     freq (    3) =       8.190885 [THz] =     273.218514 [cm-1]
 **************************************************************************

     Mode symmetry, C_3v (3m)   point group:

     freq (  1 -  2) =        113.2  [cm-1]   --> E    L_3           
     freq (  3 -  3) =        273.2  [cm-1]   --> A_1  L_1           

     Calculation of q =    0.5000000  -0.5000000   0.5000000
 
     G-vector sticks info
     --------------------
     sticks:   dense  smooth     PW     G-vecs:    dense   smooth      PW
     Sum        1159     583    211                25821     9185    2109
 


     bravais-lattice index     =            2
     lattice parameter (alat)  =       8.3422  a.u.
     unit-cell volume          =     145.1385 (a.u.)^3
     number of atoms/cell      =            1
     number of atomic types    =            1
     number of electrons       =         3.00
     number of Kohn-Sham states=            6
     kinetic-energy cutoff     =      60.0000  Ry
     charge density cutoff     =     480.0000  Ry
     Exchange-correlation      =  SLA  PW   PBX  PBC ( 1  4  3  4 0 0)

     celldm(1)=   8.342206  celldm(2)=   0.000000  celldm(3)=   0.000000
     celldm(4)=   0.000000  celldm(5)=   0.000000  celldm(6)=   0.000000

     crystal axes: (cart. coord. in units of alat)
               a(1) = (  -0.500000   0.000000   0.500000 )  
               a(2) = (   0.000000   0.500000   0.500000 )  
               a(3) = (  -0.500000   0.500000   0.000000 )  

     reciprocal axes: (cart. coord. in units 2 pi/alat)
               b(1) = ( -1.000000 -1.000000  1.000000 )  
               b(2) = (  1.000000  1.000000  1.000000 )  
               b(3) = ( -1.000000  1.000000 -1.000000 )  


     PseudoPot. # 1 for Li read from file:
     ../Li.pbe-s-gbrv14.UPF
     MD5 check sum: 7ca33c4f951f001da2db5c8738379802
     Pseudo is Ultrasoft, Zval =  3.0
     Generated by new atomic code, or converted to UPF format
     Using radial grid of  751 points,  5 beta functions with: 
                l(1) =   0
                l(2) =   0
                l(3) =   0
                l(4) =   1
                l(5) =   1
     Q(r) pseudized with 10 coefficients,  rinner =    1.150   1.150   1.150


     atomic species   valence    mass     pseudopotential
        Li             3.00     6.94100     Li( 1.00)

     48 Sym. Ops., with inversion, found



   Cartesian axes

     site n.     atom                  positions (alat units)
         1           Li  tau(   1) = (   0.0000000   0.0000000   0.0000000  )

     number of k points= 15428  Marzari-Vanderbilt smearing, width (Ry)=  0.0200

     Number of k-points >= 100: set verbosity='high' to print them.

     Dense  grid:    25821 G-vectors     FFT dimensions: (  45,  45,  45)

     Smooth grid:     9185 G-vectors     FFT dimensions: (  30,  30,  30)

     Largest allocated arrays     est. size (Mb)     dimensions
        Kohn-Sham Wavefunctions         0.11 Mb     (    1158,    6)
        NL pseudopotentials             0.16 Mb     (    1158,    9)
        Each V/rho on FFT grid          1.39 Mb     (   91125)
        Each G-vector array             0.20 Mb     (   25821)
        G-vector shells                 0.00 Mb     (     285)
     Largest temporary arrays     est. size (Mb)     dimensions
        Auxiliary wavefunctions         0.42 Mb     (    1158,   24)
        Each subspace H/S matrix        0.01 Mb     (      24,   24)
        Each <psi_i|beta_j> matrix      0.00 Mb     (       9,    6)

     The potential is recalculated from file :
     ./tmp/_ph0/li-fcc.save/charge-density.dat

     Starting wfc are    5 atomic +    1 random wfc

     Band Structure Calculation
     Davidson diagonalization with overlap

     ethr =  3.33E-10,  avg # of iterations = 15.7

     total cpu time spent up to now is       26.5 secs

     End of band structure calculation

     Number of k-points >= 100: set verbosity='high' to print the bands.

     the Fermi energy is     0.7574 ev

                                                                                

     bravais-lattice index     =            2
     lattice parameter (alat)  =       8.3422  a.u.
     unit-cell volume          =     145.1385 (a.u.)^3
     number of atoms/cell      =            1
     number of atomic types    =            1
     kinetic-energy cut-off    =      60.0000  Ry
     charge density cut-off    =     480.0000  Ry
     convergence threshold     =      1.0E-16
     beta                      =       0.7000
     number of iterations used =            4
     Exchange-correlation      =  SLA  PW   PBX  PBC ( 1  4  3  4 0 0)


     celldm(1)=    8.34221  celldm(2)=    0.00000  celldm(3)=    0.00000
     celldm(4)=    0.00000  celldm(5)=    0.00000  celldm(6)=    0.00000

     crystal axes: (cart. coord. in units of alat)
               a(1) = ( -0.5000  0.0000  0.5000 )  
               a(2) = (  0.0000  0.5000  0.5000 )  
               a(3) = ( -0.5000  0.5000  0.0000 )  

     reciprocal axes: (cart. coord. in units 2 pi/alat)
               b(1) = ( -1.0000 -1.0000  1.0000 )  
               b(2) = (  1.0000  1.0000  1.0000 )  
               b(3) = ( -1.0000  1.0000 -1.0000 )  


     Atoms inside the unit cell: 

     Cartesian axes

     site n.  atom      mass           positions (alat units)
        1     Li   6.9410   tau(    1) = (    0.00000    0.00000    0.00000  )

     Computing dynamical matrix for 
                    q = (   0.5000000  -0.5000000   0.5000000 )
 
     13 Sym.Ops. (with q -> -q+G )


     G cutoff =  846.1421  (  25821 G-vectors)     FFT grid: ( 45, 45, 45)
     G cutoff =  423.0711  (   9185 G-vectors)  smooth grid: ( 30, 30, 30)

     number of k points= 15428  Marzari-Vanderbilt smearing, width (Ry)=  0.0200

     PseudoPot. # 1 for Li read from file:
     ../Li.pbe-s-gbrv14.UPF
     MD5 check sum: 7ca33c4f951f001da2db5c8738379802
     Pseudo is Ultrasoft, Zval =  3.0
     Generated by new atomic code, or converted to UPF format
     Using radial grid of  751 points,  5 beta functions with: 
                l(1) =   0
                l(2) =   0
                l(3) =   0
                l(4) =   1
                l(5) =   1
     Q(r) pseudized with 10 coefficients,  rinner =    1.150   1.150   1.150


     Mode symmetry, D_3d (-3m)  point group:


     Atomic displacements:
     There are   2 irreducible representations

     Representation     1      1 modes -A_2u L_2'  To be done

     Representation     2      2 modes -E_u  L_3'  To be done



     Alpha used in Ewald sum =   2.8000
     PHONON       :  4m50.35s CPU     7m22.56s WALL



     Representation #  1 mode #   1

     Self-consistent Calculation

      iter #   1 total cpu time :   443.1 secs   av.it.:   6.3
      thresh= 1.000E-02 alpha_mix =  0.700 |ddv_scf|^2 =  1.116E-05

      iter #   2 total cpu time :   450.9 secs   av.it.:   8.8
      thresh= 3.340E-04 alpha_mix =  0.700 |ddv_scf|^2 =  5.070E-06

      iter #   3 total cpu time :   464.8 secs   av.it.:   8.0
      thresh= 2.252E-04 alpha_mix =  0.700 |ddv_scf|^2 =  1.373E-08

      iter #   4 total cpu time :   474.2 secs   av.it.:   9.0
      thresh= 1.172E-05 alpha_mix =  0.700 |ddv_scf|^2 =  8.188E-12

      iter #   5 total cpu time :   481.9 secs   av.it.:   8.7
      thresh= 2.862E-07 alpha_mix =  0.700 |ddv_scf|^2 =  5.115E-13

      iter #   6 total cpu time :   489.3 secs   av.it.:   8.3
      thresh= 7.152E-08 alpha_mix =  0.700 |ddv_scf|^2 =  2.706E-15

      iter #   7 total cpu time :   496.5 secs   av.it.:   9.1
      thresh= 5.202E-09 alpha_mix =  0.700 |ddv_scf|^2 =  2.333E-18

     End of self-consistent calculation

     Convergence has been achieved 


     Representation #  2 modes #   2  3

     Self-consistent Calculation

      iter #   1 total cpu time :   500.8 secs   av.it.:   5.4
      thresh= 1.000E-02 alpha_mix =  0.700 |ddv_scf|^2 =  1.770E-07

      iter #   2 total cpu time :   503.7 secs   av.it.:   9.3
      thresh= 4.207E-05 alpha_mix =  0.700 |ddv_scf|^2 =  1.077E-08

      iter #   3 total cpu time :   507.3 secs   av.it.:   9.6
      thresh= 1.038E-05 alpha_mix =  0.700 |ddv_scf|^2 =  1.177E-10

      iter #   4 total cpu time :   512.1 secs   av.it.:   9.0
      thresh= 1.085E-06 alpha_mix =  0.700 |ddv_scf|^2 =  1.935E-13

      iter #   5 total cpu time :   515.3 secs   av.it.:   9.1
      thresh= 4.399E-08 alpha_mix =  0.700 |ddv_scf|^2 =  3.477E-15

      iter #   6 total cpu time :   516.5 secs   av.it.:   8.0
      thresh= 5.896E-09 alpha_mix =  0.700 |ddv_scf|^2 =  7.815E-19

     End of self-consistent calculation

     Convergence has been achieved 
 
     Number of q in the star =    4
     List of q in the star:
          1   0.500000000  -0.500000000   0.500000000
          2   0.500000000   0.500000000   0.500000000
          3  -0.500000000   0.500000000   0.500000000
          4   0.500000000   0.500000000  -0.500000000

     Diagonalizing the dynamical matrix

     q = (    0.500000000  -0.500000000   0.500000000 ) 

 **************************************************************************
     freq (    1) =       3.701423 [THz] =     123.466181 [cm-1]
     freq (    2) =       3.701423 [THz] =     123.466181 [cm-1]
     freq (    3) =       8.747240 [THz] =     291.776523 [cm-1]
 **************************************************************************

     Mode symmetry, D_3d (-3m)  point group:

     freq (  1 -  2) =        123.5  [cm-1]   --> E_u  L_3'          
     freq (  3 -  3) =        291.8  [cm-1]   --> A_2u L_2'          

     Calculation of q =    0.0000000   0.2500000   0.0000000
 
     G-vector sticks info
     --------------------
     sticks:   dense  smooth     PW     G-vecs:    dense   smooth      PW
     Sum        1159     583    199                25821     9185    1837
 


     bravais-lattice index     =            2
     lattice parameter (alat)  =       8.3422  a.u.
     unit-cell volume          =     145.1385 (a.u.)^3
     number of atoms/cell      =            1
     number of atomic types    =            1
     number of electrons       =         3.00
     number of Kohn-Sham states=            6
     kinetic-energy cutoff     =      60.0000  Ry
     charge density cutoff     =     480.0000  Ry
     Exchange-correlation      =  SLA  PW   PBX  PBC ( 1  4  3  4 0 0)

     celldm(1)=   8.342206  celldm(2)=   0.000000  celldm(3)=   0.000000
     celldm(4)=   0.000000  celldm(5)=   0.000000  celldm(6)=   0.000000

     crystal axes: (cart. coord. in units of alat)
               a(1) = (  -0.500000   0.000000   0.500000 )  
               a(2) = (   0.000000   0.500000   0.500000 )  
               a(3) = (  -0.500000   0.500000   0.000000 )  

     reciprocal axes: (cart. coord. in units 2 pi/alat)
               b(1) = ( -1.000000 -1.000000  1.000000 )  
               b(2) = (  1.000000  1.000000  1.000000 )  
               b(3) = ( -1.000000  1.000000 -1.000000 )  


     PseudoPot. # 1 for Li read from file:
     ../Li.pbe-s-gbrv14.UPF
     MD5 check sum: 7ca33c4f951f001da2db5c8738379802
     Pseudo is Ultrasoft, Zval =  3.0
     Generated by new atomic code, or converted to UPF format
     Using radial grid of  751 points,  5 beta functions with: 
                l(1) =   0
                l(2) =   0
                l(3) =   0
                l(4) =   1
                l(5) =   1
     Q(r) pseudized with 10 coefficients,  rinner =    1.150   1.150   1.150


     atomic species   valence    mass     pseudopotential
        Li             3.00     6.94100     Li( 1.00)

     48 Sym. Ops., with inversion, found



   Cartesian axes

     site n.     atom                  positions (alat units)
         1           Li  tau(   1) = (   0.0000000   0.0000000   0.0000000  )

     number of k points= 22736  Marzari-Vanderbilt smearing, width (Ry)=  0.0200

     Number of k-points >= 100: set verbosity='high' to print them.

     Dense  grid:    25821 G-vectors     FFT dimensions: (  45,  45,  45)

     Smooth grid:     9185 G-vectors     FFT dimensions: (  30,  30,  30)

     Largest allocated arrays     est. size (Mb)     dimensions
        Kohn-Sham Wavefunctions         0.11 Mb     (    1158,    6)
        NL pseudopotentials             0.16 Mb     (    1158,    9)
        Each V/rho on FFT grid          1.39 Mb     (   91125)
        Each G-vector array             0.20 Mb     (   25821)
        G-vector shells                 0.00 Mb     (     285)
     Largest temporary arrays     est. size (Mb)     dimensions
        Auxiliary wavefunctions         0.42 Mb     (    1158,   24)
        Each subspace H/S matrix        0.01 Mb     (      24,   24)
        Each <psi_i|beta_j> matrix      0.00 Mb     (       9,    6)

     The potential is recalculated from file :
     ./tmp/_ph0/li-fcc.save/charge-density.dat

     Starting wfc are    5 atomic +    1 random wfc

     Band Structure Calculation
     Davidson diagonalization with overlap

     ethr =  3.33E-10,  avg # of iterations = 15.7

     total cpu time spent up to now is       35.6 secs

     End of band structure calculation

     Number of k-points >= 100: set verbosity='high' to print the bands.

     the Fermi energy is     0.7574 ev

                                                                                

     bravais-lattice index     =            2
     lattice parameter (alat)  =       8.3422  a.u.
     unit-cell volume          =     145.1385 (a.u.)^3
     number of atoms/cell      =            1
     number of atomic types    =            1
     kinetic-energy cut-off    =      60.0000  Ry
     charge density cut-off    =     480.0000  Ry
     convergence threshold     =      1.0E-16
     beta                      =       0.7000
     number of iterations used =            4
     Exchange-correlation      =  SLA  PW   PBX  PBC ( 1  4  3  4 0 0)


     celldm(1)=    8.34221  celldm(2)=    0.00000  celldm(3)=    0.00000
     celldm(4)=    0.00000  celldm(5)=    0.00000  celldm(6)=    0.00000

     crystal axes: (cart. coord. in units of alat)
               a(1) = ( -0.5000  0.0000  0.5000 )  
               a(2) = (  0.0000  0.5000  0.5000 )  
               a(3) = ( -0.5000  0.5000  0.0000 )  

     reciprocal axes: (cart. coord. in units 2 pi/alat)
               b(1) = ( -1.0000 -1.0000  1.0000 )  
               b(2) = (  1.0000  1.0000  1.0000 )  
               b(3) = ( -1.0000  1.0000 -1.0000 )  


     Atoms inside the unit cell: 

     Cartesian axes

     site n.  atom      mass           positions (alat units)
        1     Li   6.9410   tau(    1) = (    0.00000    0.00000    0.00000  )

     Computing dynamical matrix for 
                    q = (   0.0000000   0.2500000   0.0000000 )
 
      8 Sym.Ops. (no q -> -q+G )


     G cutoff =  846.1421  (  25821 G-vectors)     FFT grid: ( 45, 45, 45)
     G cutoff =  423.0711  (   9185 G-vectors)  smooth grid: ( 30, 30, 30)

     number of k points= 22736  Marzari-Vanderbilt smearing, width (Ry)=  0.0200

     PseudoPot. # 1 for Li read from file:
     ../Li.pbe-s-gbrv14.UPF
     MD5 check sum: 7ca33c4f951f001da2db5c8738379802
     Pseudo is Ultrasoft, Zval =  3.0
     Generated by new atomic code, or converted to UPF format
     Using radial grid of  751 points,  5 beta functions with: 
                l(1) =   0
                l(2) =   0
                l(3) =   0
                l(4) =   1
                l(5) =   1
     Q(r) pseudized with 10 coefficients,  rinner =    1.150   1.150   1.150


     Mode symmetry, C_4v (4mm)  point group:


     Atomic displacements:
     There are   2 irreducible representations

     Representation     1      1 modes -A_1  G_1 D_1  To be done

     Representation     2      2 modes -E    G_5 D_5  To be done



     Alpha used in Ewald sum =   2.8000
     PHONON       :  5m48.81s CPU     8m58.60s WALL



     Representation #  1 mode #   1

     Self-consistent Calculation

      iter #   1 total cpu time :   539.2 secs   av.it.:   6.4
      thresh= 1.000E-02 alpha_mix =  0.700 |ddv_scf|^2 =  2.161E-02

      iter #   2 total cpu time :   548.7 secs   av.it.:   7.7
      thresh= 1.000E-02 alpha_mix =  0.700 |ddv_scf|^2 =  1.045E+01

      iter #   3 total cpu time :   553.6 secs   av.it.:   7.6
      thresh= 1.000E-02 alpha_mix =  0.700 |ddv_scf|^2 =  4.121E-05

      iter #   4 total cpu time :   558.1 secs   av.it.:   6.4
      thresh= 6.419E-04 alpha_mix =  0.700 |ddv_scf|^2 =  2.134E-08

      iter #   5 total cpu time :   570.2 secs   av.it.:   8.7
      thresh= 1.461E-05 alpha_mix =  0.700 |ddv_scf|^2 =  9.893E-11

      iter #   6 total cpu time :   579.0 secs   av.it.:   8.5
      thresh= 9.946E-07 alpha_mix =  0.700 |ddv_scf|^2 =  2.181E-10

      iter #   7 total cpu time :   588.2 secs   av.it.:   5.5
      thresh= 1.477E-06 alpha_mix =  0.700 |ddv_scf|^2 =  6.073E-10

      iter #   8 total cpu time :   591.1 secs   av.it.:   6.3
      thresh= 2.464E-06 alpha_mix =  0.700 |ddv_scf|^2 =  4.094E-14

      iter #   9 total cpu time :   599.5 secs   av.it.:   8.5
      thresh= 2.023E-08 alpha_mix =  0.700 |ddv_scf|^2 =  5.960E-15

      iter #  10 total cpu time :   601.0 secs   av.it.:   7.4
      thresh= 7.720E-09 alpha_mix =  0.700 |ddv_scf|^2 =  4.648E-15

      iter #  11 total cpu time :   602.1 secs   av.it.:   6.3
      thresh= 6.818E-09 alpha_mix =  0.700 |ddv_scf|^2 =  5.643E-19

     End of self-consistent calculation

     Convergence has been achieved 


     Representation #  2 modes #   2  3

     Self-consistent Calculation

      iter #   1 total cpu time :   605.8 secs   av.it.:   5.5
      thresh= 1.000E-02 alpha_mix =  0.700 |ddv_scf|^2 =  1.734E-07

      iter #   2 total cpu time :   607.4 secs   av.it.:   9.4
      thresh= 4.164E-05 alpha_mix =  0.700 |ddv_scf|^2 =  1.058E-08

      iter #   3 total cpu time :   609.9 secs   av.it.:   9.6
      thresh= 1.029E-05 alpha_mix =  0.700 |ddv_scf|^2 =  1.143E-10

      iter #   4 total cpu time :   613.0 secs   av.it.:   9.0
      thresh= 1.069E-06 alpha_mix =  0.700 |ddv_scf|^2 =  1.773E-13

      iter #   5 total cpu time :   617.7 secs   av.it.:   9.1
      thresh= 4.211E-08 alpha_mix =  0.700 |ddv_scf|^2 =  2.888E-15

      iter #   6 total cpu time :   621.6 secs   av.it.:   8.3
      thresh= 5.374E-09 alpha_mix =  0.700 |ddv_scf|^2 =  2.393E-18

     End of self-consistent calculation

     Convergence has been achieved 
 
     Number of q in the star =    6
     List of q in the star:
          1   0.000000000   0.250000000   0.000000000
          2   0.000000000  -0.250000000   0.000000000
          3   0.250000000   0.000000000   0.000000000
          4   0.000000000   0.000000000   0.250000000
          5   0.000000000   0.000000000  -0.250000000
          6  -0.250000000   0.000000000   0.000000000

     Diagonalizing the dynamical matrix

     q = (    0.000000000   0.250000000   0.000000000 ) 

 **************************************************************************
     freq (    1) =       2.397464 [THz] =      79.970790 [cm-1]
     freq (    2) =       2.397464 [THz] =      79.970790 [cm-1]
     freq (    3) =       2.848614 [THz] =      95.019550 [cm-1]
 **************************************************************************

     Mode symmetry, C_4v (4mm)  point group:

     freq (  1 -  2) =         80.0  [cm-1]   --> E    G_5 D_5       
     freq (  3 -  3) =         95.0  [cm-1]   --> A_1  G_1 D_1       

     Calculation of q =   -0.1250000   0.3750000  -0.1250000
 
     G-vector sticks info
     --------------------
     sticks:   dense  smooth     PW     G-vecs:    dense   smooth      PW
     Sum        1159     583    199                25821     9185    1917
 


     bravais-lattice index     =            2
     lattice parameter (alat)  =       8.3422  a.u.
     unit-cell volume          =     145.1385 (a.u.)^3
     number of atoms/cell      =            1
     number of atomic types    =            1
     number of electrons       =         3.00
     number of Kohn-Sham states=            6
     kinetic-energy cutoff     =      60.0000  Ry
     charge density cutoff     =     480.0000  Ry
     Exchange-correlation      =  SLA  PW   PBX  PBC ( 1  4  3  4 0 0)

     celldm(1)=   8.342206  celldm(2)=   0.000000  celldm(3)=   0.000000
     celldm(4)=   0.000000  celldm(5)=   0.000000  celldm(6)=   0.000000

     crystal axes: (cart. coord. in units of alat)
               a(1) = (  -0.500000   0.000000   0.500000 )  
               a(2) = (   0.000000   0.500000   0.500000 )  
               a(3) = (  -0.500000   0.500000   0.000000 )  

     reciprocal axes: (cart. coord. in units 2 pi/alat)
               b(1) = ( -1.000000 -1.000000  1.000000 )  
               b(2) = (  1.000000  1.000000  1.000000 )  
               b(3) = ( -1.000000  1.000000 -1.000000 )  


     PseudoPot. # 1 for Li read from file:
     ../Li.pbe-s-gbrv14.UPF
     MD5 check sum: 7ca33c4f951f001da2db5c8738379802
     Pseudo is Ultrasoft, Zval =  3.0
     Generated by new atomic code, or converted to UPF format
     Using radial grid of  751 points,  5 beta functions with: 
                l(1) =   0
                l(2) =   0
                l(3) =   0
                l(4) =   1
                l(5) =   1
     Q(r) pseudized with 10 coefficients,  rinner =    1.150   1.150   1.150


     atomic species   valence    mass     pseudopotential
        Li             3.00     6.94100     Li( 1.00)

     48 Sym. Ops., with inversion, found



   Cartesian axes

     site n.     atom                  positions (alat units)
         1           Li  tau(   1) = (   0.0000000   0.0000000   0.0000000  )

     number of k points= 89376  Marzari-Vanderbilt smearing, width (Ry)=  0.0200

     Number of k-points >= 100: set verbosity='high' to print them.

     Dense  grid:    25821 G-vectors     FFT dimensions: (  45,  45,  45)

     Smooth grid:     9185 G-vectors     FFT dimensions: (  30,  30,  30)

     Largest allocated arrays     est. size (Mb)     dimensions
        Kohn-Sham Wavefunctions         0.11 Mb     (    1159,    6)
        NL pseudopotentials             0.16 Mb     (    1159,    9)
        Each V/rho on FFT grid          1.39 Mb     (   91125)
        Each G-vector array             0.20 Mb     (   25821)
        G-vector shells                 0.00 Mb     (     285)
     Largest temporary arrays     est. size (Mb)     dimensions
        Auxiliary wavefunctions         0.42 Mb     (    1159,   24)
        Each subspace H/S matrix        0.01 Mb     (      24,   24)
        Each <psi_i|beta_j> matrix      0.00 Mb     (       9,    6)

     The potential is recalculated from file :
     ./tmp/_ph0/li-fcc.save/charge-density.dat

     Starting wfc are    5 atomic +    1 random wfc

     Band Structure Calculation
     Davidson diagonalization with overlap

     ethr =  3.33E-10,  avg # of iterations = 15.7

     total cpu time spent up to now is       53.3 secs

     End of band structure calculation

     Number of k-points >= 100: set verbosity='high' to print the bands.

     the Fermi energy is     0.7574 ev

                                                                                

     bravais-lattice index     =            2
     lattice parameter (alat)  =       8.3422  a.u.
     unit-cell volume          =     145.1385 (a.u.)^3
     number of atoms/cell      =            1
     number of atomic types    =            1
     kinetic-energy cut-off    =      60.0000  Ry
     charge density cut-off    =     480.0000  Ry
     convergence threshold     =      1.0E-16
     beta                      =       0.7000
     number of iterations used =            4
     Exchange-correlation      =  SLA  PW   PBX  PBC ( 1  4  3  4 0 0)


     celldm(1)=    8.34221  celldm(2)=    0.00000  celldm(3)=    0.00000
     celldm(4)=    0.00000  celldm(5)=    0.00000  celldm(6)=    0.00000

     crystal axes: (cart. coord. in units of alat)
               a(1) = ( -0.5000  0.0000  0.5000 )  
               a(2) = (  0.0000  0.5000  0.5000 )  
               a(3) = ( -0.5000  0.5000  0.0000 )  

     reciprocal axes: (cart. coord. in units 2 pi/alat)
               b(1) = ( -1.0000 -1.0000  1.0000 )  
               b(2) = (  1.0000  1.0000  1.0000 )  
               b(3) = ( -1.0000  1.0000 -1.0000 )  


     Atoms inside the unit cell: 

     Cartesian axes

     site n.  atom      mass           positions (alat units)
        1     Li   6.9410   tau(    1) = (    0.00000    0.00000    0.00000  )

     Computing dynamical matrix for 
                    q = (  -0.1250000   0.3750000  -0.1250000 )
 
      2 Sym.Ops. (no q -> -q+G )


     G cutoff =  846.1421  (  25821 G-vectors)     FFT grid: ( 45, 45, 45)
     G cutoff =  423.0711  (   9185 G-vectors)  smooth grid: ( 30, 30, 30)

     number of k points= 89376  Marzari-Vanderbilt smearing, width (Ry)=  0.0200

     PseudoPot. # 1 for Li read from file:
     ../Li.pbe-s-gbrv14.UPF
     MD5 check sum: 7ca33c4f951f001da2db5c8738379802
     Pseudo is Ultrasoft, Zval =  3.0
     Generated by new atomic code, or converted to UPF format
     Using radial grid of  751 points,  5 beta functions with: 
                l(1) =   0
                l(2) =   0
                l(3) =   0
                l(4) =   1
                l(5) =   1
     Q(r) pseudized with 10 coefficients,  rinner =    1.150   1.150   1.150


     Mode symmetry, C_s (m)     point group:


     Atomic displacements:
     There are   3 irreducible representations

     Representation     1      1 modes -A'  To be done

     Representation     2      1 modes -A'  To be done

     Representation     3      1 modes -A''  To be done



     Alpha used in Ewald sum =   2.8000
     PHONON       :  7m11.69s CPU    11m 7.66s WALL



     Representation #  1 mode #   1

     Self-consistent Calculation

      iter #   1 total cpu time :   669.5 secs   av.it.:   6.4
      thresh= 1.000E-02 alpha_mix =  0.700 |ddv_scf|^2 =  7.351E-04

      iter #   2 total cpu time :   681.3 secs   av.it.:   7.9
      thresh= 2.711E-03 alpha_mix =  0.700 |ddv_scf|^2 =  3.435E-02

      iter #   3 total cpu time :   687.9 secs   av.it.:   6.4
      thresh= 1.000E-02 alpha_mix =  0.700 |ddv_scf|^2 =  7.127E-08

      iter #   4 total cpu time :   699.1 secs   av.it.:   9.2
      thresh= 2.670E-05 alpha_mix =  0.700 |ddv_scf|^2 =  4.199E-09

      iter #   5 total cpu time :   706.3 secs   av.it.:   9.1
      thresh= 6.480E-06 alpha_mix =  0.700 |ddv_scf|^2 =  6.575E-11

      iter #   6 total cpu time :   714.5 secs   av.it.:   8.8
      thresh= 8.109E-07 alpha_mix =  0.700 |ddv_scf|^2 =  4.040E-13

      iter #   7 total cpu time :   722.9 secs   av.it.:   9.4
      thresh= 6.356E-08 alpha_mix =  0.700 |ddv_scf|^2 =  2.748E-12

      iter #   8 total cpu time :   727.5 secs   av.it.:   6.7
      thresh= 1.658E-07 alpha_mix =  0.700 |ddv_scf|^2 =  9.983E-14

      iter #   9 total cpu time :   735.6 secs   av.it.:   8.4
      thresh= 3.160E-08 alpha_mix =  0.700 |ddv_scf|^2 =  1.590E-14

      iter #  10 total cpu time :   743.4 secs   av.it.:   7.7
      thresh= 1.261E-08 alpha_mix =  0.700 |ddv_scf|^2 =  3.142E-16

      iter #  11 total cpu time :   748.1 secs   av.it.:   8.7
      thresh= 1.773E-09 alpha_mix =  0.700 |ddv_scf|^2 =  7.432E-19

     End of self-consistent calculation

     Convergence has been achieved 


     Representation #  2 mode #   2

     Self-consistent Calculation

      iter #   1 total cpu time :   755.4 secs   av.it.:   6.1
      thresh= 1.000E-02 alpha_mix =  0.700 |ddv_scf|^2 =  1.114E-04

      iter #   2 total cpu time :   759.9 secs   av.it.:   8.2
      thresh= 1.056E-03 alpha_mix =  0.700 |ddv_scf|^2 =  5.175E-03

      iter #   3 total cpu time :   764.7 secs   av.it.:   5.8
      thresh= 7.194E-03 alpha_mix =  0.700 |ddv_scf|^2 =  3.588E-08

      iter #   4 total cpu time :   770.0 secs   av.it.:   9.3
      thresh= 1.894E-05 alpha_mix =  0.700 |ddv_scf|^2 =  2.009E-09

      iter #   5 total cpu time :   776.3 secs   av.it.:   9.1
      thresh= 4.483E-06 alpha_mix =  0.700 |ddv_scf|^2 =  3.870E-11

      iter #   6 total cpu time :   783.8 secs   av.it.:   9.0
      thresh= 6.221E-07 alpha_mix =  0.700 |ddv_scf|^2 =  5.703E-12

      iter #   7 total cpu time :   791.1 secs   av.it.:   7.0
      thresh= 2.388E-07 alpha_mix =  0.700 |ddv_scf|^2 =  1.134E-11

      iter #   8 total cpu time :   801.8 secs   av.it.:   7.3
      thresh= 3.368E-07 alpha_mix =  0.700 |ddv_scf|^2 =  1.187E-12

      iter #   9 total cpu time :   809.8 secs   av.it.:   7.0
      thresh= 1.089E-07 alpha_mix =  0.700 |ddv_scf|^2 =  5.366E-13

      iter #  10 total cpu time :   817.6 secs   av.it.:   7.5
      thresh= 7.325E-08 alpha_mix =  0.700 |ddv_scf|^2 =  1.299E-16

      iter #  11 total cpu time :   821.4 secs   av.it.:   9.2
      thresh= 1.140E-09 alpha_mix =  0.700 |ddv_scf|^2 =  6.300E-18

     End of self-consistent calculation

     Convergence has been achieved 


     Representation #  3 mode #   3

     Self-consistent Calculation

      iter #   1 total cpu time :   827.4 secs   av.it.:   5.5
      thresh= 1.000E-02 alpha_mix =  0.700 |ddv_scf|^2 =  7.168E-07

      iter #   2 total cpu time :   829.7 secs   av.it.:   8.8
      thresh= 8.466E-05 alpha_mix =  0.700 |ddv_scf|^2 =  4.327E-08

      iter #   3 total cpu time :   835.9 secs   av.it.:   9.2
      thresh= 2.080E-05 alpha_mix =  0.700 |ddv_scf|^2 =  6.311E-10

      iter #   4 total cpu time :   839.2 secs   av.it.:   8.3
      thresh= 2.512E-06 alpha_mix =  0.700 |ddv_scf|^2 =  7.643E-13

      iter #   5 total cpu time :   843.4 secs   av.it.:   8.5
      thresh= 8.743E-08 alpha_mix =  0.700 |ddv_scf|^2 =  1.223E-14

      iter #   6 total cpu time :   851.5 secs   av.it.:   7.8
      thresh= 1.106E-08 alpha_mix =  0.700 |ddv_scf|^2 =  1.784E-17

     End of self-consistent calculation

     Convergence has been achieved 
 
     Number of q in the star =   24
     List of q in the star:
          1  -0.125000000   0.375000000  -0.125000000
          2  -0.125000000   0.375000000   0.125000000
          3   0.125000000   0.375000000  -0.125000000
          4   0.125000000   0.375000000   0.125000000
          5   0.125000000  -0.375000000   0.125000000
          6   0.375000000  -0.125000000   0.125000000
          7   0.125000000  -0.125000000   0.375000000
          8  -0.125000000  -0.375000000  -0.125000000
          9   0.125000000  -0.375000000  -0.125000000
         10  -0.125000000  -0.375000000   0.125000000
         11   0.125000000  -0.125000000  -0.375000000
         12   0.375000000  -0.125000000  -0.125000000
         13  -0.375000000  -0.125000000   0.125000000
         14   0.375000000   0.125000000   0.125000000
         15  -0.125000000  -0.125000000   0.375000000
         16   0.125000000   0.125000000   0.375000000
         17  -0.375000000   0.125000000  -0.125000000
         18  -0.125000000   0.125000000  -0.375000000
         19  -0.375000000  -0.125000000  -0.125000000
         20   0.125000000   0.125000000  -0.375000000
         21   0.375000000   0.125000000  -0.125000000
         22  -0.125000000  -0.125000000  -0.375000000
         23  -0.375000000   0.125000000   0.125000000
         24  -0.125000000   0.125000000   0.375000000

     Diagonalizing the dynamical matrix

     q = (   -0.125000000   0.375000000  -0.125000000 ) 

 **************************************************************************
     freq (    1) =       3.204039 [THz] =     106.875241 [cm-1]
     freq (    2) =       3.464215 [THz] =     115.553784 [cm-1]
     freq (    3) =       5.601594 [THz] =     186.849052 [cm-1]
 **************************************************************************

     Mode symmetry, C_s (m)     point group:

     freq (  1 -  1) =        106.9  [cm-1]   --> A'                 
     freq (  2 -  2) =        115.6  [cm-1]   --> A''                
     freq (  3 -  3) =        186.8  [cm-1]   --> A'                 

     Calculation of q =   -0.2500000   0.5000000  -0.2500000
 
     G-vector sticks info
     --------------------
     sticks:   dense  smooth     PW     G-vecs:    dense   smooth      PW
     Sum        1159     583    211                25821     9185    2085
 


     bravais-lattice index     =            2
     lattice parameter (alat)  =       8.3422  a.u.
     unit-cell volume          =     145.1385 (a.u.)^3
     number of atoms/cell      =            1
     number of atomic types    =            1
     number of electrons       =         3.00
     number of Kohn-Sham states=            6
     kinetic-energy cutoff     =      60.0000  Ry
     charge density cutoff     =     480.0000  Ry
     Exchange-correlation      =  SLA  PW   PBX  PBC ( 1  4  3  4 0 0)

     celldm(1)=   8.342206  celldm(2)=   0.000000  celldm(3)=   0.000000
     celldm(4)=   0.000000  celldm(5)=   0.000000  celldm(6)=   0.000000

     crystal axes: (cart. coord. in units of alat)
               a(1) = (  -0.500000   0.000000   0.500000 )  
               a(2) = (   0.000000   0.500000   0.500000 )  
               a(3) = (  -0.500000   0.500000   0.000000 )  

     reciprocal axes: (cart. coord. in units 2 pi/alat)
               b(1) = ( -1.000000 -1.000000  1.000000 )  
               b(2) = (  1.000000  1.000000  1.000000 )  
               b(3) = ( -1.000000  1.000000 -1.000000 )  


     PseudoPot. # 1 for Li read from file:
     ../Li.pbe-s-gbrv14.UPF
     MD5 check sum: 7ca33c4f951f001da2db5c8738379802
     Pseudo is Ultrasoft, Zval =  3.0
     Generated by new atomic code, or converted to UPF format
     Using radial grid of  751 points,  5 beta functions with: 
                l(1) =   0
                l(2) =   0
                l(3) =   0
                l(4) =   1
                l(5) =   1
     Q(r) pseudized with 10 coefficients,  rinner =    1.150   1.150   1.150


     atomic species   valence    mass     pseudopotential
        Li             3.00     6.94100     Li( 1.00)

     48 Sym. Ops., with inversion, found



   Cartesian axes

     site n.     atom                  positions (alat units)
         1           Li  tau(   1) = (   0.0000000   0.0000000   0.0000000  )

     number of k points= 89376  Marzari-Vanderbilt smearing, width (Ry)=  0.0200

     Number of k-points >= 100: set verbosity='high' to print them.

     Dense  grid:    25821 G-vectors     FFT dimensions: (  45,  45,  45)

     Smooth grid:     9185 G-vectors     FFT dimensions: (  30,  30,  30)

     Largest allocated arrays     est. size (Mb)     dimensions
        Kohn-Sham Wavefunctions         0.11 Mb     (    1158,    6)
        NL pseudopotentials             0.16 Mb     (    1158,    9)
        Each V/rho on FFT grid          1.39 Mb     (   91125)
        Each G-vector array             0.20 Mb     (   25821)
        G-vector shells                 0.00 Mb     (     285)
     Largest temporary arrays     est. size (Mb)     dimensions
        Auxiliary wavefunctions         0.42 Mb     (    1158,   24)
        Each subspace H/S matrix        0.01 Mb     (      24,   24)
        Each <psi_i|beta_j> matrix      0.00 Mb     (       9,    6)

     The potential is recalculated from file :
     ./tmp/_ph0/li-fcc.save/charge-density.dat

     Starting wfc are    5 atomic +    1 random wfc

     Band Structure Calculation
     Davidson diagonalization with overlap

     ethr =  3.33E-10,  avg # of iterations = 15.7

     total cpu time spent up to now is       71.4 secs

     End of band structure calculation

     Number of k-points >= 100: set verbosity='high' to print the bands.

     the Fermi energy is     0.7574 ev

                                                                                

     bravais-lattice index     =            2
     lattice parameter (alat)  =       8.3422  a.u.
     unit-cell volume          =     145.1385 (a.u.)^3
     number of atoms/cell      =            1
     number of atomic types    =            1
     kinetic-energy cut-off    =      60.0000  Ry
     charge density cut-off    =     480.0000  Ry
     convergence threshold     =      1.0E-16
     beta                      =       0.7000
     number of iterations used =            4
     Exchange-correlation      =  SLA  PW   PBX  PBC ( 1  4  3  4 0 0)


     celldm(1)=    8.34221  celldm(2)=    0.00000  celldm(3)=    0.00000
     celldm(4)=    0.00000  celldm(5)=    0.00000  celldm(6)=    0.00000

     crystal axes: (cart. coord. in units of alat)
               a(1) = ( -0.5000  0.0000  0.5000 )  
               a(2) = (  0.0000  0.5000  0.5000 )  
               a(3) = ( -0.5000  0.5000  0.0000 )  

     reciprocal axes: (cart. coord. in units 2 pi/alat)
               b(1) = ( -1.0000 -1.0000  1.0000 )  
               b(2) = (  1.0000  1.0000  1.0000 )  
               b(3) = ( -1.0000  1.0000 -1.0000 )  


     Atoms inside the unit cell: 

     Cartesian axes

     site n.  atom      mass           positions (alat units)
        1     Li   6.9410   tau(    1) = (    0.00000    0.00000    0.00000  )

     Computing dynamical matrix for 
                    q = (  -0.2500000   0.5000000  -0.2500000 )
 
      2 Sym.Ops. (no q -> -q+G )


     G cutoff =  846.1421  (  25821 G-vectors)     FFT grid: ( 45, 45, 45)
     G cutoff =  423.0711  (   9185 G-vectors)  smooth grid: ( 30, 30, 30)

     number of k points= 89376  Marzari-Vanderbilt smearing, width (Ry)=  0.0200

     PseudoPot. # 1 for Li read from file:
     ../Li.pbe-s-gbrv14.UPF
     MD5 check sum: 7ca33c4f951f001da2db5c8738379802
     Pseudo is Ultrasoft, Zval =  3.0
     Generated by new atomic code, or converted to UPF format
     Using radial grid of  751 points,  5 beta functions with: 
                l(1) =   0
                l(2) =   0
                l(3) =   0
                l(4) =   1
                l(5) =   1
     Q(r) pseudized with 10 coefficients,  rinner =    1.150   1.150   1.150


     Mode symmetry, C_s (m)     point group:


     Atomic displacements:
     There are   3 irreducible representations

     Representation     1      1 modes -A'  To be done

     Representation     2      1 modes -A'  To be done

     Representation     3      1 modes -A''  To be done



     Alpha used in Ewald sum =   2.8000
     PHONON       : 10m18.93s CPU    14m55.98s WALL



     Representation #  1 mode #   1

     Self-consistent Calculation

      iter #   1 total cpu time :   897.8 secs   av.it.:   6.4
      thresh= 1.000E-02 alpha_mix =  0.700 |ddv_scf|^2 =  5.127E-05

      iter #   2 total cpu time :   906.2 secs   av.it.:   8.6
      thresh= 7.160E-04 alpha_mix =  0.700 |ddv_scf|^2 =  2.998E-04

      iter #   3 total cpu time :   913.6 secs   av.it.:   7.0
      thresh= 1.732E-03 alpha_mix =  0.700 |ddv_scf|^2 =  3.642E-08

      iter #   4 total cpu time :   922.5 secs   av.it.:   9.1
      thresh= 1.908E-05 alpha_mix =  0.700 |ddv_scf|^2 =  9.481E-10

      iter #   5 total cpu time :   925.0 secs   av.it.:   9.1
      thresh= 3.079E-06 alpha_mix =  0.700 |ddv_scf|^2 =  1.542E-11

      iter #   6 total cpu time :   935.1 secs   av.it.:   9.0
      thresh= 3.927E-07 alpha_mix =  0.700 |ddv_scf|^2 =  8.612E-14

      iter #   7 total cpu time :   938.8 secs   av.it.:   9.2
      thresh= 2.935E-08 alpha_mix =  0.700 |ddv_scf|^2 =  1.574E-13

      iter #   8 total cpu time :   944.4 secs   av.it.:   7.3
      thresh= 3.968E-08 alpha_mix =  0.700 |ddv_scf|^2 =  6.550E-15

      iter #   9 total cpu time :   947.8 secs   av.it.:   9.0
      thresh= 8.093E-09 alpha_mix =  0.700 |ddv_scf|^2 =  8.636E-16

      iter #  10 total cpu time :   953.2 secs   av.it.:   7.9
      thresh= 2.939E-09 alpha_mix =  0.700 |ddv_scf|^2 =  3.671E-18

     End of self-consistent calculation

     Convergence has been achieved 


     Representation #  2 mode #   2

     Self-consistent Calculation

      iter #   1 total cpu time :   959.0 secs   av.it.:   6.2
      thresh= 1.000E-02 alpha_mix =  0.700 |ddv_scf|^2 =  1.351E-05

      iter #   2 total cpu time :   962.7 secs   av.it.:   8.8
      thresh= 3.675E-04 alpha_mix =  0.700 |ddv_scf|^2 =  7.380E-05

      iter #   3 total cpu time :   965.3 secs   av.it.:   7.0
      thresh= 8.591E-04 alpha_mix =  0.700 |ddv_scf|^2 =  3.582E-08

      iter #   4 total cpu time :   969.5 secs   av.it.:   9.1
      thresh= 1.893E-05 alpha_mix =  0.700 |ddv_scf|^2 =  1.230E-09

      iter #   5 total cpu time :   977.1 secs   av.it.:   9.1
      thresh= 3.508E-06 alpha_mix =  0.700 |ddv_scf|^2 =  1.499E-11

      iter #   6 total cpu time :   981.6 secs   av.it.:   9.4
      thresh= 3.872E-07 alpha_mix =  0.700 |ddv_scf|^2 =  1.907E-13

      iter #   7 total cpu time :   984.7 secs   av.it.:   9.2
      thresh= 4.366E-08 alpha_mix =  0.700 |ddv_scf|^2 =  8.233E-13

      iter #   8 total cpu time :   989.7 secs   av.it.:   7.2
      thresh= 9.074E-08 alpha_mix =  0.700 |ddv_scf|^2 =  3.810E-15

      iter #   9 total cpu time :   997.8 secs   av.it.:   9.5
      thresh= 6.172E-09 alpha_mix =  0.700 |ddv_scf|^2 =  6.486E-15

      iter #  10 total cpu time :  1013.5 secs   av.it.:   7.9
      thresh= 8.054E-09 alpha_mix =  0.700 |ddv_scf|^2 =  1.275E-17

     End of self-consistent calculation

     Convergence has been achieved 


     Representation #  3 mode #   3

     Self-consistent Calculation

      iter #   1 total cpu time :  1024.6 secs   av.it.:   5.6
      thresh= 1.000E-02 alpha_mix =  0.700 |ddv_scf|^2 =  7.316E-07

      iter #   2 total cpu time :  1035.1 secs   av.it.:   8.8
      thresh= 8.553E-05 alpha_mix =  0.700 |ddv_scf|^2 =  4.397E-08

      iter #   3 total cpu time :  1044.4 secs   av.it.:   9.2
      thresh= 2.097E-05 alpha_mix =  0.700 |ddv_scf|^2 =  7.351E-10

      iter #   4 total cpu time :  1047.9 secs   av.it.:   8.3
      thresh= 2.711E-06 alpha_mix =  0.700 |ddv_scf|^2 =  8.387E-13

      iter #   5 total cpu time :  1051.9 secs   av.it.:   8.5
      thresh= 9.158E-08 alpha_mix =  0.700 |ddv_scf|^2 =  1.305E-14

      iter #   6 total cpu time :  1059.7 secs   av.it.:   7.9
      thresh= 1.142E-08 alpha_mix =  0.700 |ddv_scf|^2 =  2.278E-17

     End of self-consistent calculation

     Convergence has been achieved 
 
     Number of q in the star =   24
     List of q in the star:
          1  -0.250000000   0.500000000  -0.250000000
          2  -0.250000000   0.500000000   0.250000000
          3   0.250000000   0.500000000  -0.250000000
          4   0.250000000   0.500000000   0.250000000
          5   0.250000000  -0.500000000   0.250000000
[...]
      thresh= 1.075E-04 alpha_mix =  0.700 |ddv_scf|^2 =  7.021E-08

      iter #   3 total cpu time :  4294.4 secs   av.it.:   9.0
      thresh= 2.650E-05 alpha_mix =  0.700 |ddv_scf|^2 =  4.437E-09

      iter #   4 total cpu time :  4297.6 secs   av.it.:   9.0
      thresh= 6.661E-06 alpha_mix =  0.700 |ddv_scf|^2 =  1.428E-10

      iter #   5 total cpu time :  4306.2 secs   av.it.:   8.5
      thresh= 1.195E-06 alpha_mix =  0.700 |ddv_scf|^2 =  1.619E-12

      iter #   6 total cpu time :  4309.8 secs   av.it.:   9.5
      thresh= 1.272E-07 alpha_mix =  0.700 |ddv_scf|^2 =  2.609E-15

      iter #   7 total cpu time :  4311.0 secs   av.it.:   9.6
      thresh= 5.108E-09 alpha_mix =  0.700 |ddv_scf|^2 =  2.184E-16

      iter #   8 total cpu time :  4314.7 secs   av.it.:   9.5
      thresh= 1.478E-09 alpha_mix =  0.700 |ddv_scf|^2 =  3.734E-19

     End of self-consistent calculation

     Convergence has been achieved 


     Representation #  2 mode #   2

     Self-consistent Calculation

      iter #   1 total cpu time :  4320.7 secs   av.it.:   6.1
      thresh= 1.000E-02 alpha_mix =  0.700 |ddv_scf|^2 =  1.135E-06

      iter #   2 total cpu time :  4324.0 secs   av.it.:   9.0
      thresh= 1.065E-04 alpha_mix =  0.700 |ddv_scf|^2 =  4.705E-08

      iter #   3 total cpu time :  4327.4 secs   av.it.:   8.9
      thresh= 2.169E-05 alpha_mix =  0.700 |ddv_scf|^2 =  2.682E-09

      iter #   4 total cpu time :  4331.5 secs   av.it.:   8.8
      thresh= 5.179E-06 alpha_mix =  0.700 |ddv_scf|^2 =  8.935E-12

      iter #   5 total cpu time :  4333.3 secs   av.it.:   8.9
      thresh= 2.989E-07 alpha_mix =  0.700 |ddv_scf|^2 =  7.414E-15

      iter #   6 total cpu time :  4336.2 secs   av.it.:   8.0
      thresh= 8.611E-09 alpha_mix =  0.700 |ddv_scf|^2 =  4.553E-16

      iter #   7 total cpu time :  4338.4 secs   av.it.:   8.2
      thresh= 2.134E-09 alpha_mix =  0.700 |ddv_scf|^2 =  1.907E-19

     End of self-consistent calculation

     Convergence has been achieved 


     Representation #  3 mode #   3

     Self-consistent Calculation

      iter #   1 total cpu time :  4342.8 secs   av.it.:   6.3
      thresh= 1.000E-02 alpha_mix =  0.700 |ddv_scf|^2 =  3.670E-06

      iter #   2 total cpu time :  4346.3 secs   av.it.:   8.9
      thresh= 1.916E-04 alpha_mix =  0.700 |ddv_scf|^2 =  3.468E-07

      iter #   3 total cpu time :  4350.8 secs   av.it.:   8.3
      thresh= 5.889E-05 alpha_mix =  0.700 |ddv_scf|^2 =  8.516E-09

      iter #   4 total cpu time :  4356.6 secs   av.it.:   8.9
      thresh= 9.228E-06 alpha_mix =  0.700 |ddv_scf|^2 =  3.798E-12

      iter #   5 total cpu time :  4368.5 secs   av.it.:   9.0
      thresh= 1.949E-07 alpha_mix =  0.700 |ddv_scf|^2 =  6.006E-14

      iter #   6 total cpu time :  4375.3 secs   av.it.:   8.6
      thresh= 2.451E-08 alpha_mix =  0.700 |ddv_scf|^2 =  1.176E-15

      iter #   7 total cpu time :  4378.5 secs   av.it.:   8.6
      thresh= 3.430E-09 alpha_mix =  0.700 |ddv_scf|^2 =  1.936E-18

     End of self-consistent calculation

     Convergence has been achieved 
 
     Number of q in the star =   12
     List of q in the star:
          1  -0.250000000  -1.000000000   0.000000000
          2   0.000000000  -1.000000000   0.250000000
          3   0.000000000  -1.000000000  -0.250000000
          4   0.250000000  -1.000000000   0.000000000
          5  -1.000000000   0.000000000  -0.250000000
          6   1.000000000   0.000000000   0.250000000
          7  -1.000000000  -0.250000000   0.000000000
          8   0.000000000  -0.250000000  -1.000000000
          9   0.000000000   0.250000000  -1.000000000
         10   1.000000000   0.250000000   0.000000000
         11  -0.250000000   0.000000000   1.000000000
         12   0.250000000   0.000000000   1.000000000

     Diagonalizing the dynamical matrix

     q = (   -0.250000000  -1.000000000   0.000000000 ) 

 **************************************************************************
     freq (    1) =       6.517272 [THz] =     217.392806 [cm-1]
     freq (    2) =       7.542769 [THz] =     251.599707 [cm-1]
     freq (    3) =       9.268310 [THz] =     309.157539 [cm-1]
 **************************************************************************

     Mode symmetry, C_2v (mm2)  point group:

     freq (  1 -  1) =        217.4  [cm-1]   --> A_1  D_1  S_1      
     freq (  2 -  2) =        251.6  [cm-1]   --> B_1  D_3  S_3      
     freq (  3 -  3) =        309.2  [cm-1]   --> B_2  D_4  S_4      

     Calculation of q =   -0.5000000  -1.0000000   0.0000000
 
     G-vector sticks info
     --------------------
     sticks:   dense  smooth     PW     G-vecs:    dense   smooth      PW
     Sum        1159     583    223                25821     9185    2229
 


     bravais-lattice index     =            2
     lattice parameter (alat)  =       8.3422  a.u.
     unit-cell volume          =     145.1385 (a.u.)^3
     number of atoms/cell      =            1
     number of atomic types    =            1
     number of electrons       =         3.00
     number of Kohn-Sham states=            6
     kinetic-energy cutoff     =      60.0000  Ry
     charge density cutoff     =     480.0000  Ry
     Exchange-correlation      =  SLA  PW   PBX  PBC ( 1  4  3  4 0 0)

     celldm(1)=   8.342206  celldm(2)=   0.000000  celldm(3)=   0.000000
     celldm(4)=   0.000000  celldm(5)=   0.000000  celldm(6)=   0.000000

     crystal axes: (cart. coord. in units of alat)
               a(1) = (  -0.500000   0.000000   0.500000 )  
               a(2) = (   0.000000   0.500000   0.500000 )  
               a(3) = (  -0.500000   0.500000   0.000000 )  

     reciprocal axes: (cart. coord. in units 2 pi/alat)
               b(1) = ( -1.000000 -1.000000  1.000000 )  
               b(2) = (  1.000000  1.000000  1.000000 )  
               b(3) = ( -1.000000  1.000000 -1.000000 )  


     PseudoPot. # 1 for Li read from file:
     ../Li.pbe-s-gbrv14.UPF
     MD5 check sum: 7ca33c4f951f001da2db5c8738379802
     Pseudo is Ultrasoft, Zval =  3.0
     Generated by new atomic code, or converted to UPF format
     Using radial grid of  751 points,  5 beta functions with: 
                l(1) =   0
                l(2) =   0
                l(3) =   0
                l(4) =   1
                l(5) =   1
     Q(r) pseudized with 10 coefficients,  rinner =    1.150   1.150   1.150


     atomic species   valence    mass     pseudopotential
        Li             3.00     6.94100     Li( 1.00)

     48 Sym. Ops., with inversion, found



   Cartesian axes

     site n.     atom                  positions (alat units)
         1           Li  tau(   1) = (   0.0000000   0.0000000   0.0000000  )

     number of k points= 21952  Marzari-Vanderbilt smearing, width (Ry)=  0.0200

     Number of k-points >= 100: set verbosity='high' to print them.

     Dense  grid:    25821 G-vectors     FFT dimensions: (  45,  45,  45)

     Smooth grid:     9185 G-vectors     FFT dimensions: (  30,  30,  30)

     Largest allocated arrays     est. size (Mb)     dimensions
        Kohn-Sham Wavefunctions         0.11 Mb     (    1158,    6)
        NL pseudopotentials             0.16 Mb     (    1158,    9)
        Each V/rho on FFT grid          1.39 Mb     (   91125)
        Each G-vector array             0.20 Mb     (   25821)
        G-vector shells                 0.00 Mb     (     285)
     Largest temporary arrays     est. size (Mb)     dimensions
        Auxiliary wavefunctions         0.42 Mb     (    1158,   24)
        Each subspace H/S matrix        0.01 Mb     (      24,   24)
        Each <psi_i|beta_j> matrix      0.00 Mb     (       9,    6)

     The potential is recalculated from file :
     ./tmp/_ph0/li-fcc.save/charge-density.dat

     Starting wfc are    5 atomic +    1 random wfc

     Band Structure Calculation
     Davidson diagonalization with overlap

     ethr =  3.33E-10,  avg # of iterations = 15.6

     total cpu time spent up to now is      414.4 secs

     End of band structure calculation

     Number of k-points >= 100: set verbosity='high' to print the bands.

     the Fermi energy is     0.7574 ev

                                                                                

     bravais-lattice index     =            2
     lattice parameter (alat)  =       8.3422  a.u.
     unit-cell volume          =     145.1385 (a.u.)^3
     number of atoms/cell      =            1
     number of atomic types    =            1
     kinetic-energy cut-off    =      60.0000  Ry
     charge density cut-off    =     480.0000  Ry
     convergence threshold     =      1.0E-16
     beta                      =       0.7000
     number of iterations used =            4
     Exchange-correlation      =  SLA  PW   PBX  PBC ( 1  4  3  4 0 0)


     celldm(1)=    8.34221  celldm(2)=    0.00000  celldm(3)=    0.00000
     celldm(4)=    0.00000  celldm(5)=    0.00000  celldm(6)=    0.00000

     crystal axes: (cart. coord. in units of alat)
               a(1) = ( -0.5000  0.0000  0.5000 )  
               a(2) = (  0.0000  0.5000  0.5000 )  
               a(3) = ( -0.5000  0.5000  0.0000 )  

     reciprocal axes: (cart. coord. in units 2 pi/alat)
               b(1) = ( -1.0000 -1.0000  1.0000 )  
               b(2) = (  1.0000  1.0000  1.0000 )  
               b(3) = ( -1.0000  1.0000 -1.0000 )  


     Atoms inside the unit cell: 

     Cartesian axes

     site n.  atom      mass           positions (alat units)
        1     Li   6.9410   tau(    1) = (    0.00000    0.00000    0.00000  )

     Computing dynamical matrix for 
                    q = (  -0.5000000  -1.0000000   0.0000000 )
 
      8 Sym.Ops. (no q -> -q+G )


     G cutoff =  846.1421  (  25821 G-vectors)     FFT grid: ( 45, 45, 45)
     G cutoff =  423.0711  (   9185 G-vectors)  smooth grid: ( 30, 30, 30)

     number of k points= 21952  Marzari-Vanderbilt smearing, width (Ry)=  0.0200

     PseudoPot. # 1 for Li read from file:
     ../Li.pbe-s-gbrv14.UPF
     MD5 check sum: 7ca33c4f951f001da2db5c8738379802
     Pseudo is Ultrasoft, Zval =  3.0
     Generated by new atomic code, or converted to UPF format
     Using radial grid of  751 points,  5 beta functions with: 
                l(1) =   0
                l(2) =   0
                l(3) =   0
                l(4) =   1
                l(5) =   1
     Q(r) pseudized with 10 coefficients,  rinner =    1.150   1.150   1.150


     Mode symmetry, D_2d (-42m) point group:


     Atomic displacements:
     There are   2 irreducible representations

     Representation     1      1 modes -B_2  X_3  W_2  To be done

     Representation     2      2 modes -E    X_5  W_3  To be done



     Alpha used in Ewald sum =   2.8000
     PHONON       :     0h56m CPU        1h13m WALL



     Representation #  1 mode #   1

     Self-consistent Calculation

      iter #   1 total cpu time :  4402.5 secs   av.it.:   6.1
      thresh= 1.000E-02 alpha_mix =  0.700 |ddv_scf|^2 =  1.379E-06

      iter #   2 total cpu time :  4407.1 secs   av.it.:   8.9
      thresh= 1.174E-04 alpha_mix =  0.700 |ddv_scf|^2 =  6.526E-08

      iter #   3 total cpu time :  4410.1 secs   av.it.:   8.8
      thresh= 2.555E-05 alpha_mix =  0.700 |ddv_scf|^2 =  3.669E-09

      iter #   4 total cpu time :  4412.1 secs   av.it.:   9.0
      thresh= 6.057E-06 alpha_mix =  0.700 |ddv_scf|^2 =  1.799E-11

      iter #   5 total cpu time :  4415.3 secs   av.it.:   9.0
      thresh= 4.241E-07 alpha_mix =  0.700 |ddv_scf|^2 =  3.974E-14

      iter #   6 total cpu time :  4416.1 secs   av.it.:   8.7
      thresh= 1.994E-08 alpha_mix =  0.700 |ddv_scf|^2 =  9.600E-16

      iter #   7 total cpu time :  4416.8 secs   av.it.:   8.3
      thresh= 3.098E-09 alpha_mix =  0.700 |ddv_scf|^2 =  7.567E-19

     End of self-consistent calculation

     Convergence has been achieved 


     Representation #  2 modes #   2  3

     Self-consistent Calculation

      iter #   1 total cpu time :  4422.5 secs   av.it.:   6.3
      thresh= 1.000E-02 alpha_mix =  0.700 |ddv_scf|^2 =  5.163E-07

      iter #   2 total cpu time :  4430.4 secs   av.it.:   9.5
      thresh= 7.185E-05 alpha_mix =  0.700 |ddv_scf|^2 =  2.365E-08

      iter #   3 total cpu time :  4439.4 secs   av.it.:   8.9
      thresh= 1.538E-05 alpha_mix =  0.700 |ddv_scf|^2 =  1.409E-09

      iter #   4 total cpu time :  4447.7 secs   av.it.:   9.5
      thresh= 3.753E-06 alpha_mix =  0.700 |ddv_scf|^2 =  1.404E-12

      iter #   5 total cpu time :  4452.0 secs   av.it.:   9.3
      thresh= 1.185E-07 alpha_mix =  0.700 |ddv_scf|^2 =  4.021E-15

      iter #   6 total cpu time :  4458.8 secs   av.it.:   9.4
      thresh= 6.341E-09 alpha_mix =  0.700 |ddv_scf|^2 =  2.141E-16

      iter #   7 total cpu time :  4460.7 secs   av.it.:   9.4
      thresh= 1.463E-09 alpha_mix =  0.700 |ddv_scf|^2 =  3.153E-19

     End of self-consistent calculation

     Convergence has been achieved 
 
     Number of q in the star =    6
     List of q in the star:
          1  -0.500000000  -1.000000000   0.000000000
          2   0.000000000   1.000000000   0.500000000
          3   0.500000000  -1.000000000   0.000000000
          4   0.000000000   1.000000000  -0.500000000
          5  -1.000000000  -0.500000000   0.000000000
          6   0.000000000  -0.500000000  -1.000000000

     Diagonalizing the dynamical matrix

     q = (   -0.500000000  -1.000000000   0.000000000 ) 

 **************************************************************************
     freq (    1) =       6.184591 [THz] =     206.295750 [cm-1]
     freq (    2) =       8.554901 [THz] =     285.360774 [cm-1]
     freq (    3) =       8.554901 [THz] =     285.360774 [cm-1]
 **************************************************************************

     Mode symmetry, D_2d (-42m) point group:

     freq (  1 -  1) =        206.3  [cm-1]   --> B_2  X_3  W_2      
     freq (  2 -  3) =        285.4  [cm-1]   --> E    X_5  W_3      
 
     init_run     :      9.32s CPU      9.50s WALL (      28 calls)
     electrons    :    329.06s CPU    332.25s WALL (      28 calls)

     Called by init_run:
     wfcinit      :      0.00s CPU      0.01s WALL (      28 calls)
     potinit      :      2.90s CPU      3.00s WALL (      28 calls)

     Called by electrons:
     c_bands      :    328.72s CPU    331.88s WALL (      28 calls)
     v_of_rho     :      1.78s CPU      1.80s WALL (      29 calls)
     newd         :      0.54s CPU      0.60s WALL (      29 calls)

     Called by c_bands:
     init_us_2    :      8.16s CPU      8.37s WALL (   40698 calls)
     cegterg      :    224.02s CPU    225.12s WALL (    3677 calls)

     Called by sum_band:

     Called by *egterg:
     h_psi        :    214.67s CPU    215.70s WALL (   58268 calls)
     s_psi        :     24.07s CPU     24.28s WALL (  656956 calls)
     g_psi        :      1.38s CPU      1.37s WALL (   52083 calls)
     cdiaghg      :      7.10s CPU      7.31s WALL (   54591 calls)

     Called by h_psi:
     add_vuspsi   :     18.39s CPU     18.27s WALL (  342391 calls)

     General routines
     calbec       :     15.30s CPU     15.68s WALL (  723842 calls)
     fft          :     30.15s CPU     30.37s WALL (   10738 calls)
     ffts         :      3.82s CPU      3.76s WALL (    5571 calls)
     fftw         :    768.04s CPU    775.25s WALL ( 1742352 calls)
     interpolate  :      5.58s CPU      5.59s WALL (    1479 calls)
     davcio       :      0.24s CPU      1.01s WALL (    7530 calls)
 
     Parallel routines
     fft_scatter  :     43.18s CPU     42.76s WALL ( 1758661 calls)
 
     PHONON       :     0h57m CPU        1h14m WALL

     INITIALIZATION: 
     phq_setup    :      4.44s CPU     25.21s WALL (      29 calls)
     phq_init     :    123.00s CPU    174.56s WALL (      29 calls)
 
     phq_init     :    123.00s CPU    174.56s WALL (      29 calls)
     init_vloc    :      0.04s CPU      0.04s WALL (      29 calls)
     init_us_1    :      4.44s CPU      4.44s WALL (      29 calls)
     newd         :      0.54s CPU      0.60s WALL (      29 calls)
     dvanqq       :      3.32s CPU      3.34s WALL (      29 calls)
     drho         :    113.62s CPU    113.93s WALL (      29 calls)
 
     DYNAMICAL MATRIX:
     dynmat0      :      1.20s CPU     24.38s WALL (      29 calls)
     phqscf       :   2769.71s CPU   3607.47s WALL (      29 calls)
     dynmatrix    :     73.14s CPU    109.25s WALL (      29 calls)
 
     phqscf       :   2769.71s CPU   3607.47s WALL (      29 calls)
     solve_linter :   2767.33s CPU   3514.21s WALL (      76 calls)
     drhodv       :      2.08s CPU      2.25s WALL (      76 calls)
 
     dynmat0      :      1.20s CPU     24.38s WALL (      29 calls)
     dynmat_us    :      1.04s CPU      1.10s WALL (      29 calls)
     d2ionq       :      0.10s CPU      0.10s WALL (      29 calls)
 
     dynmat_us    :      1.04s CPU      1.10s WALL (      29 calls)
     addusdynmat  :      0.00s CPU      0.00s WALL (      29 calls)
 
     phqscf       :   2769.71s CPU   3607.47s WALL (      29 calls)
     solve_linter :   2767.33s CPU   3514.21s WALL (      76 calls)
 
     solve_linter :   2767.33s CPU   3514.21s WALL (      76 calls)
     dvqpsi_us    :     25.55s CPU     26.00s WALL (    3771 calls)
     ortho        :      5.65s CPU      5.66s WALL (   30442 calls)
     cgsolve      :    608.00s CPU    613.07s WALL (   30442 calls)
     incdrhoscf   :     64.21s CPU     64.87s WALL (   30442 calls)
     addusddens   :     17.23s CPU     17.29s WALL (     676 calls)
     vpsifft      :     52.30s CPU     53.51s WALL (   26671 calls)
     dv_of_drho   :     40.76s CPU     41.15s WALL (     667 calls)
     mix_pot      :      6.56s CPU      6.72s WALL (     600 calls)
     ef_shift     :      0.12s CPU      0.12s WALL (       7 calls)
     localdos     :      0.05s CPU      0.06s WALL (       1 calls)
     psymdvscf    :     15.50s CPU     15.46s WALL (     548 calls)
     newdq        :     16.35s CPU     16.49s WALL (     600 calls)
     adddvscf     :      1.86s CPU      1.79s WALL (   26671 calls)
     drhodvus     :      0.32s CPU      0.32s WALL (      76 calls)
 
     dvqpsi_us    :     25.55s CPU     26.00s WALL (    3771 calls)
     dvqpsi_us_on :      1.22s CPU      1.31s WALL (    3771 calls)
 
     cgsolve      :    608.00s CPU    613.07s WALL (   30442 calls)
     ch_psi       :    600.59s CPU    605.57s WALL (  284123 calls)
 
     ch_psi       :    600.59s CPU    605.57s WALL (  284123 calls)
     h_psiq       :    575.00s CPU    579.82s WALL (  284123 calls)
     last         :     23.52s CPU     23.83s WALL (  284123 calls)
 
     h_psiq       :    575.00s CPU    579.82s WALL (  284123 calls)
     firstfft     :    288.11s CPU    290.07s WALL (  528694 calls)
     secondfft    :    233.02s CPU    235.82s WALL (  528694 calls)
     add_vuspsi   :     18.39s CPU     18.27s WALL (  342391 calls)
 
     incdrhoscf   :     64.21s CPU     64.87s WALL (   30442 calls)
     addusdbec    :      1.80s CPU      1.85s WALL (   34213 calls)
 
     drhodvus     :      0.32s CPU      0.32s WALL (      76 calls)
 
      General routines
     calbec       :     15.30s CPU     15.68s WALL (  723842 calls)
     fft          :     30.15s CPU     30.37s WALL (   10738 calls)
     ffts         :      3.82s CPU      3.76s WALL (    5571 calls)
     fftw         :    768.04s CPU    775.25s WALL ( 1742352 calls)
     davcio       :      0.24s CPU      1.01s WALL (    7530 calls)
     write_rec    :      1.85s CPU    826.92s WALL (     676 calls)
 
 
     PHONON       :     0h57m CPU        1h14m WALL

 
   This run was terminated on:  21:58:10  23Jun2016            

=------------------------------------------------------------------------------=
   JOB DONE.
=------------------------------------------------------------------------------=
Application 22276155 resources: utime ~3130862s, stime ~8783s, Rss ~170976, inblocks ~924194766, outblocks ~2695531572
