
     Program PWSCF v.6.1 (svn rev. 13369) starts on 20Dec2017 at 11:22:26 

     This program is part of the open-source Quantum ESPRESSO suite
     for quantum simulation of materials; please cite
         "P. Giannozzi et al., J. Phys.:Condens. Matter 21 395502 (2009);
          URL http://www.quantum-espresso.org", 
     in publications or presentations arising from this work. More details at
     http://www.quantum-espresso.org/quote

     Parallel version (MPI), running on     4 processors
     R & G space division:  proc/nbgrp/npool/nimage =       4
     Waiting for input...
     Reading input from standard input

     Current dimensions of program PWSCF are:
     Max number of different atomic species (ntypx) = 10
     Max number of k-points (npk) =  40000
     Max angular momentum in pseudopotentials (lmaxx) =  3

     Subspace diagonalization in iterative solution of the eigenvalue problem:
     a serial algorithm will be used


     Parallelization info
     --------------------
     sticks:   dense  smooth     PW     G-vecs:    dense   smooth      PW
     Min         175      90     30                 3084     1095     234
     Max         176      91     31                 3086     1096     238
     Sum         703     361    121                12339     4381     941



     bravais-lattice index     =            2
     lattice parameter (alat)  =       8.0000  a.u.
     unit-cell volume          =     128.0000 (a.u.)^3
     number of atoms/cell      =            1
     number of atomic types    =            1
     number of electrons       =         9.00
     number of Kohn-Sham states=            9
     kinetic-energy cutoff     =      40.0000  Ry
     charge density cutoff     =     320.0000  Ry
     convergence threshold     =      1.0E-08
     mixing beta               =       0.7000
     number of iterations used =            8  plain     mixing
     Exchange-correlation      = SLA  PW   PBE  PBE ( 1  4  3  4 0 0)
     nstep                     =           50


     celldm(1)=   8.000000  celldm(2)=   0.000000  celldm(3)=   0.000000
     celldm(4)=   0.000000  celldm(5)=   0.000000  celldm(6)=   0.000000

     crystal axes: (cart. coord. in units of alat)
               a(1) = (  -0.500000   0.000000   0.500000 )  
               a(2) = (   0.000000   0.500000   0.500000 )  
               a(3) = (  -0.500000   0.500000   0.000000 )  

     reciprocal axes: (cart. coord. in units 2 pi/alat)
               b(1) = ( -1.000000 -1.000000  1.000000 )  
               b(2) = (  1.000000  1.000000  1.000000 )  
               b(3) = ( -1.000000  1.000000 -1.000000 )  


     PseudoPot. # 1 for Na read from file:
     /home/s1333534/quantum_espresso/qe-6.1/pseudo/Na_pbe_v1.uspp.F.UPF
     MD5 check sum: 76a99c7e9422403d3e93cbc85ab7bccb
     Pseudo is Ultrasoft, Zval =  9.0
     Generated by new atomic code, or converted to UPF format
     Using radial grid of  819 points,  5 beta functions with: 
                l(1) =   0
                l(2) =   0
                l(3) =   1
                l(4) =   1
                l(5) =   2
     Q(r) pseudized with  8 coefficients,  rinner =    1.250   1.250   1.250
                                                       1.250   1.250

     atomic species   valence    mass     pseudopotential
        Na             9.00    22.99000     Na( 1.00)

     48 Sym. Ops., with inversion, found



   Cartesian axes

     site n.     atom                  positions (alat units)
         1           Na  tau(   1) = (   0.0000000   0.0000000   0.0000000  )

     number of k points=   770  Marzari-Vanderbilt smearing, width (Ry)=  0.0200

     Number of k-points >= 100: set verbosity='high' to print them.

     Dense  grid:    12339 G-vectors     FFT dimensions: (  36,  36,  36)

     Smooth grid:     4381 G-vectors     FFT dimensions: (  24,  24,  24)

     Estimated max dynamical RAM per process >      16.64MB

     Estimated total allocated dynamical RAM >      66.55MB

     Initial potential from superposition of free atoms

     starting charge    8.99371, renormalised to    9.00000
     Starting wfc are    5 randomized atomic wfcs +    4 random wfc

     total cpu time spent up to now is        1.2 secs

     per-process dynamical memory:    24.8 Mb

     Self-consistent Calculation

     iteration #  1     ecut=    40.00 Ry     beta=0.70
     Davidson diagonalization with overlap
     ethr =  1.00E-02,  avg # of iterations =  5.1

     Threshold (ethr) on eigenvalues was too large:
     Diagonalizing with lowered threshold

     Davidson diagonalization with overlap
     ethr =  2.47E-05,  avg # of iterations =  2.4

     total cpu time spent up to now is        8.3 secs

     total energy              =     -95.06263719 Ry
     Harris-Foulkes estimate   =     -95.06346383 Ry
     estimated scf accuracy    <       0.00221907 Ry

     iteration #  2     ecut=    40.00 Ry     beta=0.70
     Davidson diagonalization with overlap
     ethr =  2.47E-05,  avg # of iterations =  2.0

     total cpu time spent up to now is       10.8 secs

     total energy              =     -95.06293327 Ry
     Harris-Foulkes estimate   =     -95.06299962 Ry
     estimated scf accuracy    <       0.00025023 Ry

     iteration #  3     ecut=    40.00 Ry     beta=0.70
     Davidson diagonalization with overlap
     ethr =  2.78E-06,  avg # of iterations =  2.1

     total cpu time spent up to now is       13.4 secs

     total energy              =     -95.06296602 Ry
     Harris-Foulkes estimate   =     -95.06296754 Ry
     estimated scf accuracy    <       0.00001446 Ry

     iteration #  4     ecut=    40.00 Ry     beta=0.70
     Davidson diagonalization with overlap
     ethr =  1.61E-07,  avg # of iterations =  1.0

     total cpu time spent up to now is       15.6 secs

     total energy              =     -95.06296732 Ry
     Harris-Foulkes estimate   =     -95.06296725 Ry
     estimated scf accuracy    <       0.00000002 Ry

     iteration #  5     ecut=    40.00 Ry     beta=0.70
     Davidson diagonalization with overlap
     ethr =  2.20E-10,  avg # of iterations =  3.0

     total cpu time spent up to now is       18.8 secs

     End of self-consistent calculation

     Number of k-points >= 100: set verbosity='high' to print the bands.

     the Fermi energy is     5.7098 ev

!    total energy              =     -95.06296737 Ry
     Harris-Foulkes estimate   =     -95.06296737 Ry
     estimated scf accuracy    <          2.7E-09 Ry

     The total energy is the sum of the following terms:

     one-electron contribution =     -72.01868817 Ry
     hartree contribution      =      37.75480527 Ry
     xc contribution           =     -14.37732448 Ry
     ewald contribution        =     -46.42172850 Ry
     smearing contrib. (-TS)   =      -0.00003149 Ry

     convergence has been achieved in   5 iterations

     Forces acting on atoms (cartesian axes, Ry/au):

     atom    1 type  1   force =     0.00000000    0.00000000    0.00000000

     Total force =     0.000000     Total SCF correction =     0.000000


     Computing stress (Cartesian axis) and pressure

          total   stress  (Ry/bohr**3)                   (kbar)     P=  175.59
   0.00119366   0.00000000   0.00000000        175.59      0.00      0.00
   0.00000000   0.00119366  -0.00000000          0.00    175.59     -0.00
   0.00000000  -0.00000000   0.00119366          0.00     -0.00    175.59


     BFGS Geometry Optimization

     number of scf cycles    =   1
     number of bfgs steps    =   0

     enthalpy new            =     -95.0020585179 Ry

     new trust radius        =       0.0406056656 bohr
     new conv_thr            =       0.0000000100 Ry

     new unit-cell volume =    135.01541 a.u.^3 (    20.00722 Ang^3 )
     density =      1.90810 g/cm^3

CELL_PARAMETERS (alat=  8.00000000)
  -0.508972669  -0.000000000   0.508972669
   0.000000000   0.508972669   0.508972669
  -0.508972669   0.508972669  -0.000000000

ATOMIC_POSITIONS (crystal)
Na       0.000000000   0.000000000   0.000000000



     Writing output data file na.fcc.save
     NEW-OLD atomic charge density approx. for the potential
     extrapolated charge    9.46731, renormalised to    9.00000

     total cpu time spent up to now is       20.7 secs

     per-process dynamical memory:    31.6 Mb

     Self-consistent Calculation

     iteration #  1     ecut=    40.00 Ry     beta=0.70
     Davidson diagonalization with overlap
     ethr =  1.00E-06,  avg # of iterations =  3.9

     total cpu time spent up to now is       25.0 secs

     total energy              =     -94.90783938 Ry
     Harris-Foulkes estimate   =     -92.04759665 Ry
     estimated scf accuracy    <       0.09105130 Ry

     iteration #  2     ecut=    40.00 Ry     beta=0.70
     Davidson diagonalization with overlap
     ethr =  1.01E-03,  avg # of iterations =  2.9

     total cpu time spent up to now is       28.5 secs

     total energy              =     -95.07640379 Ry
     Harris-Foulkes estimate   =     -95.14329247 Ry
     estimated scf accuracy    <       0.15223701 Ry

     iteration #  3     ecut=    40.00 Ry     beta=0.70
     Davidson diagonalization with overlap
     ethr =  1.01E-03,  avg # of iterations =  1.2

     total cpu time spent up to now is       30.8 secs

     total energy              =     -95.07435834 Ry
     Harris-Foulkes estimate   =     -95.08541703 Ry
     estimated scf accuracy    <       0.03267120 Ry

     iteration #  4     ecut=    40.00 Ry     beta=0.70
     Davidson diagonalization with overlap
     ethr =  3.63E-04,  avg # of iterations =  1.0

     total cpu time spent up to now is       33.0 secs

     total energy              =     -95.07388915 Ry
     Harris-Foulkes estimate   =     -95.07573844 Ry
     estimated scf accuracy    <       0.01102972 Ry

     iteration #  5     ecut=    40.00 Ry     beta=0.70
     Davidson diagonalization with overlap
     ethr =  1.23E-04,  avg # of iterations =  1.0

     total cpu time spent up to now is       35.2 secs

     total energy              =     -95.07213483 Ry
     Harris-Foulkes estimate   =     -95.07402393 Ry
     estimated scf accuracy    <       0.00739525 Ry

     iteration #  6     ecut=    40.00 Ry     beta=0.70
     Davidson diagonalization with overlap
     ethr =  8.22E-05,  avg # of iterations =  1.0

     total cpu time spent up to now is       37.4 secs

     total energy              =     -95.07005896 Ry
     Harris-Foulkes estimate   =     -95.07226952 Ry
     estimated scf accuracy    <       0.00368395 Ry

     iteration #  7     ecut=    40.00 Ry     beta=0.70
     Davidson diagonalization with overlap
     ethr =  4.09E-05,  avg # of iterations =  2.0

     total cpu time spent up to now is       39.9 secs

     total energy              =     -95.07057136 Ry
     Harris-Foulkes estimate   =     -95.07061224 Ry
     estimated scf accuracy    <       0.00010414 Ry

     iteration #  8     ecut=    40.00 Ry     beta=0.70
     Davidson diagonalization with overlap
     ethr =  1.16E-06,  avg # of iterations =  1.9

     total cpu time spent up to now is       42.4 secs

     total energy              =     -95.07055527 Ry
     Harris-Foulkes estimate   =     -95.07057898 Ry
     estimated scf accuracy    <       0.00002792 Ry

     iteration #  9     ecut=    40.00 Ry     beta=0.70
     Davidson diagonalization with overlap
     ethr =  3.10E-07,  avg # of iterations =  2.0

     total cpu time spent up to now is       45.2 secs

     total energy              =     -95.07056139 Ry
     Harris-Foulkes estimate   =     -95.07057621 Ry
     estimated scf accuracy    <       0.00002119 Ry

     iteration # 10     ecut=    40.00 Ry     beta=0.70
     Davidson diagonalization with overlap
     ethr =  2.35E-07,  avg # of iterations =  2.0

     total cpu time spent up to now is       47.9 secs

     total energy              =     -95.07056695 Ry
     Harris-Foulkes estimate   =     -95.07056680 Ry
     estimated scf accuracy    <       0.00000081 Ry

     iteration # 11     ecut=    40.00 Ry     beta=0.70
     Davidson diagonalization with overlap
     ethr =  9.03E-09,  avg # of iterations =  1.0

     total cpu time spent up to now is       50.1 secs

     total energy              =     -95.07056658 Ry
     Harris-Foulkes estimate   =     -95.07056699 Ry
     estimated scf accuracy    <       0.00000110 Ry

     iteration # 12     ecut=    40.00 Ry     beta=0.70
     Davidson diagonalization with overlap
     ethr =  9.03E-09,  avg # of iterations =  1.0

     total cpu time spent up to now is       52.3 secs

     total energy              =     -95.07056657 Ry
     Harris-Foulkes estimate   =     -95.07056665 Ry
     estimated scf accuracy    <       0.00000022 Ry

     iteration # 13     ecut=    40.00 Ry     beta=0.70
     Davidson diagonalization with overlap
     ethr =  2.49E-09,  avg # of iterations =  1.0

     total cpu time spent up to now is       54.5 secs

     total energy              =     -95.07056657 Ry
     Harris-Foulkes estimate   =     -95.07056658 Ry
     estimated scf accuracy    <       0.00000004 Ry

     iteration # 14     ecut=    40.00 Ry     beta=0.70
     Davidson diagonalization with overlap
     ethr =  4.37E-10,  avg # of iterations =  1.0

     total cpu time spent up to now is       56.7 secs

     End of self-consistent calculation

     Number of k-points >= 100: set verbosity='high' to print the bands.

     the Fermi energy is     5.2605 ev

!    total energy              =     -95.07056657 Ry
     Harris-Foulkes estimate   =     -95.07056657 Ry
     estimated scf accuracy    <          3.1E-09 Ry

     The total energy is the sum of the following terms:

     one-electron contribution =     -73.42302380 Ry
     hartree contribution      =      38.32246509 Ry
     xc contribution           =     -14.36661545 Ry
     ewald contribution        =     -45.60336075 Ry
     smearing contrib. (-TS)   =      -0.00003167 Ry

     convergence has been achieved in  14 iterations

     Forces acting on atoms (cartesian axes, Ry/au):

     atom    1 type  1   force =     0.00000000    0.00000000    0.00000000

     Total force =     0.000000     Total SCF correction =     0.000000


     Computing stress (Cartesian axis) and pressure

          total   stress  (Ry/bohr**3)                   (kbar)     P=  144.82
   0.00098447   0.00000000   0.00000000        144.82      0.00      0.00
   0.00000000   0.00098447  -0.00000000          0.00    144.82     -0.00
   0.00000000  -0.00000000   0.00098447          0.00     -0.00    144.82


     number of scf cycles    =   2
     number of bfgs steps    =   1

     enthalpy old            =     -95.0020585179 Ry
     enthalpy new            =     -95.0063194317 Ry

     CASE: enthalpy_new < enthalpy_old

     new trust radius        =       0.0450652254 bohr
     new conv_thr            =            1.0E-10 Ry

     new unit-cell volume =    143.02332 a.u.^3 (    21.19387 Ang^3 )
     density =      1.80127 g/cm^3

CELL_PARAMETERS (alat=  8.00000000)
  -0.518842606  -0.000000000   0.518842606
   0.000000000   0.518842606   0.518842606
  -0.518842606   0.518842606  -0.000000000

ATOMIC_POSITIONS (crystal)
Na       0.000000000   0.000000000   0.000000000



     Writing output data file na.fcc.save
     NEW-OLD atomic charge density approx. for the potential
     extrapolated charge    9.50356, renormalised to    9.00000

     total cpu time spent up to now is       58.5 secs

     per-process dynamical memory:    31.6 Mb

     Self-consistent Calculation

     iteration #  1     ecut=    40.00 Ry     beta=0.70
     Davidson diagonalization with overlap
     ethr =  1.00E-06,  avg # of iterations =  4.0

     total cpu time spent up to now is       63.0 secs

     total energy              =     -94.88346083 Ry
     Harris-Foulkes estimate   =     -91.75019975 Ry
     estimated scf accuracy    <       0.10861112 Ry

     iteration #  2     ecut=    40.00 Ry     beta=0.70
     Davidson diagonalization with overlap
     ethr =  1.21E-03,  avg # of iterations =  3.0

     total cpu time spent up to now is       66.4 secs

     total energy              =     -95.08484091 Ry
     Harris-Foulkes estimate   =     -95.16454893 Ry
     estimated scf accuracy    <       0.18131484 Ry

     iteration #  3     ecut=    40.00 Ry     beta=0.70
     Davidson diagonalization with overlap
     ethr =  1.21E-03,  avg # of iterations =  1.2

     total cpu time spent up to now is       68.7 secs

     total energy              =     -95.08203722 Ry
     Harris-Foulkes estimate   =     -95.09547891 Ry
     estimated scf accuracy    <       0.03921828 Ry

     iteration #  4     ecut=    40.00 Ry     beta=0.70
     Davidson diagonalization with overlap
     ethr =  4.36E-04,  avg # of iterations =  1.0

     total cpu time spent up to now is       70.9 secs

     total energy              =     -95.08137648 Ry
     Harris-Foulkes estimate   =     -95.08371751 Ry
     estimated scf accuracy    <       0.01305018 Ry

     iteration #  5     ecut=    40.00 Ry     beta=0.70
     Davidson diagonalization with overlap
     ethr =  1.45E-04,  avg # of iterations =  1.0

     total cpu time spent up to now is       73.1 secs

     total energy              =     -95.07930450 Ry
     Harris-Foulkes estimate   =     -95.08155174 Ry
     estimated scf accuracy    <       0.00842017 Ry

     iteration #  6     ecut=    40.00 Ry     beta=0.70
     Davidson diagonalization with overlap
     ethr =  9.36E-05,  avg # of iterations =  1.0

     total cpu time spent up to now is       75.3 secs

     total energy              =     -95.07695453 Ry
     Harris-Foulkes estimate   =     -95.07946813 Ry
     estimated scf accuracy    <       0.00405159 Ry

     iteration #  7     ecut=    40.00 Ry     beta=0.70
     Davidson diagonalization with overlap
     ethr =  4.50E-05,  avg # of iterations =  2.0

     total cpu time spent up to now is       77.9 secs

     total energy              =     -95.07760345 Ry
     Harris-Foulkes estimate   =     -95.07762307 Ry
     estimated scf accuracy    <       0.00006798 Ry

     iteration #  8     ecut=    40.00 Ry     beta=0.70
     Davidson diagonalization with overlap
     ethr =  7.55E-07,  avg # of iterations =  1.6

     total cpu time spent up to now is       80.3 secs

     total energy              =     -95.07758097 Ry
     Harris-Foulkes estimate   =     -95.07760619 Ry
     estimated scf accuracy    <       0.00002981 Ry

     iteration #  9     ecut=    40.00 Ry     beta=0.70
     Davidson diagonalization with overlap
     ethr =  3.31E-07,  avg # of iterations =  2.0

     total cpu time spent up to now is       83.0 secs

     total energy              =     -95.07759028 Ry
     Harris-Foulkes estimate   =     -95.07760452 Ry
     estimated scf accuracy    <       0.00002551 Ry

     iteration # 10     ecut=    40.00 Ry     beta=0.70
     Davidson diagonalization with overlap
     ethr =  2.83E-07,  avg # of iterations =  2.0

     total cpu time spent up to now is       85.6 secs

     total energy              =     -95.07759229 Ry
     Harris-Foulkes estimate   =     -95.07759363 Ry
     estimated scf accuracy    <       0.00000254 Ry

     iteration # 11     ecut=    40.00 Ry     beta=0.70
     Davidson diagonalization with overlap
     ethr =  2.83E-08,  avg # of iterations =  2.0

     total cpu time spent up to now is       88.3 secs

     total energy              =     -95.07759255 Ry
     Harris-Foulkes estimate   =     -95.07759338 Ry
     estimated scf accuracy    <       0.00000164 Ry

     iteration # 12     ecut=    40.00 Ry     beta=0.70
     Davidson diagonalization with overlap
     ethr =  1.83E-08,  avg # of iterations =  2.0

     total cpu time spent up to now is       90.9 secs

     total energy              =     -95.07759278 Ry
     Harris-Foulkes estimate   =     -95.07759277 Ry
     estimated scf accuracy    <          7.5E-09 Ry

     iteration # 13     ecut=    40.00 Ry     beta=0.70
     Davidson diagonalization with overlap
     ethr =  8.33E-11,  avg # of iterations =  2.0

     total cpu time spent up to now is       93.4 secs

     total energy              =     -95.07759277 Ry
     Harris-Foulkes estimate   =     -95.07759278 Ry
     estimated scf accuracy    <       0.00000002 Ry

     iteration # 14     ecut=    40.00 Ry     beta=0.70
     Davidson diagonalization with overlap
     ethr =  8.33E-11,  avg # of iterations =  2.0

     total cpu time spent up to now is       96.1 secs

     total energy              =     -95.07759277 Ry
     Harris-Foulkes estimate   =     -95.07759277 Ry
     estimated scf accuracy    <          3.5E-10 Ry

     iteration # 15     ecut=    40.00 Ry     beta=0.70
     Davidson diagonalization with overlap
     ethr =  3.91E-12,  avg # of iterations =  2.0

     total cpu time spent up to now is       98.7 secs

     End of self-consistent calculation

     Number of k-points >= 100: set verbosity='high' to print the bands.

     the Fermi energy is     4.8042 ev

!    total energy              =     -95.07759277 Ry
     Harris-Foulkes estimate   =     -95.07759277 Ry
     estimated scf accuracy    <          1.1E-12 Ry

     The total energy is the sum of the following terms:

     one-electron contribution =     -74.91464229 Ry
     hartree contribution      =      38.92837724 Ry
     xc contribution           =     -14.35544701 Ry
     ewald contribution        =     -44.73584860 Ry
     smearing contrib. (-TS)   =      -0.00003212 Ry

     convergence has been achieved in  15 iterations

     Forces acting on atoms (cartesian axes, Ry/au):

     atom    1 type  1   force =     0.00000000    0.00000000    0.00000000

     Total force =     0.000000     Total SCF correction =     0.000000


     Computing stress (Cartesian axis) and pressure

          total   stress  (Ry/bohr**3)                   (kbar)     P=  115.23
   0.00078332   0.00000000   0.00000000        115.23      0.00      0.00
   0.00000000   0.00078332  -0.00000000          0.00    115.23     -0.00
   0.00000000  -0.00000000   0.00078332          0.00     -0.00    115.23


     number of scf cycles    =   3
     number of bfgs steps    =   2

     enthalpy old            =     -95.0063194317 Ry
     enthalpy new            =     -95.0095350678 Ry

     CASE: enthalpy_new < enthalpy_old

     new trust radius        =       0.0682501156 bohr
     new conv_thr            =            1.0E-10 Ry

     new unit-cell volume =    155.61929 a.u.^3 (    23.06040 Ang^3 )
     density =      1.65547 g/cm^3

CELL_PARAMETERS (alat=  8.00000000)
  -0.533647510  -0.000000000   0.533647510
   0.000000000   0.533647510   0.533647510
  -0.533647510   0.533647510  -0.000000000

ATOMIC_POSITIONS (crystal)
Na       0.000000000   0.000000000   0.000000000



     Writing output data file na.fcc.save
     NEW-OLD atomic charge density approx. for the potential
     extrapolated charge    9.72796, renormalised to    9.00000

     total cpu time spent up to now is      100.5 secs

     per-process dynamical memory:    31.6 Mb

     Self-consistent Calculation

     iteration #  1     ecut=    40.00 Ry     beta=0.70
     Davidson diagonalization with overlap
     ethr =  1.00E-06,  avg # of iterations =  4.5

     total cpu time spent up to now is      105.2 secs

     total energy              =     -94.62544606 Ry
     Harris-Foulkes estimate   =     -90.13027818 Ry
     estimated scf accuracy    <       0.25859003 Ry

     iteration #  2     ecut=    40.00 Ry     beta=0.70
     Davidson diagonalization with overlap
     ethr =  2.87E-03,  avg # of iterations =  3.0

     total cpu time spent up to now is      108.5 secs

     total energy              =     -95.10716003 Ry
     Harris-Foulkes estimate   =     -95.29514956 Ry
     estimated scf accuracy    <       0.42575323 Ry

     iteration #  3     ecut=    40.00 Ry     beta=0.70
     Davidson diagonalization with overlap
     ethr =  2.87E-03,  avg # of iterations =  1.0

     total cpu time spent up to now is      110.8 secs

     total energy              =     -95.09607146 Ry
     Harris-Foulkes estimate   =     -95.13077998 Ry
     estimated scf accuracy    <       0.09647532 Ry

     iteration #  4     ecut=    40.00 Ry     beta=0.70
     Davidson diagonalization with overlap
     ethr =  1.07E-03,  avg # of iterations =  1.0

     total cpu time spent up to now is      113.0 secs

     total energy              =     -95.09441961 Ry
     Harris-Foulkes estimate   =     -95.10039811 Ry
     estimated scf accuracy    <       0.03051284 Ry

     iteration #  5     ecut=    40.00 Ry     beta=0.70
     Davidson diagonalization with overlap
     ethr =  3.39E-04,  avg # of iterations =  1.0

     total cpu time spent up to now is      115.2 secs

     total energy              =     -95.08905947 Ry
     Harris-Foulkes estimate   =     -95.09488105 Ry
     estimated scf accuracy    <       0.01873119 Ry

     iteration #  6     ecut=    40.00 Ry     beta=0.70
     Davidson diagonalization with overlap
     ethr =  2.08E-04,  avg # of iterations =  1.0

     total cpu time spent up to now is      117.4 secs

     total energy              =     -95.08439646 Ry
     Harris-Foulkes estimate   =     -95.08954685 Ry
     estimated scf accuracy    <       0.00774786 Ry

     iteration #  7     ecut=    40.00 Ry     beta=0.70
     Davidson diagonalization with overlap
     ethr =  8.61E-05,  avg # of iterations =  2.0

     total cpu time spent up to now is      120.0 secs

     total energy              =     -95.08593775 Ry
     Harris-Foulkes estimate   =     -95.08594399 Ry
     estimated scf accuracy    <       0.00002038 Ry

     iteration #  8     ecut=    40.00 Ry     beta=0.70
     Davidson diagonalization with overlap
     ethr =  2.26E-07,  avg # of iterations =  2.6

     total cpu time spent up to now is      123.1 secs

     total energy              =     -95.08593598 Ry
     Harris-Foulkes estimate   =     -95.08594818 Ry
     estimated scf accuracy    <       0.00003916 Ry

     iteration #  9     ecut=    40.00 Ry     beta=0.70
     Davidson diagonalization with overlap
     ethr =  2.26E-07,  avg # of iterations =  2.0

     total cpu time spent up to now is      125.8 secs

     total energy              =     -95.08593119 Ry
     Harris-Foulkes estimate   =     -95.08594799 Ry
     estimated scf accuracy    <       0.00002656 Ry

     iteration # 10     ecut=    40.00 Ry     beta=0.70
     Davidson diagonalization with overlap
     ethr =  2.26E-07,  avg # of iterations =  2.0

     total cpu time spent up to now is      128.5 secs

     total energy              =     -95.08593780 Ry
     Harris-Foulkes estimate   =     -95.08594125 Ry
     estimated scf accuracy    <       0.00000702 Ry

     iteration # 11     ecut=    40.00 Ry     beta=0.70
     Davidson diagonalization with overlap
     ethr =  7.80E-08,  avg # of iterations =  1.0

     total cpu time spent up to now is      130.7 secs

     total energy              =     -95.08593763 Ry
     Harris-Foulkes estimate   =     -95.08593839 Ry
     estimated scf accuracy    <       0.00000115 Ry

     iteration # 12     ecut=    40.00 Ry     beta=0.70
     Davidson diagonalization with overlap
     ethr =  1.28E-08,  avg # of iterations =  2.0

     total cpu time spent up to now is      133.4 secs

     total energy              =     -95.08593793 Ry
     Harris-Foulkes estimate   =     -95.08593794 Ry
     estimated scf accuracy    <       0.00000003 Ry

     iteration # 13     ecut=    40.00 Ry     beta=0.70
     Davidson diagonalization with overlap
     ethr =  3.34E-10,  avg # of iterations =  1.0

     total cpu time spent up to now is      135.6 secs

     total energy              =     -95.08593792 Ry
     Harris-Foulkes estimate   =     -95.08593793 Ry
     estimated scf accuracy    <       0.00000002 Ry

     iteration # 14     ecut=    40.00 Ry     beta=0.70
     Davidson diagonalization with overlap
     ethr =  2.60E-10,  avg # of iterations =  1.4

     total cpu time spent up to now is      137.9 secs

     total energy              =     -95.08593792 Ry
     Harris-Foulkes estimate   =     -95.08593793 Ry
     estimated scf accuracy    <          8.1E-10 Ry

     iteration # 15     ecut=    40.00 Ry     beta=0.70
     Davidson diagonalization with overlap
     ethr =  9.00E-12,  avg # of iterations =  2.0

     total cpu time spent up to now is      140.6 secs

     End of self-consistent calculation

     Number of k-points >= 100: set verbosity='high' to print the bands.

     the Fermi energy is     4.1859 ev

!    total energy              =     -95.08593792 Ry
     Harris-Foulkes estimate   =     -95.08593792 Ry
     estimated scf accuracy    <          1.3E-11 Ry

     The total energy is the sum of the following terms:

     one-electron contribution =     -77.05526595 Ry
     hartree contribution      =      39.80421196 Ry
     xc contribution           =     -14.34010219 Ry
     ewald contribution        =     -43.49474853 Ry
     smearing contrib. (-TS)   =      -0.00003322 Ry

     convergence has been achieved in  15 iterations

     Forces acting on atoms (cartesian axes, Ry/au):

     atom    1 type  1   force =     0.00000000    0.00000000    0.00000000

     Total force =     0.000000     Total SCF correction =     0.000000


     Computing stress (Cartesian axis) and pressure

          total   stress  (Ry/bohr**3)                   (kbar)     P=   81.76
   0.00055583  -0.00000000   0.00000000         81.76     -0.00      0.00
   0.00000000   0.00055583   0.00000000          0.00     81.76      0.00
   0.00000000   0.00000000   0.00055583          0.00      0.00     81.76


     number of scf cycles    =   4
     number of bfgs steps    =   3

     enthalpy old            =     -95.0095350678 Ry
     enthalpy new            =     -95.0118864239 Ry

     CASE: enthalpy_new < enthalpy_old

     new trust radius        =       0.0262765211 bohr
     new conv_thr            =            1.0E-10 Ry

     new unit-cell volume =    160.58815 a.u.^3 (    23.79671 Ang^3 )
     density =      1.60425 g/cm^3

CELL_PARAMETERS (alat=  8.00000000)
  -0.539267825  -0.000000000   0.539267825
   0.000000000   0.539267825   0.539267825
  -0.539267825   0.539267825  -0.000000000

ATOMIC_POSITIONS (crystal)
Na       0.000000000   0.000000000   0.000000000



     Writing output data file na.fcc.save
     NEW-OLD atomic charge density approx. for the potential
     extrapolated charge    9.27828, renormalised to    9.00000

     total cpu time spent up to now is      142.4 secs

     per-process dynamical memory:    31.6 Mb

     Self-consistent Calculation

     iteration #  1     ecut=    40.00 Ry     beta=0.70
     Davidson diagonalization with overlap
     ethr =  1.00E-06,  avg # of iterations =  3.5

     total cpu time spent up to now is      146.6 secs

     total energy              =     -95.03388525 Ry
     Harris-Foulkes estimate   =     -93.17643228 Ry
     estimated scf accuracy    <       0.03051406 Ry

     iteration #  2     ecut=    40.00 Ry     beta=0.70
     Davidson diagonalization with overlap
     ethr =  3.39E-04,  avg # of iterations =  2.9

     total cpu time spent up to now is      150.1 secs

     total energy              =     -95.09011472 Ry
     Harris-Foulkes estimate   =     -95.11261697 Ry
     estimated scf accuracy    <       0.05129008 Ry

     iteration #  3     ecut=    40.00 Ry     beta=0.70
     Davidson diagonalization with overlap
     ethr =  3.39E-04,  avg # of iterations =  1.3

     total cpu time spent up to now is      152.4 secs

     total energy              =     -95.08979610 Ry
     Harris-Foulkes estimate   =     -95.09328995 Ry
     estimated scf accuracy    <       0.01056836 Ry

     iteration #  4     ecut=    40.00 Ry     beta=0.70
     Davidson diagonalization with overlap
     ethr =  1.17E-04,  avg # of iterations =  1.0

     total cpu time spent up to now is      154.6 secs

     total energy              =     -95.08935591 Ry
     Harris-Foulkes estimate   =     -95.09022772 Ry
     estimated scf accuracy    <       0.00366150 Ry

     iteration #  5     ecut=    40.00 Ry     beta=0.70
     Davidson diagonalization with overlap
     ethr =  4.07E-05,  avg # of iterations =  1.0

     total cpu time spent up to now is      156.8 secs

     total energy              =     -95.08881545 Ry
     Harris-Foulkes estimate   =     -95.08942833 Ry
     estimated scf accuracy    <       0.00191502 Ry

     iteration #  6     ecut=    40.00 Ry     beta=0.70
     Davidson diagonalization with overlap
     ethr =  2.13E-05,  avg # of iterations =  1.0

     total cpu time spent up to now is      159.0 secs

     total energy              =     -95.08840879 Ry
     Harris-Foulkes estimate   =     -95.08886946 Ry
     estimated scf accuracy    <       0.00074843 Ry

     iteration #  7     ecut=    40.00 Ry     beta=0.70
     Davidson diagonalization with overlap
     ethr =  8.32E-06,  avg # of iterations =  2.1

     total cpu time spent up to now is      161.6 secs

     total energy              =     -95.08853155 Ry
     Harris-Foulkes estimate   =     -95.08853150 Ry
     estimated scf accuracy    <       0.00001272 Ry

     iteration #  8     ecut=    40.00 Ry     beta=0.70
     Davidson diagonalization with overlap
     ethr =  1.41E-07,  avg # of iterations =  1.1

     total cpu time spent up to now is      163.8 secs

     total energy              =     -95.08852472 Ry
     Harris-Foulkes estimate   =     -95.08853176 Ry
     estimated scf accuracy    <       0.00001312 Ry

     iteration #  9     ecut=    40.00 Ry     beta=0.70
     Davidson diagonalization with overlap
     ethr =  1.41E-07,  avg # of iterations =  1.7

     total cpu time spent up to now is      166.2 secs

     total energy              =     -95.08852598 Ry
     Harris-Foulkes estimate   =     -95.08852621 Ry
     estimated scf accuracy    <       0.00000098 Ry

     iteration # 10     ecut=    40.00 Ry     beta=0.70
     Davidson diagonalization with overlap
     ethr =  1.09E-08,  avg # of iterations =  1.0

     total cpu time spent up to now is      168.4 secs

     total energy              =     -95.08852571 Ry
     Harris-Foulkes estimate   =     -95.08852602 Ry
     estimated scf accuracy    <       0.00000051 Ry

     iteration # 11     ecut=    40.00 Ry     beta=0.70
     Davidson diagonalization with overlap
     ethr =  5.62E-09,  avg # of iterations =  2.0

     total cpu time spent up to now is      171.0 secs

     total energy              =     -95.08852578 Ry
     Harris-Foulkes estimate   =     -95.08852579 Ry
     estimated scf accuracy    <       0.00000001 Ry

     iteration # 12     ecut=    40.00 Ry     beta=0.70
     Davidson diagonalization with overlap
     ethr =  1.45E-10,  avg # of iterations =  1.5

     total cpu time spent up to now is      173.3 secs

     total energy              =     -95.08852578 Ry
     Harris-Foulkes estimate   =     -95.08852578 Ry
     estimated scf accuracy    <          3.1E-09 Ry

     iteration # 13     ecut=    40.00 Ry     beta=0.70
     Davidson diagonalization with overlap
     ethr =  3.43E-11,  avg # of iterations =  1.7

     total cpu time spent up to now is      175.7 secs

     total energy              =     -95.08852578 Ry
     Harris-Foulkes estimate   =     -95.08852578 Ry
     estimated scf accuracy    <          3.7E-10 Ry

     iteration # 14     ecut=    40.00 Ry     beta=0.70
     Davidson diagonalization with overlap
     ethr =  4.15E-12,  avg # of iterations =  1.0

     total cpu time spent up to now is      177.9 secs

     End of self-consistent calculation

     Number of k-points >= 100: set verbosity='high' to print the bands.

     the Fermi energy is     3.9700 ev

!    total energy              =     -95.08852578 Ry
     Harris-Foulkes estimate   =     -95.08852578 Ry
     estimated scf accuracy    <          8.5E-11 Ry

     The total energy is the sum of the following terms:

     one-electron contribution =     -77.83904214 Ry
     hartree contribution      =      40.12666114 Ry
     xc contribution           =     -14.33467006 Ry
     ewald contribution        =     -43.04144097 Ry
     smearing contrib. (-TS)   =      -0.00003375 Ry

     convergence has been achieved in  14 iterations

     Forces acting on atoms (cartesian axes, Ry/au):

     atom    1 type  1   force =     0.00000000    0.00000000    0.00000000

     Total force =     0.000000     Total SCF correction =     0.000000


     Computing stress (Cartesian axis) and pressure

          total   stress  (Ry/bohr**3)                   (kbar)     P=   71.71
   0.00048748  -0.00000000  -0.00000000         71.71     -0.00     -0.00
  -0.00000000   0.00048748   0.00000000         -0.00     71.71      0.00
  -0.00000000   0.00000000   0.00048748         -0.00      0.00     71.71


     number of scf cycles    =   5
     number of bfgs steps    =   4

     enthalpy old            =     -95.0118864239 Ry
     enthalpy new            =     -95.0121098487 Ry

     CASE: enthalpy_new < enthalpy_old

     new trust radius        =       0.0046074586 bohr
     new conv_thr            =            1.0E-10 Ry

     new unit-cell volume =    161.46555 a.u.^3 (    23.92673 Ang^3 )
     density =      1.59553 g/cm^3

CELL_PARAMETERS (alat=  8.00000000)
  -0.540248171  -0.000000000   0.540248171
   0.000000000   0.540248171   0.540248171
  -0.540248171   0.540248171  -0.000000000

ATOMIC_POSITIONS (crystal)
Na       0.000000000   0.000000000   0.000000000



     Writing output data file na.fcc.save
     NEW-OLD atomic charge density approx. for the potential
     extrapolated charge    9.04887, renormalised to    9.00000

     total cpu time spent up to now is      179.8 secs

     per-process dynamical memory:    31.6 Mb

     Self-consistent Calculation

     iteration #  1     ecut=    40.00 Ry     beta=0.70
     Davidson diagonalization with overlap
     ethr =  1.00E-06,  avg # of iterations =  2.3

     total cpu time spent up to now is      183.0 secs

     total energy              =     -95.08741005 Ry
     Harris-Foulkes estimate   =     -94.75343738 Ry
     estimated scf accuracy    <       0.00086208 Ry

     iteration #  2     ecut=    40.00 Ry     beta=0.70
     Davidson diagonalization with overlap
     ethr =  9.58E-06,  avg # of iterations =  2.9

     total cpu time spent up to now is      186.4 secs

     total energy              =     -95.08897988 Ry
     Harris-Foulkes estimate   =     -95.08961565 Ry
     estimated scf accuracy    <       0.00144934 Ry

     iteration #  3     ecut=    40.00 Ry     beta=0.70
     Davidson diagonalization with overlap
     ethr =  9.58E-06,  avg # of iterations =  1.5

     total cpu time spent up to now is      188.8 secs

     total energy              =     -95.08898663 Ry
     Harris-Foulkes estimate   =     -95.08907465 Ry
     estimated scf accuracy    <       0.00028322 Ry

     iteration #  4     ecut=    40.00 Ry     beta=0.70
     Davidson diagonalization with overlap
     ethr =  3.15E-06,  avg # of iterations =  1.0

     total cpu time spent up to now is      191.0 secs

     total energy              =     -95.08896954 Ry
     Harris-Foulkes estimate   =     -95.08899718 Ry
     estimated scf accuracy    <       0.00010568 Ry

     iteration #  5     ecut=    40.00 Ry     beta=0.70
     Davidson diagonalization with overlap
     ethr =  1.17E-06,  avg # of iterations =  1.0

     total cpu time spent up to now is      193.2 secs

     total energy              =     -95.08895782 Ry
     Harris-Foulkes estimate   =     -95.08897194 Ry
     estimated scf accuracy    <       0.00005037 Ry

     iteration #  6     ecut=    40.00 Ry     beta=0.70
     Davidson diagonalization with overlap
     ethr =  5.60E-07,  avg # of iterations =  1.0

     total cpu time spent up to now is      195.4 secs

     total energy              =     -95.08894489 Ry
     Harris-Foulkes estimate   =     -95.08895892 Ry
     estimated scf accuracy    <       0.00002281 Ry

     iteration #  7     ecut=    40.00 Ry     beta=0.70
     Davidson diagonalization with overlap
     ethr =  2.53E-07,  avg # of iterations =  2.0

     total cpu time spent up to now is      198.0 secs

     total energy              =     -95.08894847 Ry
     Harris-Foulkes estimate   =     -95.08894859 Ry
     estimated scf accuracy    <       0.00000037 Ry

     iteration #  8     ecut=    40.00 Ry     beta=0.70
     Davidson diagonalization with overlap
     ethr =  4.09E-09,  avg # of iterations =  1.0

     total cpu time spent up to now is      200.2 secs

     total energy              =     -95.08894841 Ry
     Harris-Foulkes estimate   =     -95.08894849 Ry
     estimated scf accuracy    <       0.00000014 Ry

     iteration #  9     ecut=    40.00 Ry     beta=0.70
     Davidson diagonalization with overlap
     ethr =  1.52E-09,  avg # of iterations =  2.0

     total cpu time spent up to now is      202.9 secs

     total energy              =     -95.08894843 Ry
     Harris-Foulkes estimate   =     -95.08894843 Ry
     estimated scf accuracy    <          1.6E-09 Ry

     iteration # 10     ecut=    40.00 Ry     beta=0.70
     Davidson diagonalization with overlap
     ethr =  1.80E-11,  avg # of iterations =  1.2

     total cpu time spent up to now is      205.1 secs

     total energy              =     -95.08894843 Ry
     Harris-Foulkes estimate   =     -95.08894843 Ry
     estimated scf accuracy    <          3.5E-09 Ry

     iteration # 11     ecut=    40.00 Ry     beta=0.70
     Davidson diagonalization with overlap
     ethr =  1.80E-11,  avg # of iterations =  2.0

     total cpu time spent up to now is      207.8 secs

     total energy              =     -95.08894843 Ry
     Harris-Foulkes estimate   =     -95.08894843 Ry
     estimated scf accuracy    <          3.0E-10 Ry

     iteration # 12     ecut=    40.00 Ry     beta=0.70
     Davidson diagonalization with overlap
     ethr =  3.33E-12,  avg # of iterations =  1.0

     total cpu time spent up to now is      210.0 secs

     total energy              =     -95.08894843 Ry
     Harris-Foulkes estimate   =     -95.08894843 Ry
     estimated scf accuracy    <          1.2E-10 Ry

     iteration # 13     ecut=    40.00 Ry     beta=0.70
     Davidson diagonalization with overlap
     ethr =  1.35E-12,  avg # of iterations =  2.0

     total cpu time spent up to now is      212.7 secs

     End of self-consistent calculation

     Number of k-points >= 100: set verbosity='high' to print the bands.

     the Fermi energy is     3.9334 ev

!    total energy              =     -95.08894843 Ry
     Harris-Foulkes estimate   =     -95.08894843 Ry
     estimated scf accuracy    <          6.4E-12 Ry

     The total energy is the sum of the following terms:

     one-electron contribution =     -77.97415717 Ry
     hartree contribution      =      40.18231525 Ry
     xc contribution           =     -14.33373560 Ry
     ewald contribution        =     -42.96333707 Ry
     smearing contrib. (-TS)   =      -0.00003385 Ry

     convergence has been achieved in  13 iterations

     Forces acting on atoms (cartesian axes, Ry/au):

     atom    1 type  1   force =     0.00000000    0.00000000    0.00000000

     Total force =     0.000000     Total SCF correction =     0.000000


     Computing stress (Cartesian axis) and pressure

          total   stress  (Ry/bohr**3)                   (kbar)     P=   70.02
   0.00047596  -0.00000000  -0.00000000         70.02     -0.00     -0.00
  -0.00000000   0.00047596   0.00000000         -0.00     70.02      0.00
  -0.00000000   0.00000000   0.00047596         -0.00      0.00     70.02


     bfgs converged in   6 scf cycles and   5 bfgs steps
     (criteria: energy <  1.0E-04 Ry, force <  1.0E-03Ry/Bohr, cell <  5.0E-01kbar)

     End of BFGS Geometry Optimization

     Final enthalpy =     -95.0121149821 Ry
Begin final coordinates
     new unit-cell volume =    161.46555 a.u.^3 (    23.92673 Ang^3 )
     density =      1.59553 g/cm^3

CELL_PARAMETERS (alat=  8.00000000)
  -0.540248171  -0.000000000   0.540248171
   0.000000000   0.540248171   0.540248171
  -0.540248171   0.540248171  -0.000000000

ATOMIC_POSITIONS (crystal)
Na       0.000000000   0.000000000   0.000000000
End final coordinates



     A final scf calculation at the relaxed structure.
     The G-vectors are recalculated for the final unit cell
     Results may differ from those at the preceding step.

     Parallelization info
     --------------------
     sticks:   dense  smooth     PW     G-vecs:    dense   smooth      PW
     Min         205     105     37                 3896     1394     284
     Max         206     106     38                 3899     1395     285
     Sum         823     421    151                15593     5577    1139



     bravais-lattice index     =            2
     lattice parameter (alat)  =       8.0000  a.u.
     unit-cell volume          =     161.4655 (a.u.)^3
     number of atoms/cell      =            1
     number of atomic types    =            1
     number of electrons       =         9.00
     number of Kohn-Sham states=            9
     kinetic-energy cutoff     =      40.0000  Ry
     charge density cutoff     =     320.0000  Ry
     convergence threshold     =      1.0E-10
     mixing beta               =       0.7000
     number of iterations used =            8  plain     mixing
     Exchange-correlation      = SLA  PW   PBE  PBE ( 1  4  3  4 0 0)

     celldm(1)=   8.000000  celldm(2)=   0.000000  celldm(3)=   0.000000
     celldm(4)=   0.000000  celldm(5)=   0.000000  celldm(6)=   0.000000

     crystal axes: (cart. coord. in units of alat)
               a(1) = (  -0.540248  -0.000000   0.540248 )  
               a(2) = (   0.000000   0.540248   0.540248 )  
               a(3) = (  -0.540248   0.540248  -0.000000 )  

     reciprocal axes: (cart. coord. in units 2 pi/alat)
               b(1) = ( -0.925501 -0.925501  0.925501 )  
               b(2) = (  0.925501  0.925501  0.925501 )  
               b(3) = ( -0.925501  0.925501 -0.925501 )  


     PseudoPot. # 1 for Na read from file:
     /home/s1333534/quantum_espresso/qe-6.1/pseudo/Na_pbe_v1.uspp.F.UPF
     MD5 check sum: 76a99c7e9422403d3e93cbc85ab7bccb
     Pseudo is Ultrasoft, Zval =  9.0
     Generated by new atomic code, or converted to UPF format
     Using radial grid of  819 points,  5 beta functions with: 
                l(1) =   0
                l(2) =   0
                l(3) =   1
                l(4) =   1
                l(5) =   2
     Q(r) pseudized with  8 coefficients,  rinner =    1.250   1.250   1.250
                                                       1.250   1.250

     atomic species   valence    mass     pseudopotential
        Na             9.00    22.99000     Na( 1.00)

     48 Sym. Ops., with inversion, found



   Cartesian axes

     site n.     atom                  positions (alat units)
         1           Na  tau(   1) = (   0.0000000   0.0000000   0.0000000  )

     number of k points=   770  Marzari-Vanderbilt smearing, width (Ry)=  0.0200

     Number of k-points >= 100: set verbosity='high' to print them.

     Dense  grid:    15593 G-vectors     FFT dimensions: (  36,  36,  36)

     Smooth grid:     5577 G-vectors     FFT dimensions: (  25,  25,  25)

     Estimated max dynamical RAM per process >      20.82MB

     Estimated total allocated dynamical RAM >      83.28MB

     Initial potential from superposition of free atoms

     starting charge    8.99371, renormalised to    9.00000
     Starting wfc are    5 randomized atomic wfcs +    4 random wfc

     Writing output data file na.fcc.save

     total cpu time spent up to now is      215.7 secs

     per-process dynamical memory:    35.4 Mb

     Self-consistent Calculation

     iteration #  1     ecut=    40.00 Ry     beta=0.70
     Davidson diagonalization with overlap
     ethr =  1.00E-06,  avg # of iterations = 10.4

     total cpu time spent up to now is      224.4 secs

     total energy              =     -95.09020469 Ry
     Harris-Foulkes estimate   =     -95.09073676 Ry
     estimated scf accuracy    <       0.00144044 Ry

     iteration #  2     ecut=    40.00 Ry     beta=0.70
     Davidson diagonalization with overlap
     ethr =  1.60E-05,  avg # of iterations =  2.0

     total cpu time spent up to now is      227.4 secs

     total energy              =     -95.09039657 Ry
     Harris-Foulkes estimate   =     -95.09044185 Ry
     estimated scf accuracy    <       0.00016606 Ry

     iteration #  3     ecut=    40.00 Ry     beta=0.70
     Davidson diagonalization with overlap
     ethr =  1.85E-06,  avg # of iterations =  2.0

     total cpu time spent up to now is      230.4 secs

     total energy              =     -95.09041696 Ry
     Harris-Foulkes estimate   =     -95.09041840 Ry
     estimated scf accuracy    <       0.00000971 Ry

     iteration #  4     ecut=    40.00 Ry     beta=0.70
     Davidson diagonalization with overlap
     ethr =  1.08E-07,  avg # of iterations =  1.0

     total cpu time spent up to now is      232.9 secs

     total energy              =     -95.09041780 Ry
     Harris-Foulkes estimate   =     -95.09041775 Ry
     estimated scf accuracy    <       0.00000001 Ry

     iteration #  5     ecut=    40.00 Ry     beta=0.70
     Davidson diagonalization with overlap
     ethr =  1.35E-10,  avg # of iterations =  3.0

     total cpu time spent up to now is      236.5 secs

     total energy              =     -95.09041784 Ry
     Harris-Foulkes estimate   =     -95.09041784 Ry
     estimated scf accuracy    <          1.6E-09 Ry

     iteration #  6     ecut=    40.00 Ry     beta=0.70
     Davidson diagonalization with overlap
     ethr =  1.76E-11,  avg # of iterations =  1.6

     total cpu time spent up to now is      239.2 secs

     End of self-consistent calculation

     Number of k-points >= 100: set verbosity='high' to print the bands.

     the Fermi energy is     3.9345 ev

!    total energy              =     -95.09041784 Ry
     Harris-Foulkes estimate   =     -95.09041784 Ry
     estimated scf accuracy    <          5.4E-11 Ry

     The total energy is the sum of the following terms:

     one-electron contribution =     -77.97491822 Ry
     hartree contribution      =      40.18155513 Ry
     xc contribution           =     -14.33368382 Ry
     ewald contribution        =     -42.96333707 Ry
     smearing contrib. (-TS)   =      -0.00003386 Ry

     convergence has been achieved in   6 iterations

     Forces acting on atoms (cartesian axes, Ry/au):

     atom    1 type  1   force =     0.00000000    0.00000000    0.00000000

     Total force =     0.000000     Total SCF correction =     0.000000


     Computing stress (Cartesian axis) and pressure

          total   stress  (Ry/bohr**3)                   (kbar)     P=   72.07
   0.00048994  -0.00000000  -0.00000000         72.07     -0.00     -0.00
  -0.00000000   0.00048994   0.00000000         -0.00     72.07      0.00
  -0.00000000   0.00000000   0.00048994         -0.00      0.00     72.07


     Writing output data file na.fcc.save

     init_run     :      2.35s CPU      2.49s WALL (       2 calls)
     electrons    :    216.64s CPU    225.78s WALL (       7 calls)
     update_pot   :      0.60s CPU      0.61s WALL (       5 calls)
     forces       :      1.14s CPU      1.16s WALL (       7 calls)
     stress       :      5.96s CPU      6.01s WALL (       7 calls)

     Called by init_run:
     wfcinit      :      1.76s CPU      1.89s WALL (       2 calls)
     potinit      :      0.06s CPU      0.06s WALL (       2 calls)

     Called by electrons:
     c_bands      :    179.89s CPU    187.76s WALL (      83 calls)
     sum_band     :     35.41s CPU     36.63s WALL (      83 calls)
     v_of_rho     :      0.69s CPU      0.70s WALL (      89 calls)
     newd         :      0.66s CPU      0.67s WALL (      89 calls)
     mix_rho      :      0.05s CPU      0.05s WALL (      83 calls)

     Called by c_bands:
     init_us_2    :      9.17s CPU      8.57s WALL (  140140 calls)
     cegterg      :    170.83s CPU    178.87s WALL (   63910 calls)

     Called by sum_band:
     sum_band:bec :      0.16s CPU      0.19s WALL (   63910 calls)
     addusdens    :      0.80s CPU      0.81s WALL (      83 calls)

     Called by *egterg:
     h_psi        :    134.59s CPU    140.64s WALL (  187529 calls)
     s_psi        :      2.12s CPU      1.75s WALL (  187529 calls)
     g_psi        :      1.05s CPU      0.99s WALL (  122079 calls)
     cdiaghg      :     22.73s CPU     23.48s WALL (  181369 calls)

     Called by h_psi:
     h_psi:pot    :    134.13s CPU    139.90s WALL (  187529 calls)
     h_psi:calbec :      3.44s CPU      3.02s WALL (  187529 calls)
     vloc_psi     :    128.82s CPU    134.48s WALL (  187529 calls)
     add_vuspsi   :      1.60s CPU      1.96s WALL (  187529 calls)

     General routines
     calbec       :      4.51s CPU      4.36s WALL (  278389 calls)
     fft          :      0.31s CPU      0.31s WALL (    1461 calls)
     ffts         :      0.01s CPU      0.01s WALL (     172 calls)
     fftw         :    144.61s CPU    140.08s WALL ( 3369082 calls)
     interpolate  :      0.05s CPU      0.06s WALL (     172 calls)
     davcio       :      0.01s CPU      0.02s WALL (    1540 calls)

     Parallel routines
     fft_scatter  :     22.26s CPU     27.45s WALL ( 3370715 calls)

     PWSCF        :  3m51.48s CPU     4m 1.08s WALL


   This run was terminated on:  11:26:27  20Dec2017            

=------------------------------------------------------------------------------=
   JOB DONE.
=------------------------------------------------------------------------------=
