
     Program PWSCF v.6.1 (svn rev. 13369) starts on 26Jan2018 at 18:37:17 

     This program is part of the open-source Quantum ESPRESSO suite
     for quantum simulation of materials; please cite
         "P. Giannozzi et al., J. Phys.:Condens. Matter 21 395502 (2009);
          URL http://www.quantum-espresso.org", 
     in publications or presentations arising from this work. More details at
     http://www.quantum-espresso.org/quote

     Parallel version (MPI), running on     4 processors
     R & G space division:  proc/nbgrp/npool/nimage =       4
     Waiting for input...
     Reading input from standard input

     Current dimensions of program PWSCF are:
     Max number of different atomic species (ntypx) = 10
     Max number of k-points (npk) =  40000
     Max angular momentum in pseudopotentials (lmaxx) =  3

     Subspace diagonalization in iterative solution of the eigenvalue problem:
     a serial algorithm will be used


     Parallelization info
     --------------------
     sticks:   dense  smooth     PW     G-vecs:    dense   smooth      PW
     Min         175      90     30                 3084     1095     234
     Max         176      91     31                 3086     1096     238
     Sum         703     361    121                12339     4381     941



     bravais-lattice index     =            2
     lattice parameter (alat)  =       8.0000  a.u.
     unit-cell volume          =     128.0000 (a.u.)^3
     number of atoms/cell      =            1
     number of atomic types    =            1
     number of electrons       =         9.00
     number of Kohn-Sham states=            9
     kinetic-energy cutoff     =      40.0000  Ry
     charge density cutoff     =     320.0000  Ry
     convergence threshold     =      1.0E-10
     mixing beta               =       0.7000
     number of iterations used =            8  plain     mixing
     Exchange-correlation      = SLA  PW   PBE  PBE ( 1  4  3  4 0 0)
     nstep                     =           50


     celldm(1)=   8.000000  celldm(2)=   0.000000  celldm(3)=   0.000000
     celldm(4)=   0.000000  celldm(5)=   0.000000  celldm(6)=   0.000000

     crystal axes: (cart. coord. in units of alat)
               a(1) = (  -0.500000   0.000000   0.500000 )  
               a(2) = (   0.000000   0.500000   0.500000 )  
               a(3) = (  -0.500000   0.500000   0.000000 )  

     reciprocal axes: (cart. coord. in units 2 pi/alat)
               b(1) = ( -1.000000 -1.000000  1.000000 )  
               b(2) = (  1.000000  1.000000  1.000000 )  
               b(3) = ( -1.000000  1.000000 -1.000000 )  


     PseudoPot. # 1 for Na read from file:
     /home/s1333534/quantum_espresso/qe-6.1/pseudo/Na_pbe_v1.uspp.F.UPF
     MD5 check sum: 76a99c7e9422403d3e93cbc85ab7bccb
     Pseudo is Ultrasoft, Zval =  9.0
     Generated by new atomic code, or converted to UPF format
     Using radial grid of  819 points,  5 beta functions with: 
                l(1) =   0
                l(2) =   0
                l(3) =   1
                l(4) =   1
                l(5) =   2
     Q(r) pseudized with  8 coefficients,  rinner =    1.250   1.250   1.250
                                                       1.250   1.250

     atomic species   valence    mass     pseudopotential
        Na             9.00    22.99000     Na( 1.00)

     48 Sym. Ops., with inversion, found



   Cartesian axes

     site n.     atom                  positions (alat units)
         1           Na  tau(   1) = (   0.0000000   0.0000000   0.0000000  )

     number of k points=   280  Marzari-Vanderbilt smearing, width (Ry)=  0.0200

     Number of k-points >= 100: set verbosity='high' to print them.

     Dense  grid:    12339 G-vectors     FFT dimensions: (  36,  36,  36)

     Smooth grid:     4381 G-vectors     FFT dimensions: (  24,  24,  24)

     Estimated max dynamical RAM per process >       7.49MB

     Estimated total allocated dynamical RAM >      29.95MB

     Initial potential from superposition of free atoms

     starting charge    8.99371, renormalised to    9.00000
     Starting wfc are    5 randomized atomic wfcs +    4 random wfc

     total cpu time spent up to now is        0.9 secs

     per-process dynamical memory:    14.3 Mb

     Self-consistent Calculation

     iteration #  1     ecut=    40.00 Ry     beta=0.70
     Davidson diagonalization with overlap
     ethr =  1.00E-02,  avg # of iterations =  5.1

     Threshold (ethr) on eigenvalues was too large:
     Diagonalizing with lowered threshold

     Davidson diagonalization with overlap
     ethr =  2.47E-05,  avg # of iterations =  2.5

     total cpu time spent up to now is        3.6 secs

     total energy              =     -95.06261168 Ry
     Harris-Foulkes estimate   =     -95.06343861 Ry
     estimated scf accuracy    <       0.00221936 Ry

     iteration #  2     ecut=    40.00 Ry     beta=0.70
     Davidson diagonalization with overlap
     ethr =  2.47E-05,  avg # of iterations =  2.0

     total cpu time spent up to now is        4.5 secs

     total energy              =     -95.06290785 Ry
     Harris-Foulkes estimate   =     -95.06297424 Ry
     estimated scf accuracy    <       0.00025025 Ry

     iteration #  3     ecut=    40.00 Ry     beta=0.70
     Davidson diagonalization with overlap
     ethr =  2.78E-06,  avg # of iterations =  2.2

     total cpu time spent up to now is        5.5 secs

     total energy              =     -95.06294062 Ry
     Harris-Foulkes estimate   =     -95.06294213 Ry
     estimated scf accuracy    <       0.00001445 Ry

     iteration #  4     ecut=    40.00 Ry     beta=0.70
     Davidson diagonalization with overlap
     ethr =  1.61E-07,  avg # of iterations =  1.0

     total cpu time spent up to now is        6.4 secs

     total energy              =     -95.06294192 Ry
     Harris-Foulkes estimate   =     -95.06294185 Ry
     estimated scf accuracy    <       0.00000002 Ry

     iteration #  5     ecut=    40.00 Ry     beta=0.70
     Davidson diagonalization with overlap
     ethr =  2.20E-10,  avg # of iterations =  3.0

     total cpu time spent up to now is        7.6 secs

     total energy              =     -95.06294197 Ry
     Harris-Foulkes estimate   =     -95.06294197 Ry
     estimated scf accuracy    <          2.7E-09 Ry

     iteration #  6     ecut=    40.00 Ry     beta=0.70
     Davidson diagonalization with overlap
     ethr =  2.98E-11,  avg # of iterations =  1.6

     total cpu time spent up to now is        8.4 secs

     total energy              =     -95.06294197 Ry
     Harris-Foulkes estimate   =     -95.06294197 Ry
     estimated scf accuracy    <          1.2E-10 Ry

     iteration #  7     ecut=    40.00 Ry     beta=0.70
     Davidson diagonalization with overlap
     ethr =  1.34E-12,  avg # of iterations =  2.0

     total cpu time spent up to now is        9.5 secs

     End of self-consistent calculation

     Number of k-points >= 100: set verbosity='high' to print the bands.

     the Fermi energy is     5.7021 ev

!    total energy              =     -95.06294197 Ry
     Harris-Foulkes estimate   =     -95.06294197 Ry
     estimated scf accuracy    <          1.8E-12 Ry

     The total energy is the sum of the following terms:

     one-electron contribution =     -72.01867593 Ry
     hartree contribution      =      37.75485868 Ry
     xc contribution           =     -14.37733506 Ry
     ewald contribution        =     -46.42172850 Ry
     smearing contrib. (-TS)   =      -0.00006116 Ry

     convergence has been achieved in   7 iterations

     Forces acting on atoms (cartesian axes, Ry/au):

     atom    1 type  1   force =     0.00000000    0.00000000    0.00000000

     Total force =     0.000000     Total SCF correction =     0.000000


     Computing stress (Cartesian axis) and pressure

          total   stress  (Ry/bohr**3)                   (kbar)     P=  175.74
   0.00119466  -0.00000000   0.00000000        175.74     -0.00      0.00
  -0.00000000   0.00119466   0.00000000         -0.00    175.74      0.00
   0.00000000   0.00000000   0.00119466          0.00      0.00    175.74


     BFGS Geometry Optimization

     number of scf cycles    =   1
     number of bfgs steps    =   0

     enthalpy new            =     -95.0629419699 Ry

     new trust radius        =       0.0675799983 bohr
     new conv_thr            =            1.0E-10 Ry

     new unit-cell volume =    139.81465 a.u.^3 (    20.71839 Ang^3 )
     density =      1.84260 g/cm^3

CELL_PARAMETERS (alat=  8.00000000)
  -0.514933211   0.000000000   0.514933211
  -0.000000000   0.514933211   0.514933211
  -0.514933211   0.514933211  -0.000000000

ATOMIC_POSITIONS (crystal)
Na       0.000000000   0.000000000   0.000000000



     Writing output data file na.fcc.save
     NEW-OLD atomic charge density approx. for the potential
     extrapolated charge    9.75999, renormalised to    9.00000

     total cpu time spent up to now is       10.4 secs

     per-process dynamical memory:    20.5 Mb

     Self-consistent Calculation

     iteration #  1     ecut=    40.00 Ry     beta=0.70
     Davidson diagonalization with overlap
     ethr =  1.00E-06,  avg # of iterations =  4.5

     total cpu time spent up to now is       12.1 secs

     total energy              =     -94.57601825 Ry
     Harris-Foulkes estimate   =     -90.09590415 Ry
     estimated scf accuracy    <       0.28060227 Ry

     iteration #  2     ecut=    40.00 Ry     beta=0.70
     Davidson diagonalization with overlap
     ethr =  3.12E-03,  avg # of iterations =  2.9

     total cpu time spent up to now is       13.4 secs

     total energy              =     -95.09841396 Ry
     Harris-Foulkes estimate   =     -95.30217212 Ry
     estimated scf accuracy    <       0.46130977 Ry

     iteration #  3     ecut=    40.00 Ry     beta=0.70
     Davidson diagonalization with overlap
     ethr =  3.12E-03,  avg # of iterations =  1.0

     total cpu time spent up to now is       14.2 secs

     total energy              =     -95.08602452 Ry
     Harris-Foulkes estimate   =     -95.12382782 Ry
     estimated scf accuracy    <       0.10512992 Ry

     iteration #  4     ecut=    40.00 Ry     beta=0.70
     Davidson diagonalization with overlap
     ethr =  1.17E-03,  avg # of iterations =  1.0

     total cpu time spent up to now is       15.1 secs

     total energy              =     -95.08514453 Ry
     Harris-Foulkes estimate   =     -95.09073776 Ry
     estimated scf accuracy    <       0.03328661 Ry

     iteration #  5     ecut=    40.00 Ry     beta=0.70
     Davidson diagonalization with overlap
     ethr =  3.70E-04,  avg # of iterations =  1.0

     total cpu time spent up to now is       15.9 secs

     total energy              =     -95.07977862 Ry
     Harris-Foulkes estimate   =     -95.08556442 Ry
     estimated scf accuracy    <       0.02243077 Ry

     iteration #  6     ecut=    40.00 Ry     beta=0.70
     Davidson diagonalization with overlap
     ethr =  2.49E-04,  avg # of iterations =  1.0

     total cpu time spent up to now is       16.7 secs

     total energy              =     -95.07305458 Ry
     Harris-Foulkes estimate   =     -95.08018678 Ry
     estimated scf accuracy    <       0.01120734 Ry

     iteration #  7     ecut=    40.00 Ry     beta=0.70
     Davidson diagonalization with overlap
     ethr =  1.25E-04,  avg # of iterations =  2.0

     total cpu time spent up to now is       17.7 secs

     total energy              =     -95.07495106 Ry
     Harris-Foulkes estimate   =     -95.07500120 Ry
     estimated scf accuracy    <       0.00014036 Ry

     iteration #  8     ecut=    40.00 Ry     beta=0.70
     Davidson diagonalization with overlap
     ethr =  1.56E-06,  avg # of iterations =  2.4

     total cpu time spent up to now is       18.7 secs

     total energy              =     -95.07492593 Ry
     Harris-Foulkes estimate   =     -95.07495931 Ry
     estimated scf accuracy    <       0.00004047 Ry

     iteration #  9     ecut=    40.00 Ry     beta=0.70
     Davidson diagonalization with overlap
     ethr =  4.50E-07,  avg # of iterations =  2.0

     total cpu time spent up to now is       19.8 secs

     total energy              =     -95.07495459 Ry
     Harris-Foulkes estimate   =     -95.07495694 Ry
     estimated scf accuracy    <       0.00003915 Ry

     iteration # 10     ecut=    40.00 Ry     beta=0.70
     Davidson diagonalization with overlap
     ethr =  4.35E-07,  avg # of iterations =  1.0

     total cpu time spent up to now is       20.6 secs

     total energy              =     -95.07493919 Ry
     Harris-Foulkes estimate   =     -95.07495466 Ry
     estimated scf accuracy    <       0.00003525 Ry

     iteration # 11     ecut=    40.00 Ry     beta=0.70
     Davidson diagonalization with overlap
     ethr =  3.92E-07,  avg # of iterations =  1.0

     total cpu time spent up to now is       21.4 secs

     total energy              =     -95.07494032 Ry
     Harris-Foulkes estimate   =     -95.07494220 Ry
     estimated scf accuracy    <       0.00000277 Ry

     iteration # 12     ecut=    40.00 Ry     beta=0.70
     Davidson diagonalization with overlap
     ethr =  3.08E-08,  avg # of iterations =  2.0

     total cpu time spent up to now is       22.5 secs

     total energy              =     -95.07494108 Ry
     Harris-Foulkes estimate   =     -95.07494157 Ry
     estimated scf accuracy    <       0.00000090 Ry

     iteration # 13     ecut=    40.00 Ry     beta=0.70
     Davidson diagonalization with overlap
     ethr =  9.98E-09,  avg # of iterations =  2.0

     total cpu time spent up to now is       23.5 secs

     total energy              =     -95.07494127 Ry
     Harris-Foulkes estimate   =     -95.07494129 Ry
     estimated scf accuracy    <       0.00000005 Ry

     iteration # 14     ecut=    40.00 Ry     beta=0.70
     Davidson diagonalization with overlap
     ethr =  5.29E-10,  avg # of iterations =  1.0

     total cpu time spent up to now is       24.3 secs

     total energy              =     -95.07494127 Ry
     Harris-Foulkes estimate   =     -95.07494127 Ry
     estimated scf accuracy    <          7.7E-09 Ry

     iteration # 15     ecut=    40.00 Ry     beta=0.70
     Davidson diagonalization with overlap
     ethr =  8.55E-11,  avg # of iterations =  1.6

     total cpu time spent up to now is       25.2 secs

     total energy              =     -95.07494127 Ry
     Harris-Foulkes estimate   =     -95.07494127 Ry
     estimated scf accuracy    <          7.1E-10 Ry

     iteration # 16     ecut=    40.00 Ry     beta=0.70
     Davidson diagonalization with overlap
     ethr =  7.92E-12,  avg # of iterations =  2.0

     total cpu time spent up to now is       26.2 secs

     End of self-consistent calculation

     Number of k-points >= 100: set verbosity='high' to print the bands.

     the Fermi energy is     4.9743 ev

!    total energy              =     -95.07494127 Ry
     Harris-Foulkes estimate   =     -95.07494127 Ry
     estimated scf accuracy    <          4.1E-11 Ry

     The total energy is the sum of the following terms:

     one-electron contribution =     -74.33010219 Ry
     hartree contribution      =      38.69047412 Ry
     xc contribution           =     -14.35976276 Ry
     ewald contribution        =     -45.07548503 Ry
     smearing contrib. (-TS)   =      -0.00006540 Ry

     convergence has been achieved in  16 iterations

     Forces acting on atoms (cartesian axes, Ry/au):

     atom    1 type  1   force =     0.00000000    0.00000000    0.00000000

     Total force =     0.000000     Total SCF correction =     0.000000


     Computing stress (Cartesian axis) and pressure

          total   stress  (Ry/bohr**3)                   (kbar)     P=  126.07
   0.00085702  -0.00000000   0.00000000        126.07     -0.00      0.00
  -0.00000000   0.00085702  -0.00000000         -0.00    126.07     -0.00
   0.00000000  -0.00000000   0.00085702          0.00     -0.00    126.07


     number of scf cycles    =   2
     number of bfgs steps    =   1

     enthalpy old            =     -95.0629419699 Ry
     enthalpy new            =     -95.0749412712 Ry

     CASE: enthalpy_new < enthalpy_old

     new trust radius        =       0.0754399360 bohr
     new conv_thr            =            1.0E-12 Ry

     new unit-cell volume =    153.62642 a.u.^3 (    22.76509 Ang^3 )
     density =      1.67694 g/cm^3

CELL_PARAMETERS (alat=  8.00000000)
  -0.531359743   0.000000000   0.531359743
  -0.000000000   0.531359743   0.531359743
  -0.531359743   0.531359743  -0.000000000

ATOMIC_POSITIONS (crystal)
Na       0.000000000   0.000000000   0.000000000



     Writing output data file na.fcc.save
     NEW-OLD atomic charge density approx. for the potential
     extrapolated charge    9.80858, renormalised to    9.00000

     total cpu time spent up to now is       27.2 secs

     per-process dynamical memory:    20.5 Mb

     Self-consistent Calculation

     iteration #  1     ecut=    40.00 Ry     beta=0.70
     Davidson diagonalization with overlap
     ethr =  1.00E-06,  avg # of iterations =  4.6

     total cpu time spent up to now is       28.9 secs

     total energy              =     -94.49270456 Ry
     Harris-Foulkes estimate   =     -89.60704845 Ry
     estimated scf accuracy    <       0.33345306 Ry

     iteration #  2     ecut=    40.00 Ry     beta=0.70
     Davidson diagonalization with overlap
     ethr =  3.71E-03,  avg # of iterations =  3.0

     total cpu time spent up to now is       30.2 secs

     total energy              =     -95.11388908 Ry
     Harris-Foulkes estimate   =     -95.35516800 Ry
     estimated scf accuracy    <       0.54529843 Ry

     iteration #  3     ecut=    40.00 Ry     beta=0.70
     Davidson diagonalization with overlap
     ethr =  3.71E-03,  avg # of iterations =  1.0

     total cpu time spent up to now is       31.0 secs

     total energy              =     -95.09776601 Ry
     Harris-Foulkes estimate   =     -95.14352989 Ry
     estimated scf accuracy    <       0.12555725 Ry

     iteration #  4     ecut=    40.00 Ry     beta=0.70
     Davidson diagonalization with overlap
     ethr =  1.40E-03,  avg # of iterations =  1.0

     total cpu time spent up to now is       31.8 secs

     total energy              =     -95.09601166 Ry
     Harris-Foulkes estimate   =     -95.10345320 Ry
     estimated scf accuracy    <       0.03923898 Ry

     iteration #  5     ecut=    40.00 Ry     beta=0.70
     Davidson diagonalization with overlap
     ethr =  4.36E-04,  avg # of iterations =  1.0

     total cpu time spent up to now is       32.7 secs

     total energy              =     -95.08898673 Ry
     Harris-Foulkes estimate   =     -95.09657973 Ry
     estimated scf accuracy    <       0.02465915 Ry

     iteration #  6     ecut=    40.00 Ry     beta=0.70
     Davidson diagonalization with overlap
     ethr =  2.74E-04,  avg # of iterations =  1.0

     total cpu time spent up to now is       33.5 secs

     total energy              =     -95.08269380 Ry
     Harris-Foulkes estimate   =     -95.08961665 Ry
     estimated scf accuracy    <       0.01034575 Ry

     iteration #  7     ecut=    40.00 Ry     beta=0.70
     Davidson diagonalization with overlap
     ethr =  1.15E-04,  avg # of iterations =  2.0

     total cpu time spent up to now is       34.5 secs

     total energy              =     -95.08478235 Ry
     Harris-Foulkes estimate   =     -95.08478614 Ry
     estimated scf accuracy    <       0.00002509 Ry

     iteration #  8     ecut=    40.00 Ry     beta=0.70
     Davidson diagonalization with overlap
     ethr =  2.79E-07,  avg # of iterations =  2.7

     total cpu time spent up to now is       35.7 secs

     total energy              =     -95.08477793 Ry
     Harris-Foulkes estimate   =     -95.08479403 Ry
     estimated scf accuracy    <       0.00005527 Ry

     iteration #  9     ecut=    40.00 Ry     beta=0.70
     Davidson diagonalization with overlap
     ethr =  2.79E-07,  avg # of iterations =  1.0

     total cpu time spent up to now is       36.5 secs

     total energy              =     -95.08478202 Ry
     Harris-Foulkes estimate   =     -95.08477993 Ry
     estimated scf accuracy    <       0.00000215 Ry

     iteration # 10     ecut=    40.00 Ry     beta=0.70
     Davidson diagonalization with overlap
     ethr =  2.39E-08,  avg # of iterations =  2.0

     total cpu time spent up to now is       37.6 secs

     total energy              =     -95.08477748 Ry
     Harris-Foulkes estimate   =     -95.08478297 Ry
     estimated scf accuracy    <       0.00000752 Ry

     iteration # 11     ecut=    40.00 Ry     beta=0.70
     Davidson diagonalization with overlap
     ethr =  2.39E-08,  avg # of iterations =  2.0

     total cpu time spent up to now is       38.6 secs

     total energy              =     -95.08477958 Ry
     Harris-Foulkes estimate   =     -95.08477968 Ry
     estimated scf accuracy    <       0.00000025 Ry

     iteration # 12     ecut=    40.00 Ry     beta=0.70
     Davidson diagonalization with overlap
     ethr =  2.76E-09,  avg # of iterations =  1.0

     total cpu time spent up to now is       39.5 secs

     total energy              =     -95.08477957 Ry
     Harris-Foulkes estimate   =     -95.08477959 Ry
     estimated scf accuracy    <       0.00000007 Ry

     iteration # 13     ecut=    40.00 Ry     beta=0.70
     Davidson diagonalization with overlap
     ethr =  7.24E-10,  avg # of iterations =  1.0

     total cpu time spent up to now is       40.3 secs

     total energy              =     -95.08477957 Ry
     Harris-Foulkes estimate   =     -95.08477958 Ry
     estimated scf accuracy    <       0.00000001 Ry

     iteration # 14     ecut=    40.00 Ry     beta=0.70
     Davidson diagonalization with overlap
     ethr =  1.50E-10,  avg # of iterations =  2.0

     total cpu time spent up to now is       41.3 secs

     total energy              =     -95.08477957 Ry
     Harris-Foulkes estimate   =     -95.08477957 Ry
     estimated scf accuracy    <          2.3E-09 Ry

     iteration # 15     ecut=    40.00 Ry     beta=0.70
     Davidson diagonalization with overlap
     ethr =  2.54E-11,  avg # of iterations =  2.0

     total cpu time spent up to now is       42.3 secs

     total energy              =     -95.08477957 Ry
     Harris-Foulkes estimate   =     -95.08477957 Ry
     estimated scf accuracy    <          1.7E-11 Ry

     iteration # 16     ecut=    40.00 Ry     beta=0.70
     Davidson diagonalization with overlap
     ethr =  1.89E-13,  avg # of iterations =  2.0

     total cpu time spent up to now is       43.3 secs

     total energy              =     -95.08477957 Ry
     Harris-Foulkes estimate   =     -95.08477957 Ry
     estimated scf accuracy    <          1.1E-12 Ry

     iteration # 17     ecut=    40.00 Ry     beta=0.70
     Davidson diagonalization with overlap
     ethr =  1.00E-13,  avg # of iterations =  1.0

     total cpu time spent up to now is       44.1 secs

     End of self-consistent calculation

     Number of k-points >= 100: set verbosity='high' to print the bands.

     the Fermi energy is     4.2720 ev

!    total energy              =     -95.08477957 Ry
     Harris-Foulkes estimate   =     -95.08477957 Ry
     estimated scf accuracy    <          5.0E-14 Ry

     The total energy is the sum of the following terms:

     one-electron contribution =     -76.73173785 Ry
     hartree contribution      =      39.67141701 Ry
     xc contribution           =     -14.34237511 Ry
     ewald contribution        =     -43.68201494 Ry
     smearing contrib. (-TS)   =      -0.00006868 Ry

     convergence has been achieved in  17 iterations

     Forces acting on atoms (cartesian axes, Ry/au):

     atom    1 type  1   force =     0.00000000    0.00000000    0.00000000

     Total force =     0.000000     Total SCF correction =     0.000000


     Computing stress (Cartesian axis) and pressure

          total   stress  (Ry/bohr**3)                   (kbar)     P=   86.31
   0.00058676  -0.00000000  -0.00000000         86.31     -0.00     -0.00
  -0.00000000   0.00058676   0.00000000         -0.00     86.31      0.00
  -0.00000000   0.00000000   0.00058676         -0.00      0.00     86.31


     number of scf cycles    =   3
     number of bfgs steps    =   2

     enthalpy old            =     -95.0749412712 Ry
     enthalpy new            =     -95.0847795714 Ry

     CASE: enthalpy_new < enthalpy_old

     new trust radius        =       0.1149506531 bohr
     new conv_thr            =            1.0E-12 Ry

     new unit-cell volume =    176.00429 a.u.^3 (    26.08114 Ang^3 )
     density =      1.46373 g/cm^3

CELL_PARAMETERS (alat=  8.00000000)
  -0.555999542   0.000000000   0.555999542
  -0.000000000   0.555999542   0.555999542
  -0.555999542   0.555999542  -0.000000000

ATOMIC_POSITIONS (crystal)
Na       0.000000000   0.000000000   0.000000000



     Writing output data file na.fcc.save
     NEW-OLD atomic charge density approx. for the potential
     extrapolated charge   10.14350, renormalised to    9.00000

     total cpu time spent up to now is       45.0 secs

     per-process dynamical memory:    20.5 Mb

     Self-consistent Calculation

     iteration #  1     ecut=    40.00 Ry     beta=0.70
     Davidson diagonalization with overlap
     ethr =  1.00E-06,  avg # of iterations =  5.0

     total cpu time spent up to now is       46.8 secs

     total energy              =     -93.57713204 Ry
     Harris-Foulkes estimate   =     -87.01773994 Ry
     estimated scf accuracy    <       0.87255428 Ry

     iteration #  2     ecut=    40.00 Ry     beta=0.70
     Davidson diagonalization with overlap
     ethr =  9.70E-03,  avg # of iterations =  3.0

     total cpu time spent up to now is       48.0 secs

     total energy              =     -95.19024219 Ry
     Harris-Foulkes estimate   =     -95.80136989 Ry
     estimated scf accuracy    <       1.36070826 Ry

     iteration #  3     ecut=    40.00 Ry     beta=0.70
     Davidson diagonalization with overlap
     ethr =  9.70E-03,  avg # of iterations =  1.0

     total cpu time spent up to now is       48.9 secs

     total energy              =     -95.12694558 Ry
     Harris-Foulkes estimate   =     -95.25775054 Ry
     estimated scf accuracy    <       0.33408977 Ry

     iteration #  4     ecut=    40.00 Ry     beta=0.70
     Davidson diagonalization with overlap
     ethr =  3.71E-03,  avg # of iterations =  1.0

     total cpu time spent up to now is       49.7 secs

     total energy              =     -95.12089663 Ry
     Harris-Foulkes estimate   =     -95.14253791 Ry
     estimated scf accuracy    <       0.09836009 Ry

     iteration #  5     ecut=    40.00 Ry     beta=0.70
     Davidson diagonalization with overlap
     ethr =  1.09E-03,  avg # of iterations =  1.0

     total cpu time spent up to now is       50.5 secs

     total energy              =     -95.10046189 Ry
     Harris-Foulkes estimate   =     -95.12254667 Ry
     estimated scf accuracy    <       0.05655553 Ry

     iteration #  6     ecut=    40.00 Ry     beta=0.70
     Davidson diagonalization with overlap
     ethr =  6.28E-04,  avg # of iterations =  1.0

     total cpu time spent up to now is       51.4 secs

     total energy              =     -95.09066274 Ry
     Harris-Foulkes estimate   =     -95.10278137 Ry
     estimated scf accuracy    <       0.01711476 Ry

     iteration #  7     ecut=    40.00 Ry     beta=0.70
     Davidson diagonalization with overlap
     ethr =  1.90E-04,  avg # of iterations =  2.0

     total cpu time spent up to now is       52.4 secs

     total energy              =     -95.09469553 Ry
     Harris-Foulkes estimate   =     -95.09470758 Ry
     estimated scf accuracy    <       0.00003116 Ry

     iteration #  8     ecut=    40.00 Ry     beta=0.70
     Davidson diagonalization with overlap
     ethr =  3.46E-07,  avg # of iterations =  3.5

     total cpu time spent up to now is       53.6 secs

     total energy              =     -95.09469650 Ry
     Harris-Foulkes estimate   =     -95.09469933 Ry
     estimated scf accuracy    <       0.00000807 Ry

     iteration #  9     ecut=    40.00 Ry     beta=0.70
     Davidson diagonalization with overlap
     ethr =  8.97E-08,  avg # of iterations =  2.0

     total cpu time spent up to now is       54.6 secs

     total energy              =     -95.09469768 Ry
     Harris-Foulkes estimate   =     -95.09469754 Ry
     estimated scf accuracy    <       0.00000285 Ry

     iteration # 10     ecut=    40.00 Ry     beta=0.70
     Davidson diagonalization with overlap
     ethr =  3.16E-08,  avg # of iterations =  2.0

     total cpu time spent up to now is       55.6 secs

     total energy              =     -95.09469788 Ry
     Harris-Foulkes estimate   =     -95.09469820 Ry
     estimated scf accuracy    <       0.00000222 Ry

     iteration # 11     ecut=    40.00 Ry     beta=0.70
     Davidson diagonalization with overlap
     ethr =  2.47E-08,  avg # of iterations =  1.0

     total cpu time spent up to now is       56.4 secs

     total energy              =     -95.09469712 Ry
     Harris-Foulkes estimate   =     -95.09469789 Ry
     estimated scf accuracy    <       0.00000145 Ry

     iteration # 12     ecut=    40.00 Ry     beta=0.70
     Davidson diagonalization with overlap
     ethr =  1.62E-08,  avg # of iterations =  2.0

     total cpu time spent up to now is       57.4 secs

     total energy              =     -95.09469726 Ry
     Harris-Foulkes estimate   =     -95.09469730 Ry
     estimated scf accuracy    <       0.00000007 Ry

     iteration # 13     ecut=    40.00 Ry     beta=0.70
     Davidson diagonalization with overlap
     ethr =  7.93E-10,  avg # of iterations =  2.0

     total cpu time spent up to now is       58.4 secs

     total energy              =     -95.09469728 Ry
     Harris-Foulkes estimate   =     -95.09469728 Ry
     estimated scf accuracy    <          9.3E-11 Ry

     iteration # 14     ecut=    40.00 Ry     beta=0.70
     Davidson diagonalization with overlap
     ethr =  1.03E-12,  avg # of iterations =  2.0

     total cpu time spent up to now is       59.5 secs

     total energy              =     -95.09469728 Ry
     Harris-Foulkes estimate   =     -95.09469728 Ry
     estimated scf accuracy    <          1.4E-10 Ry

     iteration # 15     ecut=    40.00 Ry     beta=0.70
     Davidson diagonalization with overlap
     ethr =  1.03E-12,  avg # of iterations =  2.0

     total cpu time spent up to now is       60.5 secs

     total energy              =     -95.09469728 Ry
     Harris-Foulkes estimate   =     -95.09469728 Ry
     estimated scf accuracy    <          7.2E-12 Ry

     iteration # 16     ecut=    40.00 Ry     beta=0.70
     Davidson diagonalization with overlap
     ethr =  1.00E-13,  avg # of iterations =  1.0

     total cpu time spent up to now is       61.3 secs

     total energy              =     -95.09469728 Ry
     Harris-Foulkes estimate   =     -95.09469728 Ry
     estimated scf accuracy    <          7.0E-12 Ry

     iteration # 17     ecut=    40.00 Ry     beta=0.70
     Davidson diagonalization with overlap
     ethr =  1.00E-13,  avg # of iterations =  1.6

     total cpu time spent up to now is       62.2 secs

     total energy              =     -95.09469728 Ry
     Harris-Foulkes estimate   =     -95.09469728 Ry
     estimated scf accuracy    <          9.7E-12 Ry

     iteration # 18     ecut=    40.00 Ry     beta=0.70
     Davidson diagonalization with overlap
     ethr =  1.00E-13,  avg # of iterations =  2.0

     total cpu time spent up to now is       63.2 secs

     End of self-consistent calculation

     Number of k-points >= 100: set verbosity='high' to print the bands.

     the Fermi energy is     3.3785 ev

!    total energy              =     -95.09469728 Ry
     Harris-Foulkes estimate   =     -95.09469728 Ry
     estimated scf accuracy    <          4.6E-14 Ry

     The total energy is the sum of the following terms:

     one-electron contribution =     -80.08399586 Ry
     hartree contribution      =      41.05515099 Ry
     xc contribution           =     -14.31958790 Ry
     ewald contribution        =     -41.74619313 Ry
     smearing contrib. (-TS)   =      -0.00007138 Ry

     convergence has been achieved in  18 iterations

     Forces acting on atoms (cartesian axes, Ry/au):

     atom    1 type  1   force =     0.00000000    0.00000000    0.00000000

     Total force =     0.000000     Total SCF correction =     0.000000


     Computing stress (Cartesian axis) and pressure

          total   stress  (Ry/bohr**3)                   (kbar)     P=   48.12
   0.00032709  -0.00000000  -0.00000000         48.12     -0.00     -0.00
  -0.00000000   0.00032709   0.00000000         -0.00     48.12      0.00
  -0.00000000   0.00000000   0.00032709         -0.00      0.00     48.12


     number of scf cycles    =   4
     number of bfgs steps    =   3

     enthalpy old            =     -95.0847795714 Ry
     enthalpy new            =     -95.0946972775 Ry

     CASE: enthalpy_new < enthalpy_old

     new trust radius        =       0.1763784796 bohr
     new conv_thr            =            1.0E-12 Ry

     new unit-cell volume =    213.48850 a.u.^3 (    31.63573 Ang^3 )
     density =      1.20673 g/cm^3

CELL_PARAMETERS (alat=  8.00000000)
  -0.592959239   0.000000000   0.592959239
  -0.000000000   0.592959239   0.592959239
  -0.592959239   0.592959239  -0.000000000

ATOMIC_POSITIONS (crystal)
Na       0.000000000   0.000000000   0.000000000



     Writing output data file na.fcc.save
     NEW-OLD atomic charge density approx. for the potential
     extrapolated charge   10.57911, renormalised to    9.00000

     total cpu time spent up to now is       64.1 secs

     per-process dynamical memory:    20.5 Mb

     Self-consistent Calculation

     iteration #  1     ecut=    40.00 Ry     beta=0.70
     Davidson diagonalization with overlap
     ethr =  1.00E-06,  avg # of iterations =  5.6

     total cpu time spent up to now is       66.1 secs

     total energy              =     -90.41720186 Ry
     Harris-Foulkes estimate   =     -83.43821336 Ry
     estimated scf accuracy    <       2.87087491 Ry

     iteration #  2     ecut=    40.00 Ry     beta=0.70
     Davidson diagonalization with overlap
     ethr =  1.00E-02,  avg # of iterations =  3.0

     total cpu time spent up to now is       67.5 secs

     total energy              =     -95.49606658 Ry
     Harris-Foulkes estimate   =     -97.33879439 Ry
     estimated scf accuracy    <       3.94287070 Ry

     iteration #  3     ecut=    40.00 Ry     beta=0.70
     Davidson diagonalization with overlap
     ethr =  1.00E-02,  avg # of iterations =  2.0

     total cpu time spent up to now is       68.5 secs

     total energy              =     -95.19612678 Ry
     Harris-Foulkes estimate   =     -95.66446713 Ry
     estimated scf accuracy    <       1.04709576 Ry

     iteration #  4     ecut=    40.00 Ry     beta=0.70
     Davidson diagonalization with overlap
     ethr =  1.00E-02,  avg # of iterations =  1.0

     total cpu time spent up to now is       69.4 secs

     total energy              =     -95.15894850 Ry
     Harris-Foulkes estimate   =     -95.24484247 Ry
     estimated scf accuracy    <       0.27866874 Ry

     iteration #  5     ecut=    40.00 Ry     beta=0.70
     Davidson diagonalization with overlap
     ethr =  3.10E-03,  avg # of iterations =  1.0

     total cpu time spent up to now is       70.2 secs

     total energy              =     -95.11589181 Ry
     Harris-Foulkes estimate   =     -95.16587632 Ry
     estimated scf accuracy    <       0.12432273 Ry

     iteration #  6     ecut=    40.00 Ry     beta=0.70
     Davidson diagonalization with overlap
     ethr =  1.38E-03,  avg # of iterations =  1.1

     total cpu time spent up to now is       71.1 secs

     total energy              =     -95.09778105 Ry
     Harris-Foulkes estimate   =     -95.12109678 Ry
     estimated scf accuracy    <       0.03767356 Ry

     iteration #  7     ecut=    40.00 Ry     beta=0.70
     Davidson diagonalization with overlap
     ethr =  4.19E-04,  avg # of iterations =  2.2

     total cpu time spent up to now is       72.1 secs

     total energy              =     -95.10436697 Ry
     Harris-Foulkes estimate   =     -95.10311227 Ry
     estimated scf accuracy    <       0.00143126 Ry

     iteration #  8     ecut=    40.00 Ry     beta=0.70
     Davidson diagonalization with overlap
     ethr =  1.59E-05,  avg # of iterations =  3.1

     total cpu time spent up to now is       73.2 secs

     total energy              =     -95.10320594 Ry
     Harris-Foulkes estimate   =     -95.10453675 Ry
     estimated scf accuracy    <       0.00425654 Ry

     iteration #  9     ecut=    40.00 Ry     beta=0.70
     Davidson diagonalization with overlap
     ethr =  1.59E-05,  avg # of iterations =  1.0

     total cpu time spent up to now is       74.0 secs

     total energy              =     -95.10253429 Ry
     Harris-Foulkes estimate   =     -95.10331320 Ry
     estimated scf accuracy    <       0.00183067 Ry

     iteration # 10     ecut=    40.00 Ry     beta=0.70
     Davidson diagonalization with overlap
     ethr =  1.59E-05,  avg # of iterations =  1.0

     total cpu time spent up to now is       74.8 secs

     total energy              =     -95.10232155 Ry
     Harris-Foulkes estimate   =     -95.10263698 Ry
     estimated scf accuracy    <       0.00044663 Ry

     iteration # 11     ecut=    40.00 Ry     beta=0.70
     Davidson diagonalization with overlap
     ethr =  4.96E-06,  avg # of iterations =  2.0

     total cpu time spent up to now is       75.8 secs

     total energy              =     -95.10242175 Ry
     Harris-Foulkes estimate   =     -95.10242175 Ry
     estimated scf accuracy    <       0.00000002 Ry

     iteration # 12     ecut=    40.00 Ry     beta=0.70
     Davidson diagonalization with overlap
     ethr =  1.93E-10,  avg # of iterations =  3.1

     total cpu time spent up to now is       77.1 secs

     total energy              =     -95.10242183 Ry
     Harris-Foulkes estimate   =     -95.10242185 Ry
     estimated scf accuracy    <       0.00000004 Ry

     iteration # 13     ecut=    40.00 Ry     beta=0.70
     Davidson diagonalization with overlap
     ethr =  1.93E-10,  avg # of iterations =  2.0

     total cpu time spent up to now is       78.1 secs

     total energy              =     -95.10242183 Ry
     Harris-Foulkes estimate   =     -95.10242183 Ry
     estimated scf accuracy    <          2.4E-09 Ry

     iteration # 14     ecut=    40.00 Ry     beta=0.70
     Davidson diagonalization with overlap
     ethr =  2.62E-11,  avg # of iterations =  2.0

     total cpu time spent up to now is       79.1 secs

     total energy              =     -95.10242183 Ry
     Harris-Foulkes estimate   =     -95.10242183 Ry
     estimated scf accuracy    <          1.8E-11 Ry

     iteration # 15     ecut=    40.00 Ry     beta=0.70
     Davidson diagonalization with overlap
     ethr =  1.95E-13,  avg # of iterations =  3.0

     total cpu time spent up to now is       80.3 secs

     total energy              =     -95.10242183 Ry
     Harris-Foulkes estimate   =     -95.10242183 Ry
     estimated scf accuracy    <          5.2E-10 Ry

     iteration # 16     ecut=    40.00 Ry     beta=0.70
     Davidson diagonalization with overlap
     ethr =  1.95E-13,  avg # of iterations =  3.0

     total cpu time spent up to now is       81.5 secs

     total energy              =     -95.10242183 Ry
     Harris-Foulkes estimate   =     -95.10242183 Ry
     estimated scf accuracy    <          6.5E-11 Ry

     iteration # 17     ecut=    40.00 Ry     beta=0.70
     Davidson diagonalization with overlap
     ethr =  1.95E-13,  avg # of iterations =  2.0

     total cpu time spent up to now is       82.5 secs

     total energy              =     -95.10242183 Ry
     Harris-Foulkes estimate   =     -95.10242183 Ry
     estimated scf accuracy    <          2.1E-12 Ry

     iteration # 18     ecut=    40.00 Ry     beta=0.70
     Davidson diagonalization with overlap
     ethr =  1.00E-13,  avg # of iterations =  1.0

     total cpu time spent up to now is       83.4 secs

     End of self-consistent calculation

     Number of k-points >= 100: set verbosity='high' to print the bands.

     the Fermi energy is     2.3185 ev

!    total energy              =     -95.10242183 Ry
     Harris-Foulkes estimate   =     -95.10242183 Ry
     estimated scf accuracy    <          1.3E-13 Ry

     The total energy is the sum of the following terms:

     one-electron contribution =     -84.61686869 Ry
     hartree contribution      =      42.94924032 Ry
     xc contribution           =     -14.29060677 Ry
     ewald contribution        =     -39.14411435 Ry
     smearing contrib. (-TS)   =      -0.00007234 Ry

     convergence has been achieved in  18 iterations

     Forces acting on atoms (cartesian axes, Ry/au):

     atom    1 type  1   force =     0.00000000    0.00000000    0.00000000

     Total force =     0.000000     Total SCF correction =     0.000000


     Computing stress (Cartesian axis) and pressure

          total   stress  (Ry/bohr**3)                   (kbar)     P=   15.79
   0.00010734   0.00000000   0.00000000         15.79      0.00      0.00
  -0.00000000   0.00010734  -0.00000000         -0.00     15.79     -0.00
  -0.00000000  -0.00000000   0.00010734         -0.00     -0.00     15.79


     number of scf cycles    =   5
     number of bfgs steps    =   4

     enthalpy old            =     -95.0946972775 Ry
     enthalpy new            =     -95.1024218333 Ry

     CASE: enthalpy_new < enthalpy_old

     new trust radius        =       0.1084762992 bohr
     new conv_thr            =            1.0E-12 Ry

     new unit-cell volume =    238.15656 a.u.^3 (    35.29116 Ang^3 )
     density =      1.08174 g/cm^3

CELL_PARAMETERS (alat=  8.00000000)
  -0.614970376   0.000000000   0.614970376
  -0.000000000   0.614970376   0.614970376
  -0.614970376   0.614970376  -0.000000000

ATOMIC_POSITIONS (crystal)
Na       0.000000000   0.000000000   0.000000000



     Writing output data file na.fcc.save
     NEW-OLD atomic charge density approx. for the potential
     extrapolated charge    9.93156, renormalised to    9.00000

     total cpu time spent up to now is       84.3 secs

     per-process dynamical memory:    20.5 Mb

     Self-consistent Calculation

     iteration #  1     ecut=    40.00 Ry     beta=0.70
     Davidson diagonalization with overlap
     ethr =  1.00E-06,  avg # of iterations =  5.2

     total cpu time spent up to now is       86.1 secs

     total energy              =     -94.18410179 Ry
     Harris-Foulkes estimate   =     -87.87460891 Ry
     estimated scf accuracy    <       0.52073060 Ry

     iteration #  2     ecut=    40.00 Ry     beta=0.70
     Davidson diagonalization with overlap
     ethr =  5.79E-03,  avg # of iterations =  3.0

     total cpu time spent up to now is       87.3 secs

     total energy              =     -95.15412613 Ry
     Harris-Foulkes estimate   =     -95.52123676 Ry
     estimated scf accuracy    <       0.82060675 Ry

     iteration #  3     ecut=    40.00 Ry     beta=0.70
     Davidson diagonalization with overlap
     ethr =  5.79E-03,  avg # of iterations =  1.0

     total cpu time spent up to now is       88.2 secs

     total energy              =     -95.12413320 Ry
     Harris-Foulkes estimate   =     -95.19708154 Ry
     estimated scf accuracy    <       0.19387896 Ry

     iteration #  4     ecut=    40.00 Ry     beta=0.70
     Davidson diagonalization with overlap
     ethr =  2.15E-03,  avg # of iterations =  1.0

     total cpu time spent up to now is       89.0 secs

     total energy              =     -95.11092781 Ry
     Harris-Foulkes estimate   =     -95.13273569 Ry
     estimated scf accuracy    <       0.06011799 Ry

     iteration #  5     ecut=    40.00 Ry     beta=0.70
     Davidson diagonalization with overlap
     ethr =  6.68E-04,  avg # of iterations =  1.0

     total cpu time spent up to now is       89.8 secs

     total energy              =     -95.10037173 Ry
     Harris-Foulkes estimate   =     -95.11328694 Ry
     estimated scf accuracy    <       0.02005430 Ry

     iteration #  6     ecut=    40.00 Ry     beta=0.70
     Davidson diagonalization with overlap
     ethr =  2.23E-04,  avg # of iterations =  2.0

     total cpu time spent up to now is       90.8 secs

     total energy              =     -95.10378028 Ry
     Harris-Foulkes estimate   =     -95.10373010 Ry
     estimated scf accuracy    <       0.00025450 Ry

     iteration #  7     ecut=    40.00 Ry     beta=0.70
     Davidson diagonalization with overlap
     ethr =  2.83E-06,  avg # of iterations =  3.9

     total cpu time spent up to now is       92.0 secs

     total energy              =     -95.10352588 Ry
     Harris-Foulkes estimate   =     -95.10378656 Ry
     estimated scf accuracy    <       0.00036578 Ry

     iteration #  8     ecut=    40.00 Ry     beta=0.70
     Davidson diagonalization with overlap
     ethr =  2.83E-06,  avg # of iterations =  2.0

     total cpu time spent up to now is       93.0 secs

     total energy              =     -95.10361450 Ry
     Harris-Foulkes estimate   =     -95.10361454 Ry
     estimated scf accuracy    <       0.00000143 Ry

     iteration #  9     ecut=    40.00 Ry     beta=0.70
     Davidson diagonalization with overlap
     ethr =  1.59E-08,  avg # of iterations =  1.3

     total cpu time spent up to now is       93.9 secs

     total energy              =     -95.10361548 Ry
     Harris-Foulkes estimate   =     -95.10361453 Ry
     estimated scf accuracy    <       0.00000134 Ry

     iteration # 10     ecut=    40.00 Ry     beta=0.70
     Davidson diagonalization with overlap
     ethr =  1.49E-08,  avg # of iterations =  1.2

     total cpu time spent up to now is       94.8 secs

     total energy              =     -95.10361335 Ry
     Harris-Foulkes estimate   =     -95.10361560 Ry
     estimated scf accuracy    <       0.00000369 Ry

     iteration # 11     ecut=    40.00 Ry     beta=0.70
     Davidson diagonalization with overlap
     ethr =  1.49E-08,  avg # of iterations =  2.0

     total cpu time spent up to now is       95.8 secs

     total energy              =     -95.10361392 Ry
     Harris-Foulkes estimate   =     -95.10361393 Ry
     estimated scf accuracy    <       0.00000008 Ry

     iteration # 12     ecut=    40.00 Ry     beta=0.70
     Davidson diagonalization with overlap
     ethr =  8.96E-10,  avg # of iterations =  1.0

     total cpu time spent up to now is       96.6 secs

     total energy              =     -95.10361391 Ry
     Harris-Foulkes estimate   =     -95.10361392 Ry
     estimated scf accuracy    <       0.00000005 Ry

     iteration # 13     ecut=    40.00 Ry     beta=0.70
     Davidson diagonalization with overlap
     ethr =  5.18E-10,  avg # of iterations =  2.0

     total cpu time spent up to now is       97.6 secs

     total energy              =     -95.10361393 Ry
     Harris-Foulkes estimate   =     -95.10361392 Ry
     estimated scf accuracy    <          7.8E-09 Ry

     iteration # 14     ecut=    40.00 Ry     beta=0.70
     Davidson diagonalization with overlap
     ethr =  8.63E-11,  avg # of iterations =  1.0

     total cpu time spent up to now is       98.5 secs

     total energy              =     -95.10361392 Ry
     Harris-Foulkes estimate   =     -95.10361393 Ry
     estimated scf accuracy    <          7.4E-09 Ry

     iteration # 15     ecut=    40.00 Ry     beta=0.70
     Davidson diagonalization with overlap
     ethr =  8.24E-11,  avg # of iterations =  2.0

     total cpu time spent up to now is       99.5 secs

     total energy              =     -95.10361392 Ry
     Harris-Foulkes estimate   =     -95.10361392 Ry
     estimated scf accuracy    <          7.5E-11 Ry

     iteration # 16     ecut=    40.00 Ry     beta=0.70
     Davidson diagonalization with overlap
     ethr =  8.35E-13,  avg # of iterations =  1.6

     total cpu time spent up to now is      100.4 secs

     total energy              =     -95.10361392 Ry
     Harris-Foulkes estimate   =     -95.10361392 Ry
     estimated scf accuracy    <          2.0E-10 Ry

     iteration # 17     ecut=    40.00 Ry     beta=0.70
     Davidson diagonalization with overlap
     ethr =  8.35E-13,  avg # of iterations =  1.6

     total cpu time spent up to now is      101.3 secs

     total energy              =     -95.10361392 Ry
     Harris-Foulkes estimate   =     -95.10361392 Ry
     estimated scf accuracy    <          5.3E-11 Ry

     iteration # 18     ecut=    40.00 Ry     beta=0.70
     Davidson diagonalization with overlap
     ethr =  5.86E-13,  avg # of iterations =  1.6

     total cpu time spent up to now is      102.2 secs

     End of self-consistent calculation

     Number of k-points >= 100: set verbosity='high' to print the bands.

     the Fermi energy is     1.8096 ev

!    total energy              =     -95.10361392 Ry
     Harris-Foulkes estimate   =     -95.10361392 Ry
     estimated scf accuracy    <          3.2E-14 Ry

     The total energy is the sum of the following terms:

     one-electron contribution =     -87.06501401 Ry
     hartree contribution      =      43.97903371 Ry
     xc contribution           =     -14.27450053 Ry
     ewald contribution        =     -37.74306086 Ry
     smearing contrib. (-TS)   =      -0.00007224 Ry

     convergence has been achieved in  18 iterations

     Forces acting on atoms (cartesian axes, Ry/au):

     atom    1 type  1   force =     0.00000000    0.00000000    0.00000000

     Total force =     0.000000     Total SCF correction =     0.000000


     Computing stress (Cartesian axis) and pressure

          total   stress  (Ry/bohr**3)                   (kbar)     P=   -2.01
  -0.00001365   0.00000000  -0.00000000         -2.01      0.00     -0.00
   0.00000000  -0.00001365  -0.00000000          0.00     -2.01     -0.00
  -0.00000000  -0.00000000  -0.00001365         -0.00     -0.00     -2.01


     number of scf cycles    =   6
     number of bfgs steps    =   5

     enthalpy old            =     -95.1024218333 Ry
     enthalpy new            =     -95.1036139249 Ry

     CASE: enthalpy_new < enthalpy_old

     new trust radius        =       0.0132945466 bohr
     new conv_thr            =            1.0E-12 Ry

     new unit-cell volume =    235.09231 a.u.^3 (    34.83709 Ang^3 )
     density =      1.09584 g/cm^3

CELL_PARAMETERS (alat=  8.00000000)
  -0.612321471   0.000000000   0.612321471
  -0.000000000   0.612321471   0.612321471
  -0.612321471   0.612321471  -0.000000000

ATOMIC_POSITIONS (crystal)
Na       0.000000000   0.000000000   0.000000000



     Writing output data file na.fcc.save
     NEW-OLD atomic charge density approx. for the potential
     extrapolated charge    8.88277, renormalised to    9.00000

     total cpu time spent up to now is      103.1 secs

     per-process dynamical memory:    20.5 Mb

     Self-consistent Calculation

     iteration #  1     ecut=    40.00 Ry     beta=0.70
     Davidson diagonalization with overlap
     ethr =  1.00E-06,  avg # of iterations =  3.3

     total cpu time spent up to now is      104.6 secs

     total energy              =     -95.09501138 Ry
     Harris-Foulkes estimate   =     -96.00260603 Ry
     estimated scf accuracy    <       0.00483223 Ry

     iteration #  2     ecut=    40.00 Ry     beta=0.70
     Davidson diagonalization with overlap
     ethr =  5.37E-05,  avg # of iterations =  2.5

     total cpu time spent up to now is      105.8 secs

     total energy              =     -95.10375435 Ry
     Harris-Foulkes estimate   =     -95.10726370 Ry
     estimated scf accuracy    <       0.00795323 Ry

     iteration #  3     ecut=    40.00 Ry     beta=0.70
     Davidson diagonalization with overlap
     ethr =  5.37E-05,  avg # of iterations =  1.9

     total cpu time spent up to now is      106.7 secs

     total energy              =     -95.10375303 Ry
     Harris-Foulkes estimate   =     -95.10429877 Ry
     estimated scf accuracy    <       0.00147955 Ry

     iteration #  4     ecut=    40.00 Ry     beta=0.70
     Davidson diagonalization with overlap
     ethr =  1.64E-05,  avg # of iterations =  1.0

     total cpu time spent up to now is      107.6 secs

     total energy              =     -95.10358814 Ry
     Harris-Foulkes estimate   =     -95.10382475 Ry
     estimated scf accuracy    <       0.00042658 Ry

     iteration #  5     ecut=    40.00 Ry     beta=0.70
     Davidson diagonalization with overlap
     ethr =  4.74E-06,  avg # of iterations =  2.0

     total cpu time spent up to now is      108.6 secs

     total energy              =     -95.10364880 Ry
     Harris-Foulkes estimate   =     -95.10364227 Ry
     estimated scf accuracy    <       0.00002558 Ry

     iteration #  6     ecut=    40.00 Ry     beta=0.70
     Davidson diagonalization with overlap
     ethr =  2.84E-07,  avg # of iterations =  1.1

     total cpu time spent up to now is      109.4 secs

     total energy              =     -95.10363852 Ry
     Harris-Foulkes estimate   =     -95.10364938 Ry
     estimated scf accuracy    <       0.00004060 Ry

     iteration #  7     ecut=    40.00 Ry     beta=0.70
     Davidson diagonalization with overlap
     ethr =  2.84E-07,  avg # of iterations =  1.0

     total cpu time spent up to now is      110.3 secs

     total energy              =     -95.10362959 Ry
     Harris-Foulkes estimate   =     -95.10363939 Ry
     estimated scf accuracy    <       0.00001920 Ry

     iteration #  8     ecut=    40.00 Ry     beta=0.70
     Davidson diagonalization with overlap
     ethr =  2.13E-07,  avg # of iterations =  2.0

     total cpu time spent up to now is      111.2 secs

     total energy              =     -95.10363098 Ry
     Harris-Foulkes estimate   =     -95.10363168 Ry
     estimated scf accuracy    <       0.00000241 Ry

     iteration #  9     ecut=    40.00 Ry     beta=0.70
     Davidson diagonalization with overlap
     ethr =  2.68E-08,  avg # of iterations =  1.0

     total cpu time spent up to now is      112.0 secs

     total energy              =     -95.10363067 Ry
     Harris-Foulkes estimate   =     -95.10363107 Ry
     estimated scf accuracy    <       0.00000071 Ry

     iteration # 10     ecut=    40.00 Ry     beta=0.70
     Davidson diagonalization with overlap
     ethr =  7.89E-09,  avg # of iterations =  2.0

     total cpu time spent up to now is      113.0 secs

     total energy              =     -95.10363073 Ry
     Harris-Foulkes estimate   =     -95.10363076 Ry
     estimated scf accuracy    <       0.00000004 Ry

     iteration # 11     ecut=    40.00 Ry     beta=0.70
     Davidson diagonalization with overlap
     ethr =  4.69E-10,  avg # of iterations =  2.0

     total cpu time spent up to now is      114.0 secs

     total energy              =     -95.10363074 Ry
     Harris-Foulkes estimate   =     -95.10363074 Ry
     estimated scf accuracy    <          4.8E-09 Ry

     iteration # 12     ecut=    40.00 Ry     beta=0.70
     Davidson diagonalization with overlap
     ethr =  5.38E-11,  avg # of iterations =  1.0

     total cpu time spent up to now is      114.8 secs

     total energy              =     -95.10363074 Ry
     Harris-Foulkes estimate   =     -95.10363074 Ry
     estimated scf accuracy    <          2.9E-11 Ry

     iteration # 13     ecut=    40.00 Ry     beta=0.70
     Davidson diagonalization with overlap
     ethr =  3.25E-13,  avg # of iterations =  2.0

     total cpu time spent up to now is      115.8 secs

     total energy              =     -95.10363074 Ry
     Harris-Foulkes estimate   =     -95.10363074 Ry
     estimated scf accuracy    <          3.3E-12 Ry

     iteration # 14     ecut=    40.00 Ry     beta=0.70
     Davidson diagonalization with overlap
     ethr =  1.00E-13,  avg # of iterations =  1.0

     total cpu time spent up to now is      116.6 secs

     End of self-consistent calculation

     Number of k-points >= 100: set verbosity='high' to print the bands.

     the Fermi energy is     1.8668 ev

!    total energy              =     -95.10363074 Ry
     Harris-Foulkes estimate   =     -95.10363074 Ry
     estimated scf accuracy    <          7.3E-13 Ry

     The total energy is the sum of the following terms:

     one-electron contribution =     -86.77971489 Ry
     hartree contribution      =      43.85894710 Ry
     xc contribution           =     -14.27645320 Ry
     ewald contribution        =     -37.90633749 Ry
     smearing contrib. (-TS)   =      -0.00007226 Ry

     convergence has been achieved in  14 iterations

     Forces acting on atoms (cartesian axes, Ry/au):

     atom    1 type  1   force =     0.00000000    0.00000000    0.00000000

     Total force =     0.000000     Total SCF correction =     0.000000


     Computing stress (Cartesian axis) and pressure

          total   stress  (Ry/bohr**3)                   (kbar)     P=    0.39
   0.00000262   0.00000000  -0.00000000          0.39      0.00     -0.00
   0.00000000   0.00000262   0.00000000          0.00      0.39      0.00
  -0.00000000   0.00000000   0.00000262         -0.00      0.00      0.39


     number of scf cycles    =   7
     number of bfgs steps    =   6

     enthalpy old            =     -95.1036139249 Ry
     enthalpy new            =     -95.1036307390 Ry

     CASE: enthalpy_new < enthalpy_old

     new trust radius        =       0.0021222119 bohr
     new conv_thr            =            1.0E-12 Ry

     new unit-cell volume =    235.58074 a.u.^3 (    34.90946 Ang^3 )
     density =      1.09357 g/cm^3

CELL_PARAMETERS (alat=  8.00000000)
  -0.612745230   0.000000000   0.612745230
  -0.000000000   0.612745230   0.612745230
  -0.612745230   0.612745230  -0.000000000

ATOMIC_POSITIONS (crystal)
Na       0.000000000   0.000000000   0.000000000



     Writing output data file na.fcc.save
     NEW-OLD atomic charge density approx. for the potential
     extrapolated charge    9.01865, renormalised to    9.00000

     total cpu time spent up to now is      117.5 secs

     per-process dynamical memory:    20.5 Mb

     Self-consistent Calculation

     iteration #  1     ecut=    40.00 Ry     beta=0.70
     Davidson diagonalization with overlap
     ethr =  1.00E-06,  avg # of iterations =  2.0

     total cpu time spent up to now is      118.7 secs

     total energy              =     -95.10340185 Ry
     Harris-Foulkes estimate   =     -94.96019293 Ry
     estimated scf accuracy    <       0.00012822 Ry

     iteration #  2     ecut=    40.00 Ry     beta=0.70
     Davidson diagonalization with overlap
     ethr =  1.42E-06,  avg # of iterations =  2.6

     total cpu time spent up to now is      120.0 secs

     total energy              =     -95.10363585 Ry
     Harris-Foulkes estimate   =     -95.10372916 Ry
     estimated scf accuracy    <       0.00021166 Ry

     iteration #  3     ecut=    40.00 Ry     beta=0.70
     Davidson diagonalization with overlap
     ethr =  1.42E-06,  avg # of iterations =  1.7

     total cpu time spent up to now is      120.9 secs

     total energy              =     -95.10363644 Ry
     Harris-Foulkes estimate   =     -95.10364984 Ry
     estimated scf accuracy    <       0.00004084 Ry

     iteration #  4     ecut=    40.00 Ry     beta=0.70
     Davidson diagonalization with overlap
     ethr =  4.54E-07,  avg # of iterations =  1.0

     total cpu time spent up to now is      121.7 secs

     total energy              =     -95.10363172 Ry
     Harris-Foulkes estimate   =     -95.10363803 Ry
     estimated scf accuracy    <       0.00001440 Ry

     iteration #  5     ecut=    40.00 Ry     beta=0.70
     Davidson diagonalization with overlap
     ethr =  1.60E-07,  avg # of iterations =  1.0

     total cpu time spent up to now is      122.6 secs

     total energy              =     -95.10363206 Ry
     Harris-Foulkes estimate   =     -95.10363267 Ry
     estimated scf accuracy    <       0.00000284 Ry

     iteration #  6     ecut=    40.00 Ry     beta=0.70
     Davidson diagonalization with overlap
     ethr =  3.16E-08,  avg # of iterations =  1.0

     total cpu time spent up to now is      123.4 secs

     total energy              =     -95.10363223 Ry
     Harris-Foulkes estimate   =     -95.10363213 Ry
     estimated scf accuracy    <       0.00000160 Ry

     iteration #  7     ecut=    40.00 Ry     beta=0.70
     Davidson diagonalization with overlap
     ethr =  1.78E-08,  avg # of iterations =  1.0

     total cpu time spent up to now is      124.2 secs

     total energy              =     -95.10363092 Ry
     Harris-Foulkes estimate   =     -95.10363223 Ry
     estimated scf accuracy    <       0.00000184 Ry

     iteration #  8     ecut=    40.00 Ry     beta=0.70
     Davidson diagonalization with overlap
     ethr =  1.78E-08,  avg # of iterations =  2.0

     total cpu time spent up to now is      125.3 secs

     total energy              =     -95.10363138 Ry
     Harris-Foulkes estimate   =     -95.10363139 Ry
     estimated scf accuracy    <       0.00000002 Ry

     iteration #  9     ecut=    40.00 Ry     beta=0.70
     Davidson diagonalization with overlap
     ethr =  2.29E-10,  avg # of iterations =  2.0

     total cpu time spent up to now is      126.3 secs

     total energy              =     -95.10363138 Ry
     Harris-Foulkes estimate   =     -95.10363138 Ry
     estimated scf accuracy    <          4.7E-10 Ry

     iteration # 10     ecut=    40.00 Ry     beta=0.70
     Davidson diagonalization with overlap
     ethr =  5.19E-12,  avg # of iterations =  1.1

     total cpu time spent up to now is      127.1 secs

     total energy              =     -95.10363138 Ry
     Harris-Foulkes estimate   =     -95.10363138 Ry
     estimated scf accuracy    <          4.9E-11 Ry

     iteration # 11     ecut=    40.00 Ry     beta=0.70
     Davidson diagonalization with overlap
     ethr =  5.42E-13,  avg # of iterations =  2.0

     total cpu time spent up to now is      128.1 secs

     total energy              =     -95.10363138 Ry
     Harris-Foulkes estimate   =     -95.10363138 Ry
     estimated scf accuracy    <          3.2E-10 Ry

     iteration # 12     ecut=    40.00 Ry     beta=0.70
     Davidson diagonalization with overlap
     ethr =  5.42E-13,  avg # of iterations =  2.0

     total cpu time spent up to now is      129.2 secs

     total energy              =     -95.10363138 Ry
     Harris-Foulkes estimate   =     -95.10363138 Ry
     estimated scf accuracy    <          6.6E-12 Ry

     iteration # 13     ecut=    40.00 Ry     beta=0.70
     Davidson diagonalization with overlap
     ethr =  1.00E-13,  avg # of iterations =  1.0

     total cpu time spent up to now is      130.0 secs

     End of self-consistent calculation

     Number of k-points >= 100: set verbosity='high' to print the bands.

     the Fermi energy is     1.8576 ev

!    total energy              =     -95.10363138 Ry
     Harris-Foulkes estimate   =     -95.10363138 Ry
     estimated scf accuracy    <          5.4E-13 Ry

     The total energy is the sum of the following terms:

     one-electron contribution =     -86.82552331 Ry
     hartree contribution      =      43.87822796 Ry
     xc contribution           =     -14.27614134 Ry
     ewald contribution        =     -37.88012243 Ry
     smearing contrib. (-TS)   =      -0.00007226 Ry

     convergence has been achieved in  13 iterations

     Forces acting on atoms (cartesian axes, Ry/au):

     atom    1 type  1   force =     0.00000000    0.00000000    0.00000000

     Total force =     0.000000     Total SCF correction =     0.000000


     Computing stress (Cartesian axis) and pressure

          total   stress  (Ry/bohr**3)                   (kbar)     P=    0.01
   0.00000006   0.00000000   0.00000000          0.01      0.00      0.00
   0.00000000   0.00000006  -0.00000000          0.00      0.01     -0.00
   0.00000000  -0.00000000   0.00000006          0.00     -0.00      0.01


     bfgs converged in   8 scf cycles and   7 bfgs steps
     (criteria: energy <  1.0E-04 Ry, force <  1.0E-03Ry/Bohr, cell <  3.0E-01kbar)

     End of BFGS Geometry Optimization

     Final enthalpy =     -95.1036313797 Ry
Begin final coordinates
     new unit-cell volume =    235.58074 a.u.^3 (    34.90946 Ang^3 )
     density =      1.09357 g/cm^3

CELL_PARAMETERS (alat=  8.00000000)
  -0.612745230   0.000000000   0.612745230
  -0.000000000   0.612745230   0.612745230
  -0.612745230   0.612745230  -0.000000000

ATOMIC_POSITIONS (crystal)
Na       0.000000000   0.000000000   0.000000000
End final coordinates



     A final scf calculation at the relaxed structure.
     The G-vectors are recalculated for the final unit cell
     Results may differ from those at the preceding step.

     Parallelization info
     --------------------
     sticks:   dense  smooth     PW     G-vecs:    dense   smooth      PW
     Min         266     129     42                 5724     1996     367
     Max         268     130     43                 5725     1999     368
     Sum        1069     517    169                22899     7991    1471



     bravais-lattice index     =            2
     lattice parameter (alat)  =       8.0000  a.u.
     unit-cell volume          =     235.5807 (a.u.)^3
     number of atoms/cell      =            1
     number of atomic types    =            1
     number of electrons       =         9.00
     number of Kohn-Sham states=            9
     kinetic-energy cutoff     =      40.0000  Ry
     charge density cutoff     =     320.0000  Ry
     convergence threshold     =      1.0E-12
     mixing beta               =       0.7000
     number of iterations used =            8  plain     mixing
     Exchange-correlation      = SLA  PW   PBE  PBE ( 1  4  3  4 0 0)

     celldm(1)=   8.000000  celldm(2)=   0.000000  celldm(3)=   0.000000
     celldm(4)=   0.000000  celldm(5)=   0.000000  celldm(6)=   0.000000

     crystal axes: (cart. coord. in units of alat)
               a(1) = (  -0.612745   0.000000   0.612745 )  
               a(2) = (  -0.000000   0.612745   0.612745 )  
               a(3) = (  -0.612745   0.612745  -0.000000 )  

     reciprocal axes: (cart. coord. in units 2 pi/alat)
               b(1) = ( -0.816000 -0.816000  0.816000 )  
               b(2) = (  0.816000  0.816000  0.816000 )  
               b(3) = ( -0.816000  0.816000 -0.816000 )  


     PseudoPot. # 1 for Na read from file:
     /home/s1333534/quantum_espresso/qe-6.1/pseudo/Na_pbe_v1.uspp.F.UPF
     MD5 check sum: 76a99c7e9422403d3e93cbc85ab7bccb
     Pseudo is Ultrasoft, Zval =  9.0
     Generated by new atomic code, or converted to UPF format
     Using radial grid of  819 points,  5 beta functions with: 
                l(1) =   0
                l(2) =   0
                l(3) =   1
                l(4) =   1
                l(5) =   2
     Q(r) pseudized with  8 coefficients,  rinner =    1.250   1.250   1.250
                                                       1.250   1.250

     atomic species   valence    mass     pseudopotential
        Na             9.00    22.99000     Na( 1.00)

     48 Sym. Ops., with inversion, found



   Cartesian axes

     site n.     atom                  positions (alat units)
         1           Na  tau(   1) = (  -0.0000000   0.0000000   0.0000000  )

     number of k points=   280  Marzari-Vanderbilt smearing, width (Ry)=  0.0200

     Number of k-points >= 100: set verbosity='high' to print them.

     Dense  grid:    22899 G-vectors     FFT dimensions: (  40,  40,  40)

     Smooth grid:     7991 G-vectors     FFT dimensions: (  27,  27,  27)

     Estimated max dynamical RAM per process >      13.42MB

     Estimated total allocated dynamical RAM >      53.66MB

     Initial potential from superposition of free atoms

     starting charge    8.99371, renormalised to    9.00000
     Starting wfc are    5 randomized atomic wfcs +    4 random wfc

     Writing output data file na.fcc.save

     total cpu time spent up to now is      131.7 secs

     per-process dynamical memory:    25.6 Mb

     Self-consistent Calculation

     iteration #  1     ecut=    40.00 Ry     beta=0.70
     Davidson diagonalization with overlap
     c_bands:  1 eigenvalues not converged
     c_bands:  1 eigenvalues not converged
     c_bands:  1 eigenvalues not converged
     c_bands:  1 eigenvalues not converged
     c_bands:  1 eigenvalues not converged
     c_bands:  1 eigenvalues not converged
     ethr =  1.00E-06,  avg # of iterations = 11.4

     total cpu time spent up to now is      136.7 secs

     total energy              =     -95.10621210 Ry
     Harris-Foulkes estimate   =     -95.10644522 Ry
     estimated scf accuracy    <       0.00090747 Ry

     iteration #  2     ecut=    40.00 Ry     beta=0.70
     Davidson diagonalization with overlap
     ethr =  1.01E-05,  avg # of iterations =  2.0

     total cpu time spent up to now is      138.4 secs

     total energy              =     -95.10631899 Ry
     Harris-Foulkes estimate   =     -95.10634317 Ry
     estimated scf accuracy    <       0.00010196 Ry

     iteration #  3     ecut=    40.00 Ry     beta=0.70
     Davidson diagonalization with overlap
     ethr =  1.13E-06,  avg # of iterations =  2.0

     total cpu time spent up to now is      140.1 secs

     total energy              =     -95.10633033 Ry
     Harris-Foulkes estimate   =     -95.10633159 Ry
     estimated scf accuracy    <       0.00000634 Ry

     iteration #  4     ecut=    40.00 Ry     beta=0.70
     Davidson diagonalization with overlap
     ethr =  7.05E-08,  avg # of iterations =  1.0

     total cpu time spent up to now is      141.6 secs

     total energy              =     -95.10633091 Ry
     Harris-Foulkes estimate   =     -95.10633086 Ry
     estimated scf accuracy    <          8.2E-09 Ry

     iteration #  5     ecut=    40.00 Ry     beta=0.70
     Davidson diagonalization with overlap
     ethr =  9.12E-11,  avg # of iterations =  3.0

     total cpu time spent up to now is      143.7 secs

     total energy              =     -95.10633095 Ry
     Harris-Foulkes estimate   =     -95.10633094 Ry
     estimated scf accuracy    <          1.6E-09 Ry

     iteration #  6     ecut=    40.00 Ry     beta=0.70
     Davidson diagonalization with overlap
     ethr =  1.77E-11,  avg # of iterations =  1.6

     total cpu time spent up to now is      145.2 secs

     total energy              =     -95.10633095 Ry
     Harris-Foulkes estimate   =     -95.10633095 Ry
     estimated scf accuracy    <          2.8E-11 Ry

     iteration #  7     ecut=    40.00 Ry     beta=0.70
     Davidson diagonalization with overlap
     ethr =  3.13E-13,  avg # of iterations =  2.0

     total cpu time spent up to now is      146.9 secs

     total energy              =     -95.10633095 Ry
     Harris-Foulkes estimate   =     -95.10633095 Ry
     estimated scf accuracy    <          3.7E-12 Ry

     iteration #  8     ecut=    40.00 Ry     beta=0.70
     Davidson diagonalization with overlap
     ethr =  1.00E-13,  avg # of iterations =  1.6

     total cpu time spent up to now is      148.5 secs

     End of self-consistent calculation

     Number of k-points >= 100: set verbosity='high' to print the bands.

     the Fermi energy is     1.8607 ev

!    total energy              =     -95.10633095 Ry
     Harris-Foulkes estimate   =     -95.10633095 Ry
     estimated scf accuracy    <          2.3E-13 Ry

     The total energy is the sum of the following terms:

     one-electron contribution =     -86.82769764 Ry
     hartree contribution      =      43.87793273 Ry
     xc contribution           =     -14.27637143 Ry
     ewald contribution        =     -37.88012232 Ry
     smearing contrib. (-TS)   =      -0.00007228 Ry

     convergence has been achieved in   8 iterations

     Forces acting on atoms (cartesian axes, Ry/au):

     atom    1 type  1   force =     0.00000000    0.00000000    0.00000000

     Total force =     0.000000     Total SCF correction =     0.000000


     Computing stress (Cartesian axis) and pressure

          total   stress  (Ry/bohr**3)                   (kbar)     P=    2.24
   0.00001521   0.00000000  -0.00000000          2.24      0.00     -0.00
  -0.00000000   0.00001521   0.00000000         -0.00      2.24      0.00
  -0.00000000   0.00000000   0.00001521         -0.00      0.00      2.24


     Writing output data file na.fcc.save

     init_run     :      1.55s CPU      1.71s WALL (       2 calls)
     electrons    :    133.33s CPU    139.63s WALL (       9 calls)
     update_pot   :      0.85s CPU      0.85s WALL (       7 calls)
     forces       :      0.81s CPU      0.82s WALL (       9 calls)
     stress       :      3.69s CPU      3.71s WALL (       9 calls)

     Called by init_run:
     wfcinit      :      0.87s CPU      0.96s WALL (       2 calls)
     potinit      :      0.07s CPU      0.07s WALL (       2 calls)

     Called by electrons:
     c_bands      :    108.98s CPU    114.38s WALL (     130 calls)
     sum_band     :     22.16s CPU     23.01s WALL (     130 calls)
     v_of_rho     :      1.09s CPU      1.11s WALL (     138 calls)
     newd         :      1.06s CPU      1.07s WALL (     138 calls)
     mix_rho      :      0.09s CPU      0.10s WALL (     130 calls)

     Called by c_bands:
     init_us_2    :      4.76s CPU      4.97s WALL (   78400 calls)
     cegterg      :    104.00s CPU    109.15s WALL (   36400 calls)

     Called by sum_band:
     sum_band:bec :      0.11s CPU      0.11s WALL (   36400 calls)
     addusdens    :      1.29s CPU      1.30s WALL (     130 calls)

     Called by *egterg:
     h_psi        :     82.20s CPU     86.27s WALL (  108576 calls)
     s_psi        :      1.00s CPU      1.05s WALL (  108576 calls)
     g_psi        :      0.58s CPU      0.61s WALL (   71616 calls)
     cdiaghg      :     12.90s CPU     13.58s WALL (  105776 calls)

     Called by h_psi:
     h_psi:pot    :     81.75s CPU     85.79s WALL (  108576 calls)
     h_psi:calbec :      1.78s CPU      1.87s WALL (  108576 calls)
     vloc_psi     :     78.51s CPU     82.38s WALL (  108576 calls)
     add_vuspsi   :      1.13s CPU      1.20s WALL (  108576 calls)

     General routines
     calbec       :      2.44s CPU      2.57s WALL (  157576 calls)
     fft          :      0.49s CPU      0.54s WALL (    2255 calls)
     ffts         :      0.02s CPU      0.02s WALL (     268 calls)
     fftw         :     81.64s CPU     85.48s WALL ( 1922338 calls)
     interpolate  :      0.08s CPU      0.09s WALL (     268 calls)
     davcio       :      0.00s CPU      0.01s WALL (     560 calls)

     Parallel routines
     fft_scatter  :     14.74s CPU     15.54s WALL ( 1924861 calls)

     PWSCF        :  2m22.69s CPU     2m29.45s WALL


   This run was terminated on:  18:39:47  26Jan2018            

=------------------------------------------------------------------------------=
   JOB DONE.
=------------------------------------------------------------------------------=
