
     Program PWSCF v.6.1 (svn rev. 13369) starts on 20Dec2017 at 11:18:15 

     This program is part of the open-source Quantum ESPRESSO suite
     for quantum simulation of materials; please cite
         "P. Giannozzi et al., J. Phys.:Condens. Matter 21 395502 (2009);
          URL http://www.quantum-espresso.org", 
     in publications or presentations arising from this work. More details at
     http://www.quantum-espresso.org/quote

     Parallel version (MPI), running on     4 processors
     R & G space division:  proc/nbgrp/npool/nimage =       4
     Waiting for input...
     Reading input from standard input

     Current dimensions of program PWSCF are:
     Max number of different atomic species (ntypx) = 10
     Max number of k-points (npk) =  40000
     Max angular momentum in pseudopotentials (lmaxx) =  3

     Subspace diagonalization in iterative solution of the eigenvalue problem:
     a serial algorithm will be used


     Parallelization info
     --------------------
     sticks:   dense  smooth     PW     G-vecs:    dense   smooth      PW
     Min         175      90     30                 3084     1095     234
     Max         176      91     31                 3086     1096     238
     Sum         703     361    121                12339     4381     941



     bravais-lattice index     =            2
     lattice parameter (alat)  =       8.0000  a.u.
     unit-cell volume          =     128.0000 (a.u.)^3
     number of atoms/cell      =            1
     number of atomic types    =            1
     number of electrons       =         9.00
     number of Kohn-Sham states=            9
     kinetic-energy cutoff     =      40.0000  Ry
     charge density cutoff     =     320.0000  Ry
     convergence threshold     =      1.0E-08
     mixing beta               =       0.7000
     number of iterations used =            8  plain     mixing
     Exchange-correlation      = SLA  PW   PBE  PBE ( 1  4  3  4 0 0)
     nstep                     =           50


     celldm(1)=   8.000000  celldm(2)=   0.000000  celldm(3)=   0.000000
     celldm(4)=   0.000000  celldm(5)=   0.000000  celldm(6)=   0.000000

     crystal axes: (cart. coord. in units of alat)
               a(1) = (  -0.500000   0.000000   0.500000 )  
               a(2) = (   0.000000   0.500000   0.500000 )  
               a(3) = (  -0.500000   0.500000   0.000000 )  

     reciprocal axes: (cart. coord. in units 2 pi/alat)
               b(1) = ( -1.000000 -1.000000  1.000000 )  
               b(2) = (  1.000000  1.000000  1.000000 )  
               b(3) = ( -1.000000  1.000000 -1.000000 )  


     PseudoPot. # 1 for Na read from file:
     /home/s1333534/quantum_espresso/qe-6.1/pseudo/Na_pbe_v1.uspp.F.UPF
     MD5 check sum: 76a99c7e9422403d3e93cbc85ab7bccb
     Pseudo is Ultrasoft, Zval =  9.0
     Generated by new atomic code, or converted to UPF format
     Using radial grid of  819 points,  5 beta functions with: 
                l(1) =   0
                l(2) =   0
                l(3) =   1
                l(4) =   1
                l(5) =   2
     Q(r) pseudized with  8 coefficients,  rinner =    1.250   1.250   1.250
                                                       1.250   1.250

     atomic species   valence    mass     pseudopotential
        Na             9.00    22.99000     Na( 1.00)

     48 Sym. Ops., with inversion, found



   Cartesian axes

     site n.     atom                  positions (alat units)
         1           Na  tau(   1) = (   0.0000000   0.0000000   0.0000000  )

     number of k points=   770  Marzari-Vanderbilt smearing, width (Ry)=  0.0200

     Number of k-points >= 100: set verbosity='high' to print them.

     Dense  grid:    12339 G-vectors     FFT dimensions: (  36,  36,  36)

     Smooth grid:     4381 G-vectors     FFT dimensions: (  24,  24,  24)

     Estimated max dynamical RAM per process >      16.64MB

     Estimated total allocated dynamical RAM >      66.55MB

     Initial potential from superposition of free atoms

     starting charge    8.99371, renormalised to    9.00000
     Starting wfc are    5 randomized atomic wfcs +    4 random wfc

     total cpu time spent up to now is        1.2 secs

     per-process dynamical memory:    24.8 Mb

     Self-consistent Calculation

     iteration #  1     ecut=    40.00 Ry     beta=0.70
     Davidson diagonalization with overlap
     ethr =  1.00E-02,  avg # of iterations =  5.1

     Threshold (ethr) on eigenvalues was too large:
     Diagonalizing with lowered threshold

     Davidson diagonalization with overlap
     ethr =  2.47E-05,  avg # of iterations =  2.4

     total cpu time spent up to now is        8.3 secs

     total energy              =     -95.06263719 Ry
     Harris-Foulkes estimate   =     -95.06346383 Ry
     estimated scf accuracy    <       0.00221907 Ry

     iteration #  2     ecut=    40.00 Ry     beta=0.70
     Davidson diagonalization with overlap
     ethr =  2.47E-05,  avg # of iterations =  2.0

     total cpu time spent up to now is       10.8 secs

     total energy              =     -95.06293327 Ry
     Harris-Foulkes estimate   =     -95.06299962 Ry
     estimated scf accuracy    <       0.00025023 Ry

     iteration #  3     ecut=    40.00 Ry     beta=0.70
     Davidson diagonalization with overlap
     ethr =  2.78E-06,  avg # of iterations =  2.1

     total cpu time spent up to now is       13.4 secs

     total energy              =     -95.06296602 Ry
     Harris-Foulkes estimate   =     -95.06296754 Ry
     estimated scf accuracy    <       0.00001446 Ry

     iteration #  4     ecut=    40.00 Ry     beta=0.70
     Davidson diagonalization with overlap
     ethr =  1.61E-07,  avg # of iterations =  1.0

     total cpu time spent up to now is       15.6 secs

     total energy              =     -95.06296732 Ry
     Harris-Foulkes estimate   =     -95.06296725 Ry
     estimated scf accuracy    <       0.00000002 Ry

     iteration #  5     ecut=    40.00 Ry     beta=0.70
     Davidson diagonalization with overlap
     ethr =  2.20E-10,  avg # of iterations =  3.0

     total cpu time spent up to now is       18.9 secs

     End of self-consistent calculation

     Number of k-points >= 100: set verbosity='high' to print the bands.

     the Fermi energy is     5.7098 ev

!    total energy              =     -95.06296737 Ry
     Harris-Foulkes estimate   =     -95.06296737 Ry
     estimated scf accuracy    <          2.7E-09 Ry

     The total energy is the sum of the following terms:

     one-electron contribution =     -72.01868817 Ry
     hartree contribution      =      37.75480527 Ry
     xc contribution           =     -14.37732448 Ry
     ewald contribution        =     -46.42172850 Ry
     smearing contrib. (-TS)   =      -0.00003149 Ry

     convergence has been achieved in   5 iterations

     Forces acting on atoms (cartesian axes, Ry/au):

     atom    1 type  1   force =     0.00000000    0.00000000    0.00000000

     Total force =     0.000000     Total SCF correction =     0.000000


     Computing stress (Cartesian axis) and pressure

          total   stress  (Ry/bohr**3)                   (kbar)     P=  175.59
   0.00119366   0.00000000   0.00000000        175.59      0.00      0.00
   0.00000000   0.00119366  -0.00000000          0.00    175.59     -0.00
   0.00000000  -0.00000000   0.00119366          0.00     -0.00    175.59


     BFGS Geometry Optimization

     number of scf cycles    =   1
     number of bfgs steps    =   0

     enthalpy new            =     -95.0107597825 Ry

     new trust radius        =       0.0444511176 bohr
     new conv_thr            =       0.0000000100 Ry

     new unit-cell volume =    135.69277 a.u.^3 (    20.10759 Ang^3 )
     density =      1.89858 g/cm^3

CELL_PARAMETERS (alat=  8.00000000)
  -0.509822402  -0.000000000   0.509822402
   0.000000000   0.509822402   0.509822402
  -0.509822402   0.509822402  -0.000000000

ATOMIC_POSITIONS (crystal)
Na       0.000000000   0.000000000   0.000000000



     Writing output data file na.fcc.save
     NEW-OLD atomic charge density approx. for the potential
     extrapolated charge    9.50988, renormalised to    9.00000

     total cpu time spent up to now is       20.7 secs

     per-process dynamical memory:    31.2 Mb

     Self-consistent Calculation

     iteration #  1     ecut=    40.00 Ry     beta=0.70
     Davidson diagonalization with overlap
     ethr =  1.00E-06,  avg # of iterations =  4.0

     total cpu time spent up to now is       25.2 secs

     total energy              =     -94.87358201 Ry
     Harris-Foulkes estimate   =     -91.76639472 Ry
     estimated scf accuracy    <       0.11061651 Ry

     iteration #  2     ecut=    40.00 Ry     beta=0.70
     Davidson diagonalization with overlap
     ethr =  1.23E-03,  avg # of iterations =  3.0

     total cpu time spent up to now is       28.7 secs

     total energy              =     -95.07863237 Ry
     Harris-Foulkes estimate   =     -95.15980314 Ry
     estimated scf accuracy    <       0.18464543 Ry

     iteration #  3     ecut=    40.00 Ry     beta=0.70
     Davidson diagonalization with overlap
     ethr =  1.23E-03,  avg # of iterations =  1.1

     total cpu time spent up to now is       30.9 secs

     total energy              =     -95.07578403 Ry
     Harris-Foulkes estimate   =     -95.08945266 Ry
     estimated scf accuracy    <       0.03998343 Ry

     iteration #  4     ecut=    40.00 Ry     beta=0.70
     Davidson diagonalization with overlap
     ethr =  4.44E-04,  avg # of iterations =  1.0

     total cpu time spent up to now is       33.1 secs

     total energy              =     -95.07526638 Ry
     Harris-Foulkes estimate   =     -95.07749210 Ry
     estimated scf accuracy    <       0.01334847 Ry

     iteration #  5     ecut=    40.00 Ry     beta=0.70
     Davidson diagonalization with overlap
     ethr =  1.48E-04,  avg # of iterations =  1.0

     total cpu time spent up to now is       35.3 secs

     total energy              =     -95.07313143 Ry
     Harris-Foulkes estimate   =     -95.07542971 Ry
     estimated scf accuracy    <       0.00898415 Ry

     iteration #  6     ecut=    40.00 Ry     beta=0.70
     Davidson diagonalization with overlap
     ethr =  9.98E-05,  avg # of iterations =  1.0

     total cpu time spent up to now is       37.6 secs

     total energy              =     -95.07059633 Ry
     Harris-Foulkes estimate   =     -95.07329549 Ry
     estimated scf accuracy    <       0.00447446 Ry

     iteration #  7     ecut=    40.00 Ry     beta=0.70
     Davidson diagonalization with overlap
     ethr =  4.97E-05,  avg # of iterations =  2.0

     total cpu time spent up to now is       40.1 secs

     total energy              =     -95.07122741 Ry
     Harris-Foulkes estimate   =     -95.07127640 Ry
     estimated scf accuracy    <       0.00012032 Ry

     iteration #  8     ecut=    40.00 Ry     beta=0.70
     Davidson diagonalization with overlap
     ethr =  1.34E-06,  avg # of iterations =  2.0

     total cpu time spent up to now is       42.6 secs

     total energy              =     -95.07121184 Ry
     Harris-Foulkes estimate   =     -95.07123671 Ry
     estimated scf accuracy    <       0.00002949 Ry

     iteration #  9     ecut=    40.00 Ry     beta=0.70
     Davidson diagonalization with overlap
     ethr =  3.28E-07,  avg # of iterations =  2.0

     total cpu time spent up to now is       45.4 secs

     total energy              =     -95.07121685 Ry
     Harris-Foulkes estimate   =     -95.07123716 Ry
     estimated scf accuracy    <       0.00002952 Ry

     iteration # 10     ecut=    40.00 Ry     beta=0.70
     Davidson diagonalization with overlap
     ethr =  3.28E-07,  avg # of iterations =  2.0

     total cpu time spent up to now is       48.1 secs

     total energy              =     -95.07122415 Ry
     Harris-Foulkes estimate   =     -95.07122401 Ry
     estimated scf accuracy    <       0.00000130 Ry

     iteration # 11     ecut=    40.00 Ry     beta=0.70
     Davidson diagonalization with overlap
     ethr =  1.44E-08,  avg # of iterations =  1.0

     total cpu time spent up to now is       50.3 secs

     total energy              =     -95.07122371 Ry
     Harris-Foulkes estimate   =     -95.07122424 Ry
     estimated scf accuracy    <       0.00000147 Ry

     iteration # 12     ecut=    40.00 Ry     beta=0.70
     Davidson diagonalization with overlap
     ethr =  1.44E-08,  avg # of iterations =  1.0

     total cpu time spent up to now is       52.5 secs

     total energy              =     -95.07122368 Ry
     Harris-Foulkes estimate   =     -95.07122379 Ry
     estimated scf accuracy    <       0.00000028 Ry

     iteration # 13     ecut=    40.00 Ry     beta=0.70
     Davidson diagonalization with overlap
     ethr =  3.07E-09,  avg # of iterations =  1.1

     total cpu time spent up to now is       54.7 secs

     total energy              =     -95.07122370 Ry
     Harris-Foulkes estimate   =     -95.07122370 Ry
     estimated scf accuracy    <       0.00000003 Ry

     iteration # 14     ecut=    40.00 Ry     beta=0.70
     Davidson diagonalization with overlap
     ethr =  3.12E-10,  avg # of iterations =  1.0

     total cpu time spent up to now is       57.0 secs

     End of self-consistent calculation

     Number of k-points >= 100: set verbosity='high' to print the bands.

     the Fermi energy is     5.2197 ev

!    total energy              =     -95.07122370 Ry
     Harris-Foulkes estimate   =     -95.07122370 Ry
     estimated scf accuracy    <          7.7E-09 Ry

     The total energy is the sum of the following terms:

     one-electron contribution =     -73.55373777 Ry
     hartree contribution      =      38.37556151 Ry
     xc contribution           =     -14.36566318 Ry
     ewald contribution        =     -45.52735256 Ry
     smearing contrib. (-TS)   =      -0.00003170 Ry

     convergence has been achieved in  14 iterations

     Forces acting on atoms (cartesian axes, Ry/au):

     atom    1 type  1   force =     0.00000000    0.00000000    0.00000000

     Total force =     0.000000     Total SCF correction =     0.000000


     Computing stress (Cartesian axis) and pressure

          total   stress  (Ry/bohr**3)                   (kbar)     P=  142.59
   0.00096934  -0.00000000  -0.00000000        142.59     -0.00     -0.00
  -0.00000000   0.00096934   0.00000000         -0.00    142.59      0.00
  -0.00000000   0.00000000   0.00096934         -0.00      0.00    142.59


     number of scf cycles    =   2
     number of bfgs steps    =   1

     enthalpy old            =     -95.0107597825 Ry
     enthalpy new            =     -95.0158784451 Ry

     CASE: enthalpy_new < enthalpy_old

     new trust radius        =       0.0493741720 bohr
     new conv_thr            =            1.0E-10 Ry

     new unit-cell volume =    144.50409 a.u.^3 (    21.41330 Ang^3 )
     density =      1.78281 g/cm^3

CELL_PARAMETERS (alat=  8.00000000)
  -0.520627045  -0.000000000   0.520627045
   0.000000000   0.520627045   0.520627045
  -0.520627045   0.520627045  -0.000000000

ATOMIC_POSITIONS (crystal)
Na       0.000000000   0.000000000   0.000000000



     Writing output data file na.fcc.save
     NEW-OLD atomic charge density approx. for the potential
     extrapolated charge    9.54840, renormalised to    9.00000

     total cpu time spent up to now is       58.8 secs

     per-process dynamical memory:    31.2 Mb

     Self-consistent Calculation

     iteration #  1     ecut=    40.00 Ry     beta=0.70
     Davidson diagonalization with overlap
     ethr =  1.00E-06,  avg # of iterations =  4.1

     total cpu time spent up to now is       63.3 secs

     total energy              =     -94.84316586 Ry
     Harris-Foulkes estimate   =     -91.44120882 Ry
     estimated scf accuracy    <       0.13185646 Ry

     iteration #  2     ecut=    40.00 Ry     beta=0.70
     Davidson diagonalization with overlap
     ethr =  1.47E-03,  avg # of iterations =  3.0

     total cpu time spent up to now is       66.8 secs

     total energy              =     -95.08792632 Ry
     Harris-Foulkes estimate   =     -95.18454934 Ry
     estimated scf accuracy    <       0.21964226 Ry

     iteration #  3     ecut=    40.00 Ry     beta=0.70
     Davidson diagonalization with overlap
     ethr =  1.47E-03,  avg # of iterations =  1.1

     total cpu time spent up to now is       69.0 secs

     total energy              =     -95.08407366 Ry
     Harris-Foulkes estimate   =     -95.10067349 Ry
     estimated scf accuracy    <       0.04795546 Ry

     iteration #  4     ecut=    40.00 Ry     beta=0.70
     Davidson diagonalization with overlap
     ethr =  5.33E-04,  avg # of iterations =  1.0

     total cpu time spent up to now is       71.2 secs

     total energy              =     -95.08330440 Ry
     Harris-Foulkes estimate   =     -95.08615012 Ry
     estimated scf accuracy    <       0.01578468 Ry

     iteration #  5     ecut=    40.00 Ry     beta=0.70
     Davidson diagonalization with overlap
     ethr =  1.75E-04,  avg # of iterations =  1.0

     total cpu time spent up to now is       73.4 secs

     total energy              =     -95.08077731 Ry
     Harris-Foulkes estimate   =     -95.08351881 Ry
     estimated scf accuracy    <       0.01016470 Ry

     iteration #  6     ecut=    40.00 Ry     beta=0.70
     Davidson diagonalization with overlap
     ethr =  1.13E-04,  avg # of iterations =  1.0

     total cpu time spent up to now is       75.6 secs

     total energy              =     -95.07793673 Ry
     Harris-Foulkes estimate   =     -95.08097844 Ry
     estimated scf accuracy    <       0.00485126 Ry

     iteration #  7     ecut=    40.00 Ry     beta=0.70
     Davidson diagonalization with overlap
     ethr =  5.39E-05,  avg # of iterations =  2.0

     total cpu time spent up to now is       78.3 secs

     total energy              =     -95.07874330 Ry
     Harris-Foulkes estimate   =     -95.07875929 Ry
     estimated scf accuracy    <       0.00006830 Ry

     iteration #  8     ecut=    40.00 Ry     beta=0.70
     Davidson diagonalization with overlap
     ethr =  7.59E-07,  avg # of iterations =  1.7

     total cpu time spent up to now is       80.7 secs

     total energy              =     -95.07871528 Ry
     Harris-Foulkes estimate   =     -95.07874569 Ry
     estimated scf accuracy    <       0.00003644 Ry

     iteration #  9     ecut=    40.00 Ry     beta=0.70
     Davidson diagonalization with overlap
     ethr =  4.05E-07,  avg # of iterations =  2.0

     total cpu time spent up to now is       83.5 secs

     total energy              =     -95.07874277 Ry
     Harris-Foulkes estimate   =     -95.07874776 Ry
     estimated scf accuracy    <       0.00004028 Ry

     iteration # 10     ecut=    40.00 Ry     beta=0.70
     Davidson diagonalization with overlap
     ethr =  4.05E-07,  avg # of iterations =  1.0

     total cpu time spent up to now is       85.7 secs

     total energy              =     -95.07872079 Ry
     Harris-Foulkes estimate   =     -95.07874296 Ry
     estimated scf accuracy    <       0.00002953 Ry

     iteration # 11     ecut=    40.00 Ry     beta=0.70
     Davidson diagonalization with overlap
     ethr =  3.28E-07,  avg # of iterations =  2.0

     total cpu time spent up to now is       88.4 secs

     total energy              =     -95.07872906 Ry
     Harris-Foulkes estimate   =     -95.07872982 Ry
     estimated scf accuracy    <       0.00000168 Ry

     iteration # 12     ecut=    40.00 Ry     beta=0.70
     Davidson diagonalization with overlap
     ethr =  1.87E-08,  avg # of iterations =  1.5

     total cpu time spent up to now is       90.7 secs

     total energy              =     -95.07872920 Ry
     Harris-Foulkes estimate   =     -95.07872923 Ry
     estimated scf accuracy    <       0.00000005 Ry

     iteration # 13     ecut=    40.00 Ry     beta=0.70
     Davidson diagonalization with overlap
     ethr =  5.25E-10,  avg # of iterations =  2.0

     total cpu time spent up to now is       93.5 secs

     total energy              =     -95.07872922 Ry
     Harris-Foulkes estimate   =     -95.07872922 Ry
     estimated scf accuracy    <          3.5E-09 Ry

     iteration # 14     ecut=    40.00 Ry     beta=0.70
     Davidson diagonalization with overlap
     ethr =  3.89E-11,  avg # of iterations =  1.0

     total cpu time spent up to now is       95.7 secs

     total energy              =     -95.07872922 Ry
     Harris-Foulkes estimate   =     -95.07872922 Ry
     estimated scf accuracy    <          1.7E-09 Ry

     iteration # 15     ecut=    40.00 Ry     beta=0.70
     Davidson diagonalization with overlap
     ethr =  1.91E-11,  avg # of iterations =  2.0

     total cpu time spent up to now is       98.4 secs

     total energy              =     -95.07872922 Ry
     Harris-Foulkes estimate   =     -95.07872922 Ry
     estimated scf accuracy    <          2.5E-10 Ry

     iteration # 16     ecut=    40.00 Ry     beta=0.70
     Davidson diagonalization with overlap
     ethr =  2.83E-12,  avg # of iterations =  1.0

     total cpu time spent up to now is      100.6 secs

     End of self-consistent calculation

     Number of k-points >= 100: set verbosity='high' to print the bands.

     the Fermi energy is     4.7256 ev

!    total energy              =     -95.07872922 Ry
     Harris-Foulkes estimate   =     -95.07872922 Ry
     estimated scf accuracy    <          3.7E-11 Ry

     The total energy is the sum of the following terms:

     one-electron contribution =     -75.17871946 Ry
     hartree contribution      =      39.03605993 Ry
     xc contribution           =     -14.35352011 Ry
     ewald contribution        =     -44.58251735 Ry
     smearing contrib. (-TS)   =      -0.00003223 Ry

     convergence has been achieved in  16 iterations

     Forces acting on atoms (cartesian axes, Ry/au):

     atom    1 type  1   force =     0.00000000    0.00000000    0.00000000

     Total force =     0.000000     Total SCF correction =     0.000000


     Computing stress (Cartesian axis) and pressure

          total   stress  (Ry/bohr**3)                   (kbar)     P=  110.69
   0.00075242  -0.00000000  -0.00000000        110.69     -0.00     -0.00
  -0.00000000   0.00075242   0.00000000         -0.00    110.69      0.00
  -0.00000000   0.00000000   0.00075242         -0.00      0.00    110.69


     number of scf cycles    =   3
     number of bfgs steps    =   2

     enthalpy old            =     -95.0158784451 Ry
     enthalpy new            =     -95.0197900789 Ry

     CASE: enthalpy_new < enthalpy_old

     new trust radius        =       0.0748419318 bohr
     new conv_thr            =            1.0E-10 Ry

     new unit-cell volume =    158.42365 a.u.^3 (    23.47596 Ang^3 )
     density =      1.62617 g/cm^3

CELL_PARAMETERS (alat=  8.00000000)
  -0.536834008   0.000000000   0.536834008
  -0.000000000   0.536834008   0.536834008
  -0.536834008   0.536834008  -0.000000000

ATOMIC_POSITIONS (crystal)
Na       0.000000000   0.000000000   0.000000000



     Writing output data file na.fcc.save
     NEW-OLD atomic charge density approx. for the potential
     extrapolated charge    9.79021, renormalised to    9.00000

     total cpu time spent up to now is      102.5 secs

     per-process dynamical memory:    31.2 Mb

     Self-consistent Calculation

     iteration #  1     ecut=    40.00 Ry     beta=0.70
     Davidson diagonalization with overlap
     ethr =  1.00E-06,  avg # of iterations =  4.6

     total cpu time spent up to now is      107.3 secs

     total energy              =     -94.52407129 Ry
     Harris-Foulkes estimate   =     -89.67620597 Ry
     estimated scf accuracy    <       0.31701971 Ry

     iteration #  2     ecut=    40.00 Ry     beta=0.70
     Davidson diagonalization with overlap
     ethr =  3.52E-03,  avg # of iterations =  3.0

     total cpu time spent up to now is      110.6 secs

     total energy              =     -95.11478043 Ry
     Harris-Foulkes estimate   =     -95.34436838 Ry
     estimated scf accuracy    <       0.51905892 Ry

     iteration #  3     ecut=    40.00 Ry     beta=0.70
     Davidson diagonalization with overlap
     ethr =  3.52E-03,  avg # of iterations =  1.0

     total cpu time spent up to now is      112.9 secs

     total energy              =     -95.09976814 Ry
     Harris-Foulkes estimate   =     -95.14312007 Ry
     estimated scf accuracy    <       0.11910138 Ry

     iteration #  4     ecut=    40.00 Ry     beta=0.70
     Davidson diagonalization with overlap
     ethr =  1.32E-03,  avg # of iterations =  1.0

     total cpu time spent up to now is      115.1 secs

     total energy              =     -95.09773605 Ry
     Harris-Foulkes estimate   =     -95.10515700 Ry
     estimated scf accuracy    <       0.03725869 Ry

     iteration #  5     ecut=    40.00 Ry     beta=0.70
     Davidson diagonalization with overlap
     ethr =  4.14E-04,  avg # of iterations =  1.0

     total cpu time spent up to now is      117.3 secs

     total energy              =     -95.09078812 Ry
     Harris-Foulkes estimate   =     -95.09830904 Ry
     estimated scf accuracy    <       0.02267352 Ry

     iteration #  6     ecut=    40.00 Ry     beta=0.70
     Davidson diagonalization with overlap
     ethr =  2.52E-04,  avg # of iterations =  1.0

     total cpu time spent up to now is      119.5 secs

     total energy              =     -95.08564452 Ry
     Harris-Foulkes estimate   =     -95.09146648 Ry
     estimated scf accuracy    <       0.00863920 Ry

     iteration #  7     ecut=    40.00 Ry     beta=0.70
     Davidson diagonalization with overlap
     ethr =  9.60E-05,  avg # of iterations =  2.0

     total cpu time spent up to now is      122.2 secs

     total energy              =     -95.08744408 Ry
     Harris-Foulkes estimate   =     -95.08744233 Ry
     estimated scf accuracy    <       0.00001256 Ry

     iteration #  8     ecut=    40.00 Ry     beta=0.70
     Davidson diagonalization with overlap
     ethr =  1.40E-07,  avg # of iterations =  2.7

     total cpu time spent up to now is      125.4 secs

     total energy              =     -95.08744111 Ry
     Harris-Foulkes estimate   =     -95.08745626 Ry
     estimated scf accuracy    <       0.00005158 Ry

     iteration #  9     ecut=    40.00 Ry     beta=0.70
     Davidson diagonalization with overlap
     ethr =  1.40E-07,  avg # of iterations =  2.0

     total cpu time spent up to now is      128.1 secs

     total energy              =     -95.08744253 Ry
     Harris-Foulkes estimate   =     -95.08744301 Ry
     estimated scf accuracy    <       0.00000887 Ry

     iteration # 10     ecut=    40.00 Ry     beta=0.70
     Davidson diagonalization with overlap
     ethr =  9.85E-08,  avg # of iterations =  1.0

     total cpu time spent up to now is      130.3 secs

     total energy              =     -95.08743922 Ry
     Harris-Foulkes estimate   =     -95.08744268 Ry
     estimated scf accuracy    <       0.00000487 Ry

     iteration # 11     ecut=    40.00 Ry     beta=0.70
     Davidson diagonalization with overlap
     ethr =  5.42E-08,  avg # of iterations =  2.0

     total cpu time spent up to now is      133.0 secs

     total energy              =     -95.08744032 Ry
     Harris-Foulkes estimate   =     -95.08744033 Ry
     estimated scf accuracy    <       0.00000007 Ry

     iteration # 12     ecut=    40.00 Ry     beta=0.70
     Davidson diagonalization with overlap
     ethr =  7.66E-10,  avg # of iterations =  1.0

     total cpu time spent up to now is      135.2 secs

     total energy              =     -95.08744029 Ry
     Harris-Foulkes estimate   =     -95.08744032 Ry
     estimated scf accuracy    <       0.00000004 Ry

     iteration # 13     ecut=    40.00 Ry     beta=0.70
     Davidson diagonalization with overlap
     ethr =  4.26E-10,  avg # of iterations =  2.0

     total cpu time spent up to now is      138.0 secs

     total energy              =     -95.08744030 Ry
     Harris-Foulkes estimate   =     -95.08744031 Ry
     estimated scf accuracy    <       0.00000001 Ry

     iteration # 14     ecut=    40.00 Ry     beta=0.70
     Davidson diagonalization with overlap
     ethr =  1.26E-10,  avg # of iterations =  2.0

     total cpu time spent up to now is      140.8 secs

     total energy              =     -95.08744030 Ry
     Harris-Foulkes estimate   =     -95.08744031 Ry
     estimated scf accuracy    <          3.8E-09 Ry

     iteration # 15     ecut=    40.00 Ry     beta=0.70
     Davidson diagonalization with overlap
     ethr =  4.20E-11,  avg # of iterations =  2.0

     total cpu time spent up to now is      143.4 secs

     End of self-consistent calculation

     Number of k-points >= 100: set verbosity='high' to print the bands.

     the Fermi energy is     4.0623 ev

!    total energy              =     -95.08744031 Ry
     Harris-Foulkes estimate   =     -95.08744031 Ry
     estimated scf accuracy    <          1.6E-12 Ry

     The total energy is the sum of the following terms:

     one-electron contribution =     -77.50152092 Ry
     hartree contribution      =      39.98768622 Ry
     xc contribution           =     -14.33699636 Ry
     ewald contribution        =     -43.23657572 Ry
     smearing contrib. (-TS)   =      -0.00003351 Ry

     convergence has been achieved in  15 iterations

     Forces acting on atoms (cartesian axes, Ry/au):

     atom    1 type  1   force =     0.00000000    0.00000000    0.00000000

     Total force =     0.000000     Total SCF correction =     0.000000


     Computing stress (Cartesian axis) and pressure

          total   stress  (Ry/bohr**3)                   (kbar)     P=   75.90
   0.00051598  -0.00000000  -0.00000000         75.90     -0.00     -0.00
  -0.00000000   0.00051598   0.00000000         -0.00     75.90      0.00
  -0.00000000   0.00000000   0.00051598         -0.00      0.00     75.90


     number of scf cycles    =   4
     number of bfgs steps    =   3

     enthalpy old            =     -95.0197900789 Ry
     enthalpy new            =     -95.0228237691 Ry

     CASE: enthalpy_new < enthalpy_old

     new trust radius        =       0.0380449356 bohr
     new conv_thr            =            1.0E-10 Ry

     new unit-cell volume =    165.71563 a.u.^3 (    24.55652 Ang^3 )
     density =      1.55461 g/cm^3

CELL_PARAMETERS (alat=  8.00000000)
  -0.544947296   0.000000000   0.544947296
  -0.000000000   0.544947296   0.544947296
  -0.544947296   0.544947296   0.000000000

ATOMIC_POSITIONS (crystal)
Na       0.000000000   0.000000000   0.000000000



     Writing output data file na.fcc.save
     NEW-OLD atomic charge density approx. for the potential
     extrapolated charge    9.39575, renormalised to    9.00000

     total cpu time spent up to now is      145.2 secs

     per-process dynamical memory:    31.5 Mb

     Self-consistent Calculation

     iteration #  1     ecut=    40.00 Ry     beta=0.70
     Davidson diagonalization with overlap
     ethr =  1.00E-06,  avg # of iterations =  3.8

     total cpu time spent up to now is      149.6 secs

     total energy              =     -94.97402957 Ry
     Harris-Foulkes estimate   =     -92.34028063 Ry
     estimated scf accuracy    <       0.06520753 Ry

     iteration #  2     ecut=    40.00 Ry     beta=0.70
     Davidson diagonalization with overlap
     ethr =  7.25E-04,  avg # of iterations =  3.0

     total cpu time spent up to now is      153.1 secs

     total energy              =     -95.09478459 Ry
     Harris-Foulkes estimate   =     -95.14277323 Ry
     estimated scf accuracy    <       0.10928257 Ry

     iteration #  3     ecut=    40.00 Ry     beta=0.70
     Davidson diagonalization with overlap
     ethr =  7.25E-04,  avg # of iterations =  1.2

     total cpu time spent up to now is      155.4 secs

     total energy              =     -95.09349899 Ry
     Harris-Foulkes estimate   =     -95.10136159 Ry
     estimated scf accuracy    <       0.02310810 Ry

     iteration #  4     ecut=    40.00 Ry     beta=0.70
     Davidson diagonalization with overlap
     ethr =  2.57E-04,  avg # of iterations =  1.0

     total cpu time spent up to now is      157.6 secs

     total energy              =     -95.09259144 Ry
     Harris-Foulkes estimate   =     -95.09447740 Ry
     estimated scf accuracy    <       0.00774200 Ry

     iteration #  5     ecut=    40.00 Ry     beta=0.70
     Davidson diagonalization with overlap
     ethr =  8.60E-05,  avg # of iterations =  1.0

     total cpu time spent up to now is      159.8 secs

     total energy              =     -95.09131621 Ry
     Harris-Foulkes estimate   =     -95.09275128 Ry
     estimated scf accuracy    <       0.00398509 Ry

     iteration #  6     ecut=    40.00 Ry     beta=0.70
     Davidson diagonalization with overlap
     ethr =  4.43E-05,  avg # of iterations =  1.0

     total cpu time spent up to now is      162.0 secs

     total energy              =     -95.09063946 Ry
     Harris-Foulkes estimate   =     -95.09146247 Ry
     estimated scf accuracy    <       0.00130671 Ry

     iteration #  7     ecut=    40.00 Ry     beta=0.70
     Davidson diagonalization with overlap
     ethr =  1.45E-05,  avg # of iterations =  2.1

     total cpu time spent up to now is      164.7 secs

     total energy              =     -95.09087984 Ry
     Harris-Foulkes estimate   =     -95.09086969 Ry
     estimated scf accuracy    <       0.00001404 Ry

     iteration #  8     ecut=    40.00 Ry     beta=0.70
     Davidson diagonalization with overlap
     ethr =  1.56E-07,  avg # of iterations =  2.1

     total cpu time spent up to now is      167.2 secs

     total energy              =     -95.09085588 Ry
     Harris-Foulkes estimate   =     -95.09088155 Ry
     estimated scf accuracy    <       0.00003897 Ry

     iteration #  9     ecut=    40.00 Ry     beta=0.70
     Davidson diagonalization with overlap
     ethr =  1.56E-07,  avg # of iterations =  2.0

     total cpu time spent up to now is      170.0 secs

     total energy              =     -95.09086352 Ry
     Harris-Foulkes estimate   =     -95.09086354 Ry
     estimated scf accuracy    <       0.00000005 Ry

     iteration # 10     ecut=    40.00 Ry     beta=0.70
     Davidson diagonalization with overlap
     ethr =  5.34E-10,  avg # of iterations =  3.0

     total cpu time spent up to now is      173.1 secs

     total energy              =     -95.09086345 Ry
     Harris-Foulkes estimate   =     -95.09086363 Ry
     estimated scf accuracy    <       0.00000023 Ry

     iteration # 11     ecut=    40.00 Ry     beta=0.70
     Davidson diagonalization with overlap
     ethr =  5.34E-10,  avg # of iterations =  2.3

     total cpu time spent up to now is      176.0 secs

     total energy              =     -95.09086352 Ry
     Harris-Foulkes estimate   =     -95.09086353 Ry
     estimated scf accuracy    <       0.00000001 Ry

     iteration # 12     ecut=    40.00 Ry     beta=0.70
     Davidson diagonalization with overlap
     ethr =  1.39E-10,  avg # of iterations =  1.0

     total cpu time spent up to now is      178.2 secs

     total energy              =     -95.09086352 Ry
     Harris-Foulkes estimate   =     -95.09086352 Ry
     estimated scf accuracy    <          1.9E-09 Ry

     iteration # 13     ecut=    40.00 Ry     beta=0.70
     Davidson diagonalization with overlap
     ethr =  2.15E-11,  avg # of iterations =  1.4

     total cpu time spent up to now is      180.5 secs

     total energy              =     -95.09086352 Ry
     Harris-Foulkes estimate   =     -95.09086352 Ry
     estimated scf accuracy    <          3.6E-10 Ry

     iteration # 14     ecut=    40.00 Ry     beta=0.70
     Davidson diagonalization with overlap
     ethr =  4.04E-12,  avg # of iterations =  1.0

     total cpu time spent up to now is      182.7 secs

     total energy              =     -95.09086352 Ry
     Harris-Foulkes estimate   =     -95.09086352 Ry
     estimated scf accuracy    <          1.6E-10 Ry

     iteration # 15     ecut=    40.00 Ry     beta=0.70
     Davidson diagonalization with overlap
     ethr =  1.82E-12,  avg # of iterations =  2.0

     total cpu time spent up to now is      185.4 secs

     End of self-consistent calculation

     Number of k-points >= 100: set verbosity='high' to print the bands.

     the Fermi energy is     3.7615 ev

!    total energy              =     -95.09086352 Ry
     Harris-Foulkes estimate   =     -95.09086352 Ry
     estimated scf accuracy    <          2.3E-11 Ry

     The total energy is the sum of the following terms:

     one-electron contribution =     -78.61560036 Ry
     hartree contribution      =      40.44700014 Ry
     xc contribution           =     -14.32936828 Ry
     ewald contribution        =     -42.59286068 Ry
     smearing contrib. (-TS)   =      -0.00003435 Ry

     convergence has been achieved in  15 iterations

     Forces acting on atoms (cartesian axes, Ry/au):

     atom    1 type  1   force =     0.00000000    0.00000000    0.00000000

     Total force =     0.000000     Total SCF correction =     0.000000


     Computing stress (Cartesian axis) and pressure

          total   stress  (Ry/bohr**3)                   (kbar)     P=   62.67
   0.00042604  -0.00000000   0.00000000         62.67     -0.00      0.00
  -0.00000000   0.00042604   0.00000000         -0.00     62.67      0.00
  -0.00000000   0.00000000   0.00042604         -0.00      0.00     62.67


     number of scf cycles    =   5
     number of bfgs steps    =   4

     enthalpy old            =     -95.0228237691 Ry
     enthalpy new            =     -95.0232727940 Ry

     CASE: enthalpy_new < enthalpy_old

     new trust radius        =       0.0080297177 bohr
     new conv_thr            =            1.0E-10 Ry

     new unit-cell volume =    167.27097 a.u.^3 (    24.78700 Ang^3 )
     density =      1.54015 g/cm^3

CELL_PARAMETERS (alat=  8.00000000)
  -0.546646882   0.000000000   0.546646882
  -0.000000000   0.546646882   0.546646882
  -0.546646882   0.546646882   0.000000000

ATOMIC_POSITIONS (crystal)
Na       0.000000000   0.000000000   0.000000000



     Writing output data file na.fcc.save
     NEW-OLD atomic charge density approx. for the potential
     extrapolated charge    9.08363, renormalised to    9.00000

     total cpu time spent up to now is      187.3 secs

     per-process dynamical memory:    31.5 Mb

     Self-consistent Calculation

     iteration #  1     ecut=    40.00 Ry     beta=0.70
     Davidson diagonalization with overlap
     ethr =  1.00E-06,  avg # of iterations =  2.8

     total cpu time spent up to now is      190.8 secs

     total energy              =     -95.08692843 Ry
     Harris-Foulkes estimate   =     -94.51035341 Ry
     estimated scf accuracy    <       0.00256540 Ry

     iteration #  2     ecut=    40.00 Ry     beta=0.70
     Davidson diagonalization with overlap
     ethr =  2.85E-05,  avg # of iterations =  2.9

     total cpu time spent up to now is      194.3 secs

     total energy              =     -95.09161305 Ry
     Harris-Foulkes estimate   =     -95.09350572 Ry
     estimated scf accuracy    <       0.00431519 Ry

     iteration #  3     ecut=    40.00 Ry     beta=0.70
     Davidson diagonalization with overlap
     ethr =  2.85E-05,  avg # of iterations =  1.5

     total cpu time spent up to now is      196.7 secs

     total energy              =     -95.09162335 Ry
     Harris-Foulkes estimate   =     -95.09189284 Ry
     estimated scf accuracy    <       0.00085032 Ry

     iteration #  4     ecut=    40.00 Ry     beta=0.70
     Davidson diagonalization with overlap
     ethr =  9.45E-06,  avg # of iterations =  1.0

     total cpu time spent up to now is      198.9 secs

     total energy              =     -95.09157167 Ry
     Harris-Foulkes estimate   =     -95.09165595 Ry
     estimated scf accuracy    <       0.00030974 Ry

     iteration #  5     ecut=    40.00 Ry     beta=0.70
     Davidson diagonalization with overlap
     ethr =  3.44E-06,  avg # of iterations =  1.0

     total cpu time spent up to now is      201.1 secs

     total energy              =     -95.09153650 Ry
     Harris-Foulkes estimate   =     -95.09157929 Ry
     estimated scf accuracy    <       0.00014189 Ry

     iteration #  6     ecut=    40.00 Ry     beta=0.70
     Davidson diagonalization with overlap
     ethr =  1.58E-06,  avg # of iterations =  1.0

     total cpu time spent up to now is      203.3 secs

     total energy              =     -95.09150406 Ry
     Harris-Foulkes estimate   =     -95.09154017 Ry
     estimated scf accuracy    <       0.00005906 Ry

     iteration #  7     ecut=    40.00 Ry     beta=0.70
     Davidson diagonalization with overlap
     ethr =  6.56E-07,  avg # of iterations =  2.0

     total cpu time spent up to now is      205.9 secs

     total energy              =     -95.09151317 Ry
     Harris-Foulkes estimate   =     -95.09151348 Ry
     estimated scf accuracy    <       0.00000110 Ry

     iteration #  8     ecut=    40.00 Ry     beta=0.70
     Davidson diagonalization with overlap
     ethr =  1.23E-08,  avg # of iterations =  1.0

     total cpu time spent up to now is      208.1 secs

     total energy              =     -95.09151289 Ry
     Harris-Foulkes estimate   =     -95.09151321 Ry
     estimated scf accuracy    <       0.00000049 Ry

     iteration #  9     ecut=    40.00 Ry     beta=0.70
     Davidson diagonalization with overlap
     ethr =  5.41E-09,  avg # of iterations =  2.0

     total cpu time spent up to now is      210.9 secs

     total energy              =     -95.09151299 Ry
     Harris-Foulkes estimate   =     -95.09151299 Ry
     estimated scf accuracy    <          7.2E-10 Ry

     iteration # 10     ecut=    40.00 Ry     beta=0.70
     Davidson diagonalization with overlap
     ethr =  7.99E-12,  avg # of iterations =  2.0

     total cpu time spent up to now is      213.6 secs

     total energy              =     -95.09151299 Ry
     Harris-Foulkes estimate   =     -95.09151299 Ry
     estimated scf accuracy    <          5.3E-09 Ry

     iteration # 11     ecut=    40.00 Ry     beta=0.70
     Davidson diagonalization with overlap
     ethr =  7.99E-12,  avg # of iterations =  2.0

     total cpu time spent up to now is      216.4 secs

     total energy              =     -95.09151299 Ry
     Harris-Foulkes estimate   =     -95.09151299 Ry
     estimated scf accuracy    <          5.5E-10 Ry

     iteration # 12     ecut=    40.00 Ry     beta=0.70
     Davidson diagonalization with overlap
     ethr =  6.14E-12,  avg # of iterations =  1.0

     total cpu time spent up to now is      218.6 secs

     total energy              =     -95.09151299 Ry
     Harris-Foulkes estimate   =     -95.09151299 Ry
     estimated scf accuracy    <          1.7E-10 Ry

     iteration # 13     ecut=    40.00 Ry     beta=0.70
     Davidson diagonalization with overlap
     ethr =  1.92E-12,  avg # of iterations =  2.0

     total cpu time spent up to now is      221.3 secs

     End of self-consistent calculation

     Number of k-points >= 100: set verbosity='high' to print the bands.

     the Fermi energy is     3.7009 ev

!    total energy              =     -95.09151299 Ry
     Harris-Foulkes estimate   =     -95.09151299 Ry
     estimated scf accuracy    <          5.5E-12 Ry

     The total energy is the sum of the following terms:

     one-electron contribution =     -78.84504027 Ry
     hartree contribution      =      40.54181588 Ry
     xc contribution           =     -14.32781931 Ry
     ewald contribution        =     -42.46043476 Ry
     smearing contrib. (-TS)   =      -0.00003454 Ry

     convergence has been achieved in  13 iterations

     Forces acting on atoms (cartesian axes, Ry/au):

     atom    1 type  1   force =     0.00000000    0.00000000    0.00000000

     Total force =     0.000000     Total SCF correction =     0.000000


     Computing stress (Cartesian axis) and pressure

          total   stress  (Ry/bohr**3)                   (kbar)     P=   60.17
   0.00040902   0.00000000  -0.00000000         60.17      0.00     -0.00
   0.00000000   0.00040902   0.00000000          0.00     60.17      0.00
  -0.00000000   0.00000000   0.00040902         -0.00      0.00     60.17


     bfgs converged in   6 scf cycles and   5 bfgs steps
     (criteria: energy <  1.0E-04 Ry, force <  1.0E-03Ry/Bohr, cell <  5.0E-01kbar)

     End of BFGS Geometry Optimization

     Final enthalpy =     -95.0232878796 Ry
Begin final coordinates
     new unit-cell volume =    167.27097 a.u.^3 (    24.78700 Ang^3 )
     density =      1.54015 g/cm^3

CELL_PARAMETERS (alat=  8.00000000)
  -0.546646882   0.000000000   0.546646882
  -0.000000000   0.546646882   0.546646882
  -0.546646882   0.546646882   0.000000000

ATOMIC_POSITIONS (crystal)
Na       0.000000000   0.000000000   0.000000000
End final coordinates



     A final scf calculation at the relaxed structure.
     The G-vectors are recalculated for the final unit cell
     Results may differ from those at the preceding step.

     Parallelization info
     --------------------
     sticks:   dense  smooth     PW     G-vecs:    dense   smooth      PW
     Min         211     105     37                 4088     1441     301
     Max         212     106     38                 4091     1445     304
     Sum         847     421    151                16361     5769    1211



     bravais-lattice index     =            2
     lattice parameter (alat)  =       8.0000  a.u.
     unit-cell volume          =     167.2710 (a.u.)^3
     number of atoms/cell      =            1
     number of atomic types    =            1
     number of electrons       =         9.00
     number of Kohn-Sham states=            9
     kinetic-energy cutoff     =      40.0000  Ry
     charge density cutoff     =     320.0000  Ry
     convergence threshold     =      1.0E-10
     mixing beta               =       0.7000
     number of iterations used =            8  plain     mixing
     Exchange-correlation      = SLA  PW   PBE  PBE ( 1  4  3  4 0 0)

     celldm(1)=   8.000000  celldm(2)=   0.000000  celldm(3)=   0.000000
     celldm(4)=   0.000000  celldm(5)=   0.000000  celldm(6)=   0.000000

     crystal axes: (cart. coord. in units of alat)
               a(1) = (  -0.546647   0.000000   0.546647 )  
               a(2) = (  -0.000000   0.546647   0.546647 )  
               a(3) = (  -0.546647   0.546647   0.000000 )  

     reciprocal axes: (cart. coord. in units 2 pi/alat)
               b(1) = ( -0.914667 -0.914667  0.914667 )  
               b(2) = (  0.914667  0.914667  0.914667 )  
               b(3) = ( -0.914667  0.914667 -0.914667 )  


     PseudoPot. # 1 for Na read from file:
     /home/s1333534/quantum_espresso/qe-6.1/pseudo/Na_pbe_v1.uspp.F.UPF
     MD5 check sum: 76a99c7e9422403d3e93cbc85ab7bccb
     Pseudo is Ultrasoft, Zval =  9.0
     Generated by new atomic code, or converted to UPF format
     Using radial grid of  819 points,  5 beta functions with: 
                l(1) =   0
                l(2) =   0
                l(3) =   1
                l(4) =   1
                l(5) =   2
     Q(r) pseudized with  8 coefficients,  rinner =    1.250   1.250   1.250
                                                       1.250   1.250

     atomic species   valence    mass     pseudopotential
        Na             9.00    22.99000     Na( 1.00)

     48 Sym. Ops., with inversion, found



   Cartesian axes

     site n.     atom                  positions (alat units)
         1           Na  tau(   1) = (  -0.0000000   0.0000000   0.0000000  )

     number of k points=   770  Marzari-Vanderbilt smearing, width (Ry)=  0.0200

     Number of k-points >= 100: set verbosity='high' to print them.

     Dense  grid:    16361 G-vectors     FFT dimensions: (  36,  36,  36)

     Smooth grid:     5769 G-vectors     FFT dimensions: (  25,  25,  25)

     Estimated max dynamical RAM per process >      21.54MB

     Estimated total allocated dynamical RAM >      86.15MB

     Initial potential from superposition of free atoms

     starting charge    8.99371, renormalised to    9.00000
     Starting wfc are    5 randomized atomic wfcs +    4 random wfc

     Writing output data file na.fcc.save

     total cpu time spent up to now is      224.3 secs

     per-process dynamical memory:    36.5 Mb

     Self-consistent Calculation

     iteration #  1     ecut=    40.00 Ry     beta=0.70
     Davidson diagonalization with overlap
     c_bands:  1 eigenvalues not converged
     ethr =  1.00E-06,  avg # of iterations = 10.5

     total cpu time spent up to now is      233.1 secs

     total energy              =     -95.09300709 Ry
     Harris-Foulkes estimate   =     -95.09348652 Ry
     estimated scf accuracy    <       0.00135597 Ry

     iteration #  2     ecut=    40.00 Ry     beta=0.70
     Davidson diagonalization with overlap
     ethr =  1.51E-05,  avg # of iterations =  2.0

     total cpu time spent up to now is      236.1 secs

     total energy              =     -95.09318722 Ry
     Harris-Foulkes estimate   =     -95.09322894 Ry
     estimated scf accuracy    <       0.00015614 Ry

     iteration #  3     ecut=    40.00 Ry     beta=0.70
     Davidson diagonalization with overlap
     ethr =  1.73E-06,  avg # of iterations =  2.0

     total cpu time spent up to now is      239.1 secs

     total energy              =     -95.09320615 Ry
     Harris-Foulkes estimate   =     -95.09320753 Ry
     estimated scf accuracy    <       0.00000918 Ry

     iteration #  4     ecut=    40.00 Ry     beta=0.70
     Davidson diagonalization with overlap
     ethr =  1.02E-07,  avg # of iterations =  1.0

     total cpu time spent up to now is      241.7 secs

     total energy              =     -95.09320696 Ry
     Harris-Foulkes estimate   =     -95.09320690 Ry
     estimated scf accuracy    <       0.00000001 Ry

     iteration #  5     ecut=    40.00 Ry     beta=0.70
     Davidson diagonalization with overlap
     ethr =  1.25E-10,  avg # of iterations =  3.0

     total cpu time spent up to now is      245.3 secs

     total energy              =     -95.09320699 Ry
     Harris-Foulkes estimate   =     -95.09320699 Ry
     estimated scf accuracy    <          1.5E-09 Ry

     iteration #  6     ecut=    40.00 Ry     beta=0.70
     Davidson diagonalization with overlap
     ethr =  1.66E-11,  avg # of iterations =  1.6

     total cpu time spent up to now is      248.1 secs

     End of self-consistent calculation

     Number of k-points >= 100: set verbosity='high' to print the bands.

     the Fermi energy is     3.7022 ev

!    total energy              =     -95.09320699 Ry
     Harris-Foulkes estimate   =     -95.09320699 Ry
     estimated scf accuracy    <          4.9E-11 Ry

     The total energy is the sum of the following terms:

     one-electron contribution =     -78.84558471 Ry
     hartree contribution      =      40.54051897 Ry
     xc contribution           =     -14.32767195 Ry
     ewald contribution        =     -42.46043476 Ry
     smearing contrib. (-TS)   =      -0.00003455 Ry

     convergence has been achieved in   6 iterations

     Forces acting on atoms (cartesian axes, Ry/au):

     atom    1 type  1   force =     0.00000000    0.00000000    0.00000000

     Total force =     0.000000     Total SCF correction =     0.000000


     Computing stress (Cartesian axis) and pressure

          total   stress  (Ry/bohr**3)                   (kbar)     P=   61.57
   0.00041855  -0.00000000  -0.00000000         61.57     -0.00     -0.00
  -0.00000000   0.00041855   0.00000000         -0.00     61.57      0.00
  -0.00000000  -0.00000000   0.00041855         -0.00     -0.00     61.57


     Writing output data file na.fcc.save

     init_run     :      2.37s CPU      2.50s WALL (       2 calls)
     electrons    :    225.17s CPU    234.59s WALL (       7 calls)
     update_pot   :      0.60s CPU      0.61s WALL (       5 calls)
     forces       :      1.13s CPU      1.14s WALL (       7 calls)
     stress       :      6.00s CPU      6.04s WALL (       7 calls)

     Called by init_run:
     wfcinit      :      1.77s CPU      1.89s WALL (       2 calls)
     potinit      :      0.06s CPU      0.06s WALL (       2 calls)

     Called by electrons:
     c_bands      :    187.60s CPU    195.68s WALL (      85 calls)
     sum_band     :     36.19s CPU     37.50s WALL (      85 calls)
     v_of_rho     :      0.70s CPU      0.71s WALL (      91 calls)
     newd         :      0.67s CPU      0.68s WALL (      91 calls)
     mix_rho      :      0.05s CPU      0.06s WALL (      85 calls)

     Called by c_bands:
     init_us_2    :      9.44s CPU      8.77s WALL (  143220 calls)
     cegterg      :    178.38s CPU    186.63s WALL (   65450 calls)

     Called by sum_band:
     sum_band:bec :      0.16s CPU      0.19s WALL (   65450 calls)
     addusdens    :      0.82s CPU      0.83s WALL (      85 calls)

     Called by *egterg:
     h_psi        :    140.08s CPU    146.33s WALL (  193831 calls)
     s_psi        :      2.21s CPU      1.82s WALL (  193831 calls)
     g_psi        :      1.11s CPU      1.04s WALL (  126841 calls)
     cdiaghg      :     24.05s CPU     24.84s WALL (  187671 calls)

     Called by h_psi:
     h_psi:pot    :    139.60s CPU    145.56s WALL (  193831 calls)
     h_psi:calbec :      3.52s CPU      3.12s WALL (  193831 calls)
     vloc_psi     :    134.12s CPU    139.97s WALL (  193831 calls)
     add_vuspsi   :      1.65s CPU      2.00s WALL (  193831 calls)

     General routines
     calbec       :      4.53s CPU      4.41s WALL (  286231 calls)
     fft          :      0.33s CPU      0.33s WALL (    1493 calls)
     ffts         :      0.01s CPU      0.02s WALL (     176 calls)
     fftw         :    150.09s CPU    145.37s WALL ( 3479754 calls)
     interpolate  :      0.06s CPU      0.07s WALL (     176 calls)
     davcio       :      0.01s CPU      0.03s WALL (    1540 calls)

     Parallel routines
     fft_scatter  :     22.78s CPU     28.24s WALL ( 3481423 calls)

     PWSCF        :  4m 0.05s CPU     4m 9.98s WALL


   This run was terminated on:  11:22:25  20Dec2017            

=------------------------------------------------------------------------------=
   JOB DONE.
=------------------------------------------------------------------------------=
