
     Program PWSCF v.6.1 (svn rev. 13369) starts on 20Dec2017 at 10:58:48 

     This program is part of the open-source Quantum ESPRESSO suite
     for quantum simulation of materials; please cite
         "P. Giannozzi et al., J. Phys.:Condens. Matter 21 395502 (2009);
          URL http://www.quantum-espresso.org", 
     in publications or presentations arising from this work. More details at
     http://www.quantum-espresso.org/quote

     Parallel version (MPI), running on     4 processors
     R & G space division:  proc/nbgrp/npool/nimage =       4
     Waiting for input...
     Reading input from standard input

     Current dimensions of program PWSCF are:
     Max number of different atomic species (ntypx) = 10
     Max number of k-points (npk) =  40000
     Max angular momentum in pseudopotentials (lmaxx) =  3

     Subspace diagonalization in iterative solution of the eigenvalue problem:
     a serial algorithm will be used


     Parallelization info
     --------------------
     sticks:   dense  smooth     PW     G-vecs:    dense   smooth      PW
     Min         175      90     30                 3084     1095     234
     Max         176      91     31                 3086     1096     238
     Sum         703     361    121                12339     4381     941



     bravais-lattice index     =            2
     lattice parameter (alat)  =       8.0000  a.u.
     unit-cell volume          =     128.0000 (a.u.)^3
     number of atoms/cell      =            1
     number of atomic types    =            1
     number of electrons       =         9.00
     number of Kohn-Sham states=            9
     kinetic-energy cutoff     =      40.0000  Ry
     charge density cutoff     =     320.0000  Ry
     convergence threshold     =      1.0E-08
     mixing beta               =       0.7000
     number of iterations used =            8  plain     mixing
     Exchange-correlation      = SLA  PW   PBE  PBE ( 1  4  3  4 0 0)
     nstep                     =           50


     celldm(1)=   8.000000  celldm(2)=   0.000000  celldm(3)=   0.000000
     celldm(4)=   0.000000  celldm(5)=   0.000000  celldm(6)=   0.000000

     crystal axes: (cart. coord. in units of alat)
               a(1) = (  -0.500000   0.000000   0.500000 )  
               a(2) = (   0.000000   0.500000   0.500000 )  
               a(3) = (  -0.500000   0.500000   0.000000 )  

     reciprocal axes: (cart. coord. in units 2 pi/alat)
               b(1) = ( -1.000000 -1.000000  1.000000 )  
               b(2) = (  1.000000  1.000000  1.000000 )  
               b(3) = ( -1.000000  1.000000 -1.000000 )  


     PseudoPot. # 1 for Na read from file:
     /home/s1333534/quantum_espresso/qe-6.1/pseudo/Na_pbe_v1.uspp.F.UPF
     MD5 check sum: 76a99c7e9422403d3e93cbc85ab7bccb
     Pseudo is Ultrasoft, Zval =  9.0
     Generated by new atomic code, or converted to UPF format
     Using radial grid of  819 points,  5 beta functions with: 
                l(1) =   0
                l(2) =   0
                l(3) =   1
                l(4) =   1
                l(5) =   2
     Q(r) pseudized with  8 coefficients,  rinner =    1.250   1.250   1.250
                                                       1.250   1.250

     atomic species   valence    mass     pseudopotential
        Na             9.00    22.99000     Na( 1.00)

     48 Sym. Ops., with inversion, found



   Cartesian axes

     site n.     atom                  positions (alat units)
         1           Na  tau(   1) = (   0.0000000   0.0000000   0.0000000  )

     number of k points=   770  Marzari-Vanderbilt smearing, width (Ry)=  0.0200

     Number of k-points >= 100: set verbosity='high' to print them.

     Dense  grid:    12339 G-vectors     FFT dimensions: (  36,  36,  36)

     Smooth grid:     4381 G-vectors     FFT dimensions: (  24,  24,  24)

     Estimated max dynamical RAM per process >      16.64MB

     Estimated total allocated dynamical RAM >      66.55MB

     Initial potential from superposition of free atoms

     starting charge    8.99371, renormalised to    9.00000
     Starting wfc are    5 randomized atomic wfcs +    4 random wfc

     total cpu time spent up to now is        1.2 secs

     per-process dynamical memory:    24.8 Mb

     Self-consistent Calculation

     iteration #  1     ecut=    40.00 Ry     beta=0.70
     Davidson diagonalization with overlap
     ethr =  1.00E-02,  avg # of iterations =  5.1

     Threshold (ethr) on eigenvalues was too large:
     Diagonalizing with lowered threshold

     Davidson diagonalization with overlap
     ethr =  2.47E-05,  avg # of iterations =  2.4

     total cpu time spent up to now is        8.3 secs

     total energy              =     -95.06263719 Ry
     Harris-Foulkes estimate   =     -95.06346383 Ry
     estimated scf accuracy    <       0.00221907 Ry

     iteration #  2     ecut=    40.00 Ry     beta=0.70
     Davidson diagonalization with overlap
     ethr =  2.47E-05,  avg # of iterations =  2.0

     total cpu time spent up to now is       10.8 secs

     total energy              =     -95.06293327 Ry
     Harris-Foulkes estimate   =     -95.06299962 Ry
     estimated scf accuracy    <       0.00025023 Ry

     iteration #  3     ecut=    40.00 Ry     beta=0.70
     Davidson diagonalization with overlap
     ethr =  2.78E-06,  avg # of iterations =  2.1

     total cpu time spent up to now is       13.4 secs

     total energy              =     -95.06296602 Ry
     Harris-Foulkes estimate   =     -95.06296754 Ry
     estimated scf accuracy    <       0.00001446 Ry

     iteration #  4     ecut=    40.00 Ry     beta=0.70
     Davidson diagonalization with overlap
     ethr =  1.61E-07,  avg # of iterations =  1.0

     total cpu time spent up to now is       15.6 secs

     total energy              =     -95.06296732 Ry
     Harris-Foulkes estimate   =     -95.06296725 Ry
     estimated scf accuracy    <       0.00000002 Ry

     iteration #  5     ecut=    40.00 Ry     beta=0.70
     Davidson diagonalization with overlap
     ethr =  2.20E-10,  avg # of iterations =  3.0

     total cpu time spent up to now is       18.8 secs

     End of self-consistent calculation

     Number of k-points >= 100: set verbosity='high' to print the bands.

     the Fermi energy is     5.7098 ev

!    total energy              =     -95.06296737 Ry
     Harris-Foulkes estimate   =     -95.06296737 Ry
     estimated scf accuracy    <          2.7E-09 Ry

     The total energy is the sum of the following terms:

     one-electron contribution =     -72.01868817 Ry
     hartree contribution      =      37.75480527 Ry
     xc contribution           =     -14.37732448 Ry
     ewald contribution        =     -46.42172850 Ry
     smearing contrib. (-TS)   =      -0.00003149 Ry

     convergence has been achieved in   5 iterations

     Forces acting on atoms (cartesian axes, Ry/au):

     atom    1 type  1   force =     0.00000000    0.00000000    0.00000000

     Total force =     0.000000     Total SCF correction =     0.000000


     Computing stress (Cartesian axis) and pressure

          total   stress  (Ry/bohr**3)                   (kbar)     P=  175.59
   0.00119366   0.00000000   0.00000000        175.59      0.00      0.00
   0.00000000   0.00119366  -0.00000000          0.00    175.59     -0.00
   0.00000000  -0.00000000   0.00119366          0.00     -0.00    175.59


     BFGS Geometry Optimization

     number of scf cycles    =   1
     number of bfgs steps    =   0

     enthalpy new            =     -95.0455648409 Ry

     new trust radius        =       0.0598329258 bohr
     new conv_thr            =       0.0000000100 Ry

     new unit-cell volume =    138.42485 a.u.^3 (    20.51245 Ang^3 )
     density =      1.86110 g/cm^3

CELL_PARAMETERS (alat=  8.00000000)
  -0.513221334  -0.000000000   0.513221334
   0.000000000   0.513221334   0.513221334
  -0.513221334   0.513221334  -0.000000000

ATOMIC_POSITIONS (crystal)
Na       0.000000000   0.000000000   0.000000000



     Writing output data file na.fcc.save
     NEW-OLD atomic charge density approx. for the potential
     extrapolated charge    9.67732, renormalised to    9.00000

     total cpu time spent up to now is       20.7 secs

     per-process dynamical memory:    31.2 Mb

     Self-consistent Calculation

     iteration #  1     ecut=    40.00 Ry     beta=0.70
     Davidson diagonalization with overlap
     ethr =  1.00E-06,  avg # of iterations =  4.4

     total cpu time spent up to now is       25.3 secs

     total energy              =     -94.69462577 Ry
     Harris-Foulkes estimate   =     -90.65119215 Ry
     estimated scf accuracy    <       0.21273921 Ry

     iteration #  2     ecut=    40.00 Ry     beta=0.70
     Davidson diagonalization with overlap
     ethr =  2.36E-03,  avg # of iterations =  2.9

     total cpu time spent up to now is       28.7 secs

     total energy              =     -95.09038312 Ry
     Harris-Foulkes estimate   =     -95.24552096 Ry
     estimated scf accuracy    <       0.35190193 Ry

     iteration #  3     ecut=    40.00 Ry     beta=0.70
     Davidson diagonalization with overlap
     ethr =  2.36E-03,  avg # of iterations =  1.1

     total cpu time spent up to now is       30.9 secs

     total energy              =     -95.08225758 Ry
     Harris-Foulkes estimate   =     -95.11017471 Ry
     estimated scf accuracy    <       0.07888017 Ry

     iteration #  4     ecut=    40.00 Ry     beta=0.70
     Davidson diagonalization with overlap
     ethr =  8.76E-04,  avg # of iterations =  1.0

     total cpu time spent up to now is       33.1 secs

     total energy              =     -95.08151588 Ry
     Harris-Foulkes estimate   =     -95.08574739 Ry
     estimated scf accuracy    <       0.02537393 Ry

     iteration #  5     ecut=    40.00 Ry     beta=0.70
     Davidson diagonalization with overlap
     ethr =  2.82E-04,  avg # of iterations =  1.0

     total cpu time spent up to now is       35.3 secs

     total energy              =     -95.07742682 Ry
     Harris-Foulkes estimate   =     -95.08183207 Ry
     estimated scf accuracy    <       0.01713872 Ry

     iteration #  6     ecut=    40.00 Ry     beta=0.70
     Davidson diagonalization with overlap
     ethr =  1.90E-04,  avg # of iterations =  1.0

     total cpu time spent up to now is       37.5 secs

     total energy              =     -95.07240003 Ry
     Harris-Foulkes estimate   =     -95.07773952 Ry
     estimated scf accuracy    <       0.00855389 Ry

     iteration #  7     ecut=    40.00 Ry     beta=0.70
     Davidson diagonalization with overlap
     ethr =  9.50E-05,  avg # of iterations =  2.0

     total cpu time spent up to now is       40.2 secs

     total energy              =     -95.07374686 Ry
     Harris-Foulkes estimate   =     -95.07381553 Ry
     estimated scf accuracy    <       0.00014759 Ry

     iteration #  8     ecut=    40.00 Ry     beta=0.70
     Davidson diagonalization with overlap
     ethr =  1.64E-06,  avg # of iterations =  2.2

     total cpu time spent up to now is       42.7 secs

     total energy              =     -95.07374429 Ry
     Harris-Foulkes estimate   =     -95.07376035 Ry
     estimated scf accuracy    <       0.00002244 Ry

     iteration #  9     ecut=    40.00 Ry     beta=0.70
     Davidson diagonalization with overlap
     ethr =  2.49E-07,  avg # of iterations =  2.2

     total cpu time spent up to now is       45.5 secs

     total energy              =     -95.07377556 Ry
     Harris-Foulkes estimate   =     -95.07377553 Ry
     estimated scf accuracy    <       0.00005561 Ry

     iteration # 10     ecut=    40.00 Ry     beta=0.70
     Davidson diagonalization with overlap
     ethr =  2.49E-07,  avg # of iterations =  1.0

     total cpu time spent up to now is       47.7 secs

     total energy              =     -95.07375093 Ry
     Harris-Foulkes estimate   =     -95.07377558 Ry
     estimated scf accuracy    <       0.00005558 Ry

     iteration # 11     ecut=    40.00 Ry     beta=0.70
     Davidson diagonalization with overlap
     ethr =  2.49E-07,  avg # of iterations =  2.0

     total cpu time spent up to now is       50.3 secs

     total energy              =     -95.07376111 Ry
     Harris-Foulkes estimate   =     -95.07375512 Ry
     estimated scf accuracy    <       0.00001108 Ry

     iteration # 12     ecut=    40.00 Ry     beta=0.70
     Davidson diagonalization with overlap
     ethr =  1.23E-07,  avg # of iterations =  1.0

     total cpu time spent up to now is       52.5 secs

     total energy              =     -95.07375924 Ry
     Harris-Foulkes estimate   =     -95.07376175 Ry
     estimated scf accuracy    <       0.00003111 Ry

     iteration # 13     ecut=    40.00 Ry     beta=0.70
     Davidson diagonalization with overlap
     ethr =  1.23E-07,  avg # of iterations =  1.0

     total cpu time spent up to now is       54.7 secs

     total energy              =     -95.07374827 Ry
     Harris-Foulkes estimate   =     -95.07375931 Ry
     estimated scf accuracy    <       0.00002456 Ry

     iteration # 14     ecut=    40.00 Ry     beta=0.70
     Davidson diagonalization with overlap
     ethr =  1.23E-07,  avg # of iterations =  2.0

     total cpu time spent up to now is       57.4 secs

     total energy              =     -95.07375098 Ry
     Harris-Foulkes estimate   =     -95.07375104 Ry
     estimated scf accuracy    <       0.00000028 Ry

     iteration # 15     ecut=    40.00 Ry     beta=0.70
     Davidson diagonalization with overlap
     ethr =  3.09E-09,  avg # of iterations =  1.0

     total cpu time spent up to now is       59.6 secs

     total energy              =     -95.07375092 Ry
     Harris-Foulkes estimate   =     -95.07375099 Ry
     estimated scf accuracy    <       0.00000010 Ry

     iteration # 16     ecut=    40.00 Ry     beta=0.70
     Davidson diagonalization with overlap
     ethr =  1.16E-09,  avg # of iterations =  2.0

     total cpu time spent up to now is       62.3 secs

     total energy              =     -95.07375095 Ry
     Harris-Foulkes estimate   =     -95.07375096 Ry
     estimated scf accuracy    <       0.00000002 Ry

     iteration # 17     ecut=    40.00 Ry     beta=0.70
     Davidson diagonalization with overlap
     ethr =  1.82E-10,  avg # of iterations =  2.0

     total cpu time spent up to now is       64.9 secs

     End of self-consistent calculation

     Number of k-points >= 100: set verbosity='high' to print the bands.

     the Fermi energy is     5.0594 ev

!    total energy              =     -95.07375095 Ry
     Harris-Foulkes estimate   =     -95.07375095 Ry
     estimated scf accuracy    <          5.7E-11 Ry

     The total energy is the sum of the following terms:

     one-electron contribution =     -74.07160980 Ry
     hartree contribution      =      38.58542159 Ry
     xc contribution           =     -14.36169417 Ry
     ewald contribution        =     -45.22583674 Ry
     smearing contrib. (-TS)   =      -0.00003183 Ry

     convergence has been achieved in  17 iterations

     Forces acting on atoms (cartesian axes, Ry/au):

     atom    1 type  1   force =     0.00000000    0.00000000    0.00000000

     Total force =     0.000000     Total SCF correction =     0.000000


     Computing stress (Cartesian axis) and pressure

          total   stress  (Ry/bohr**3)                   (kbar)     P=  131.04
   0.00089082  -0.00000000  -0.00000000        131.04     -0.00     -0.00
  -0.00000000   0.00089082   0.00000000         -0.00    131.04      0.00
  -0.00000000   0.00000000   0.00089082         -0.00      0.00    131.04


     number of scf cycles    =   2
     number of bfgs steps    =   1

     enthalpy old            =     -95.0455648409 Ry
     enthalpy new            =     -95.0549310910 Ry

     CASE: enthalpy_new < enthalpy_old

     new trust radius        =       0.0666807190 bohr
     new conv_thr            =            1.0E-10 Ry

     new unit-cell volume =    150.52936 a.u.^3 (    22.30615 Ang^3 )
     density =      1.71145 g/cm^3

CELL_PARAMETERS (alat=  8.00000000)
  -0.527764801  -0.000000000   0.527764801
   0.000000000   0.527764801   0.527764801
  -0.527764801   0.527764801  -0.000000000

ATOMIC_POSITIONS (crystal)
Na       0.000000000   0.000000000   0.000000000



     Writing output data file na.fcc.save
     NEW-OLD atomic charge density approx. for the potential
     extrapolated charge    9.72321, renormalised to    9.00000

     total cpu time spent up to now is       66.7 secs

     per-process dynamical memory:    31.2 Mb

     Self-consistent Calculation

     iteration #  1     ecut=    40.00 Ry     beta=0.70
     Davidson diagonalization with overlap
     ethr =  1.00E-06,  avg # of iterations =  4.5

     total cpu time spent up to now is       71.4 secs

     total energy              =     -94.63256607 Ry
     Harris-Foulkes estimate   =     -90.21639752 Ry
     estimated scf accuracy    <       0.25290212 Ry

     iteration #  2     ecut=    40.00 Ry     beta=0.70
     Davidson diagonalization with overlap
     ethr =  2.81E-03,  avg # of iterations =  3.0

     total cpu time spent up to now is       74.8 secs

     total energy              =     -95.10354130 Ry
     Harris-Foulkes estimate   =     -95.28748238 Ry
     estimated scf accuracy    <       0.41668541 Ry

     iteration #  3     ecut=    40.00 Ry     beta=0.70
     Davidson diagonalization with overlap
     ethr =  2.81E-03,  avg # of iterations =  1.0

     total cpu time spent up to now is       77.0 secs

     total energy              =     -95.09286065 Ry
     Harris-Foulkes estimate   =     -95.12669232 Ry
     estimated scf accuracy    <       0.09431473 Ry

     iteration #  4     ecut=    40.00 Ry     beta=0.70
     Davidson diagonalization with overlap
     ethr =  1.05E-03,  avg # of iterations =  1.0

     total cpu time spent up to now is       79.2 secs

     total energy              =     -95.09151424 Ry
     Harris-Foulkes estimate   =     -95.09708115 Ry
     estimated scf accuracy    <       0.02992152 Ry

     iteration #  5     ecut=    40.00 Ry     beta=0.70
     Davidson diagonalization with overlap
     ethr =  3.32E-04,  avg # of iterations =  1.0

     total cpu time spent up to now is       81.4 secs

     total energy              =     -95.08647923 Ry
     Harris-Foulkes estimate   =     -95.09193907 Ry
     estimated scf accuracy    <       0.01898132 Ry

     iteration #  6     ecut=    40.00 Ry     beta=0.70
     Davidson diagonalization with overlap
     ethr =  2.11E-04,  avg # of iterations =  1.0

     total cpu time spent up to now is       83.6 secs

     total energy              =     -95.08128001 Ry
     Harris-Foulkes estimate   =     -95.08690105 Ry
     estimated scf accuracy    <       0.00856422 Ry

     iteration #  7     ecut=    40.00 Ry     beta=0.70
     Davidson diagonalization with overlap
     ethr =  9.52E-05,  avg # of iterations =  2.0

     total cpu time spent up to now is       86.3 secs

     total energy              =     -95.08291641 Ry
     Harris-Foulkes estimate   =     -95.08292003 Ry
     estimated scf accuracy    <       0.00004095 Ry

     iteration #  8     ecut=    40.00 Ry     beta=0.70
     Davidson diagonalization with overlap
     ethr =  4.55E-07,  avg # of iterations =  2.4

     total cpu time spent up to now is       88.9 secs

     total energy              =     -95.08297060 Ry
     Harris-Foulkes estimate   =     -95.08291903 Ry
     estimated scf accuracy    <       0.00003647 Ry

     iteration #  9     ecut=    40.00 Ry     beta=0.70
     Davidson diagonalization with overlap
     ethr =  4.05E-07,  avg # of iterations =  2.0

     total cpu time spent up to now is       91.7 secs

     total energy              =     -95.08284655 Ry
     Harris-Foulkes estimate   =     -95.08299073 Ry
     estimated scf accuracy    <       0.00018889 Ry

     iteration # 10     ecut=    40.00 Ry     beta=0.70
     Davidson diagonalization with overlap
     ethr =  4.05E-07,  avg # of iterations =  2.4

     total cpu time spent up to now is       94.5 secs

     total energy              =     -95.08290392 Ry
     Harris-Foulkes estimate   =     -95.08291275 Ry
     estimated scf accuracy    <       0.00001727 Ry

     iteration # 11     ecut=    40.00 Ry     beta=0.70
     Davidson diagonalization with overlap
     ethr =  1.92E-07,  avg # of iterations =  1.4

     total cpu time spent up to now is       96.8 secs

     total energy              =     -95.08290471 Ry
     Harris-Foulkes estimate   =     -95.08290575 Ry
     estimated scf accuracy    <       0.00000155 Ry

     iteration # 12     ecut=    40.00 Ry     beta=0.70
     Davidson diagonalization with overlap
     ethr =  1.72E-08,  avg # of iterations =  2.0

     total cpu time spent up to now is       99.5 secs

     total energy              =     -95.08290517 Ry
     Harris-Foulkes estimate   =     -95.08290542 Ry
     estimated scf accuracy    <       0.00000055 Ry

     iteration # 13     ecut=    40.00 Ry     beta=0.70
     Davidson diagonalization with overlap
     ethr =  6.12E-09,  avg # of iterations =  1.6

     total cpu time spent up to now is      101.9 secs

     total energy              =     -95.08290522 Ry
     Harris-Foulkes estimate   =     -95.08290523 Ry
     estimated scf accuracy    <       0.00000001 Ry

     iteration # 14     ecut=    40.00 Ry     beta=0.70
     Davidson diagonalization with overlap
     ethr =  1.64E-10,  avg # of iterations =  2.0

     total cpu time spent up to now is      104.5 secs

     total energy              =     -95.08290522 Ry
     Harris-Foulkes estimate   =     -95.08290522 Ry
     estimated scf accuracy    <          1.8E-09 Ry

     iteration # 15     ecut=    40.00 Ry     beta=0.70
     Davidson diagonalization with overlap
     ethr =  1.99E-11,  avg # of iterations =  1.0

     total cpu time spent up to now is      106.7 secs

     total energy              =     -95.08290522 Ry
     Harris-Foulkes estimate   =     -95.08290522 Ry
     estimated scf accuracy    <          2.5E-09 Ry

     iteration # 16     ecut=    40.00 Ry     beta=0.70
     Davidson diagonalization with overlap
     ethr =  1.99E-11,  avg # of iterations =  1.0

     total cpu time spent up to now is      108.9 secs

     total energy              =     -95.08290522 Ry
     Harris-Foulkes estimate   =     -95.08290522 Ry
     estimated scf accuracy    <          1.1E-09 Ry

     iteration # 17     ecut=    40.00 Ry     beta=0.70
     Davidson diagonalization with overlap
     ethr =  1.24E-11,  avg # of iterations =  2.0

     total cpu time spent up to now is      111.5 secs

     total energy              =     -95.08290522 Ry
     Harris-Foulkes estimate   =     -95.08290522 Ry
     estimated scf accuracy    <          1.1E-09 Ry

     iteration # 18     ecut=    40.00 Ry     beta=0.70
     Davidson diagonalization with overlap
     ethr =  1.24E-11,  avg # of iterations =  2.0

     total cpu time spent up to now is      114.3 secs

     total energy              =     -95.08290522 Ry
     Harris-Foulkes estimate   =     -95.08290522 Ry
     estimated scf accuracy    <          2.4E-10 Ry

     iteration # 19     ecut=    40.00 Ry     beta=0.70
     Davidson diagonalization with overlap
     ethr =  2.71E-12,  avg # of iterations =  1.0

     total cpu time spent up to now is      116.4 secs

     End of self-consistent calculation

     Number of k-points >= 100: set verbosity='high' to print the bands.

     the Fermi energy is     4.4227 ev

!    total energy              =     -95.08290522 Ry
     Harris-Foulkes estimate   =     -95.08290522 Ry
     estimated scf accuracy    <          4.7E-11 Ry

     The total energy is the sum of the following terms:

     one-electron contribution =     -76.21814833 Ry
     hartree contribution      =      39.46084819 Ry
     xc contribution           =     -14.34601137 Ry
     ewald contribution        =     -43.97956099 Ry
     smearing contrib. (-TS)   =      -0.00003273 Ry

     convergence has been achieved in  19 iterations

     Forces acting on atoms (cartesian axes, Ry/au):

     atom    1 type  1   force =     0.00000000    0.00000000    0.00000000

     Total force =     0.000000     Total SCF correction =     0.000000


     Computing stress (Cartesian axis) and pressure

          total   stress  (Ry/bohr**3)                   (kbar)     P=   93.72
   0.00063711  -0.00000000  -0.00000000         93.72     -0.00     -0.00
  -0.00000000   0.00063711   0.00000000         -0.00     93.72      0.00
  -0.00000000  -0.00000000   0.00063711         -0.00     -0.00     93.72


     number of scf cycles    =   3
     number of bfgs steps    =   2

     enthalpy old            =     -95.0549310910 Ry
     enthalpy new            =     -95.0624396623 Ry

     CASE: enthalpy_new < enthalpy_old

     new trust radius        =       0.1014283576 bohr
     new conv_thr            =            1.0E-10 Ry

     new unit-cell volume =    169.97800 a.u.^3 (    25.18814 Ang^3 )
     density =      1.51563 g/cm^3

CELL_PARAMETERS (alat=  8.00000000)
  -0.549580002  -0.000000000   0.549580002
  -0.000000000   0.549580002   0.549580002
  -0.549580002   0.549580002  -0.000000000

ATOMIC_POSITIONS (crystal)
Na       0.000000000   0.000000000   0.000000000



     Writing output data file na.fcc.save
     NEW-OLD atomic charge density approx. for the potential
     extrapolated charge   10.02905, renormalised to    9.00000

     total cpu time spent up to now is      118.3 secs

     per-process dynamical memory:    31.2 Mb

     Self-consistent Calculation

     iteration #  1     ecut=    40.00 Ry     beta=0.70
     Davidson diagonalization with overlap
     ethr =  1.00E-06,  avg # of iterations =  4.9

     total cpu time spent up to now is      123.1 secs

     total energy              =     -93.96939969 Ry
     Harris-Foulkes estimate   =     -87.89291741 Ry
     estimated scf accuracy    <       0.63998254 Ry

     iteration #  2     ecut=    40.00 Ry     beta=0.70
     Davidson diagonalization with overlap
     ethr =  7.11E-03,  avg # of iterations =  3.0

     total cpu time spent up to now is      126.4 secs

     total energy              =     -95.15789909 Ry
     Harris-Foulkes estimate   =     -95.61214498 Ry
     estimated scf accuracy    <       1.01758127 Ry

     iteration #  3     ecut=    40.00 Ry     beta=0.70
     Davidson diagonalization with overlap
     ethr =  7.11E-03,  avg # of iterations =  1.0

     total cpu time spent up to now is      128.6 secs

     total energy              =     -95.11669089 Ry
     Harris-Foulkes estimate   =     -95.21004361 Ry
     estimated scf accuracy    <       0.24453391 Ry

     iteration #  4     ecut=    40.00 Ry     beta=0.70
     Davidson diagonalization with overlap
     ethr =  2.72E-03,  avg # of iterations =  1.0

     total cpu time spent up to now is      130.8 secs

     total energy              =     -95.11251286 Ry
     Harris-Foulkes estimate   =     -95.12801929 Ry
     estimated scf accuracy    <       0.07346837 Ry

     iteration #  5     ecut=    40.00 Ry     beta=0.70
     Davidson diagonalization with overlap
     ethr =  8.16E-04,  avg # of iterations =  1.0

     total cpu time spent up to now is      132.9 secs

     total energy              =     -95.09716323 Ry
     Harris-Foulkes estimate   =     -95.11369889 Ry
     estimated scf accuracy    <       0.04329389 Ry

     iteration #  6     ecut=    40.00 Ry     beta=0.70
     Davidson diagonalization with overlap
     ethr =  4.81E-04,  avg # of iterations =  1.0

     total cpu time spent up to now is      135.2 secs

     total energy              =     -95.08947452 Ry
     Harris-Foulkes estimate   =     -95.09888923 Ry
     estimated scf accuracy    <       0.01344567 Ry

     iteration #  7     ecut=    40.00 Ry     beta=0.70
     Davidson diagonalization with overlap
     ethr =  1.49E-04,  avg # of iterations =  2.0

     total cpu time spent up to now is      137.9 secs

     total energy              =     -95.09258802 Ry
     Harris-Foulkes estimate   =     -95.09258659 Ry
     estimated scf accuracy    <       0.00001781 Ry

     iteration #  8     ecut=    40.00 Ry     beta=0.70
     Davidson diagonalization with overlap
     ethr =  1.98E-07,  avg # of iterations =  3.2

     total cpu time spent up to now is      141.0 secs

     total energy              =     -95.09258522 Ry
     Harris-Foulkes estimate   =     -95.09258969 Ry
     estimated scf accuracy    <       0.00002131 Ry

     iteration #  9     ecut=    40.00 Ry     beta=0.70
     Davidson diagonalization with overlap
     ethr =  1.98E-07,  avg # of iterations =  1.0

     total cpu time spent up to now is      143.2 secs

     total energy              =     -95.09258050 Ry
     Harris-Foulkes estimate   =     -95.09258570 Ry
     estimated scf accuracy    <       0.00001124 Ry

     iteration # 10     ecut=    40.00 Ry     beta=0.70
     Davidson diagonalization with overlap
     ethr =  1.25E-07,  avg # of iterations =  2.0

     total cpu time spent up to now is      145.9 secs

     total energy              =     -95.09258310 Ry
     Harris-Foulkes estimate   =     -95.09258575 Ry
     estimated scf accuracy    <       0.00000780 Ry

     iteration # 11     ecut=    40.00 Ry     beta=0.70
     Davidson diagonalization with overlap
     ethr =  8.67E-08,  avg # of iterations =  1.0

     total cpu time spent up to now is      148.1 secs

     total energy              =     -95.09258245 Ry
     Harris-Foulkes estimate   =     -95.09258345 Ry
     estimated scf accuracy    <       0.00000151 Ry

     iteration # 12     ecut=    40.00 Ry     beta=0.70
     Davidson diagonalization with overlap
     ethr =  1.68E-08,  avg # of iterations =  2.0

     total cpu time spent up to now is      150.8 secs

     total energy              =     -95.09258281 Ry
     Harris-Foulkes estimate   =     -95.09258281 Ry
     estimated scf accuracy    <       0.00000006 Ry

     iteration # 13     ecut=    40.00 Ry     beta=0.70
     Davidson diagonalization with overlap
     ethr =  6.89E-10,  avg # of iterations =  1.0

     total cpu time spent up to now is      153.0 secs

     total energy              =     -95.09258282 Ry
     Harris-Foulkes estimate   =     -95.09258282 Ry
     estimated scf accuracy    <       0.00000001 Ry

     iteration # 14     ecut=    40.00 Ry     beta=0.70
     Davidson diagonalization with overlap
     ethr =  1.16E-10,  avg # of iterations =  1.6

     total cpu time spent up to now is      155.3 secs

     total energy              =     -95.09258282 Ry
     Harris-Foulkes estimate   =     -95.09258282 Ry
     estimated scf accuracy    <          2.0E-09 Ry

     iteration # 15     ecut=    40.00 Ry     beta=0.70
     Davidson diagonalization with overlap
     ethr =  2.26E-11,  avg # of iterations =  1.0

     total cpu time spent up to now is      157.5 secs

     total energy              =     -95.09258282 Ry
     Harris-Foulkes estimate   =     -95.09258282 Ry
     estimated scf accuracy    <          2.5E-09 Ry

     iteration # 16     ecut=    40.00 Ry     beta=0.70
     Davidson diagonalization with overlap
     ethr =  2.26E-11,  avg # of iterations =  1.4

     total cpu time spent up to now is      159.8 secs

     total energy              =     -95.09258282 Ry
     Harris-Foulkes estimate   =     -95.09258282 Ry
     estimated scf accuracy    <          6.1E-09 Ry

     iteration # 17     ecut=    40.00 Ry     beta=0.70
     Davidson diagonalization with overlap
     ethr =  2.26E-11,  avg # of iterations =  1.6

     total cpu time spent up to now is      162.1 secs

     total energy              =     -95.09258282 Ry
     Harris-Foulkes estimate   =     -95.09258282 Ry
     estimated scf accuracy    <          1.0E-09 Ry

     iteration # 18     ecut=    40.00 Ry     beta=0.70
     Davidson diagonalization with overlap
     ethr =  1.13E-11,  avg # of iterations =  2.0

     total cpu time spent up to now is      164.7 secs

     End of self-consistent calculation

     Number of k-points >= 100: set verbosity='high' to print the bands.

     the Fermi energy is     3.5982 ev

!    total energy              =     -95.09258282 Ry
     Harris-Foulkes estimate   =     -95.09258282 Ry
     estimated scf accuracy    <          8.3E-12 Ry

     The total energy is the sum of the following terms:

     one-electron contribution =     -79.23788650 Ry
     hartree contribution      =      40.70435010 Ry
     xc contribution           =     -14.32518903 Ry
     ewald contribution        =     -42.23382252 Ry
     smearing contrib. (-TS)   =      -0.00003487 Ry

     convergence has been achieved in  18 iterations

     Forces acting on atoms (cartesian axes, Ry/au):

     atom    1 type  1   force =     0.00000000    0.00000000    0.00000000

     Total force =     0.000000     Total SCF correction =     0.000000


     Computing stress (Cartesian axis) and pressure

          total   stress  (Ry/bohr**3)                   (kbar)     P=   56.13
   0.00038155  -0.00000000   0.00000000         56.13     -0.00      0.00
  -0.00000000   0.00038155   0.00000000         -0.00     56.13      0.00
   0.00000000  -0.00000000   0.00038155          0.00     -0.00     56.13


     number of scf cycles    =   4
     number of bfgs steps    =   3

     enthalpy old            =     -95.0624396623 Ry
     enthalpy new            =     -95.0694730751 Ry

     CASE: enthalpy_new < enthalpy_old

     new trust radius        =       0.1173815250 bohr
     new conv_thr            =            1.0E-10 Ry

     new unit-cell volume =    193.98242 a.u.^3 (    28.74523 Ang^3 )
     density =      1.32807 g/cm^3

CELL_PARAMETERS (alat=  8.00000000)
  -0.574320265   0.000000000   0.574320265
  -0.000000000   0.574320265   0.574320265
  -0.574320265   0.574320265  -0.000000000

ATOMIC_POSITIONS (crystal)
Na       0.000000000   0.000000000   0.000000000



     Writing output data file na.fcc.save
     NEW-OLD atomic charge density approx. for the potential
     extrapolated charge   10.11293, renormalised to    9.00000

     total cpu time spent up to now is      166.6 secs

     per-process dynamical memory:    31.2 Mb

     Self-consistent Calculation

     iteration #  1     ecut=    40.00 Ry     beta=0.70
     Davidson diagonalization with overlap
     ethr =  1.00E-06,  avg # of iterations =  5.1

     total cpu time spent up to now is      171.5 secs

     total energy              =     -93.65640982 Ry
     Harris-Foulkes estimate   =     -86.98670023 Ry
     estimated scf accuracy    <       0.82798679 Ry

     iteration #  2     ecut=    40.00 Ry     beta=0.70
     Davidson diagonalization with overlap
     ethr =  9.20E-03,  avg # of iterations =  3.0

     total cpu time spent up to now is      174.7 secs

     total energy              =     -95.18893576 Ry
     Harris-Foulkes estimate   =     -95.76889284 Ry
     estimated scf accuracy    <       1.29114642 Ry

     iteration #  3     ecut=    40.00 Ry     beta=0.70
     Davidson diagonalization with overlap
     ethr =  9.20E-03,  avg # of iterations =  1.0

     total cpu time spent up to now is      176.9 secs

     total energy              =     -95.13006778 Ry
     Harris-Foulkes estimate   =     -95.25341927 Ry
     estimated scf accuracy    <       0.31552202 Ry

     iteration #  4     ecut=    40.00 Ry     beta=0.70
     Davidson diagonalization with overlap
     ethr =  3.51E-03,  avg # of iterations =  1.0

     total cpu time spent up to now is      179.1 secs

     total energy              =     -95.12170434 Ry
     Harris-Foulkes estimate   =     -95.14474424 Ry
     estimated scf accuracy    <       0.09314151 Ry

     iteration #  5     ecut=    40.00 Ry     beta=0.70
     Davidson diagonalization with overlap
     ethr =  1.03E-03,  avg # of iterations =  1.0

     total cpu time spent up to now is      181.3 secs

     total energy              =     -95.09922708 Ry
     Harris-Foulkes estimate   =     -95.12353306 Ry
     estimated scf accuracy    <       0.04898071 Ry

     iteration #  6     ecut=    40.00 Ry     beta=0.70
     Davidson diagonalization with overlap
     ethr =  5.44E-04,  avg # of iterations =  1.0

     total cpu time spent up to now is      183.5 secs

     total energy              =     -95.09743715 Ry
     Harris-Foulkes estimate   =     -95.10288748 Ry
     estimated scf accuracy    <       0.00760585 Ry

     iteration #  7     ecut=    40.00 Ry     beta=0.70
     Davidson diagonalization with overlap
     ethr =  8.45E-05,  avg # of iterations =  2.2

     total cpu time spent up to now is      186.3 secs

     total energy              =     -95.09946785 Ry
     Harris-Foulkes estimate   =     -95.09943288 Ry
     estimated scf accuracy    <       0.00003414 Ry

     iteration #  8     ecut=    40.00 Ry     beta=0.70
     Davidson diagonalization with overlap
     ethr =  3.79E-07,  avg # of iterations =  3.3

     total cpu time spent up to now is      189.6 secs

     total energy              =     -95.09943198 Ry
     Harris-Foulkes estimate   =     -95.09947442 Ry
     estimated scf accuracy    <       0.00012035 Ry

     iteration #  9     ecut=    40.00 Ry     beta=0.70
     Davidson diagonalization with overlap
     ethr =  3.79E-07,  avg # of iterations =  2.0

     total cpu time spent up to now is      192.2 secs

     total energy              =     -95.09941495 Ry
     Harris-Foulkes estimate   =     -95.09943664 Ry
     estimated scf accuracy    <       0.00004003 Ry

     iteration # 10     ecut=    40.00 Ry     beta=0.70
     Davidson diagonalization with overlap
     ethr =  3.79E-07,  avg # of iterations =  2.0

     total cpu time spent up to now is      194.8 secs

     total energy              =     -95.09941575 Ry
     Harris-Foulkes estimate   =     -95.09941962 Ry
     estimated scf accuracy    <       0.00000328 Ry

     iteration # 11     ecut=    40.00 Ry     beta=0.70
     Davidson diagonalization with overlap
     ethr =  3.65E-08,  avg # of iterations =  2.0

     total cpu time spent up to now is      197.5 secs

     total energy              =     -95.09941815 Ry
     Harris-Foulkes estimate   =     -95.09941715 Ry
     estimated scf accuracy    <       0.00000365 Ry

     iteration # 12     ecut=    40.00 Ry     beta=0.70
     Davidson diagonalization with overlap
     ethr =  3.65E-08,  avg # of iterations =  1.6

     total cpu time spent up to now is      199.8 secs

     total energy              =     -95.09941828 Ry
     Harris-Foulkes estimate   =     -95.09941827 Ry
     estimated scf accuracy    <       0.00000029 Ry

     iteration # 13     ecut=    40.00 Ry     beta=0.70
     Davidson diagonalization with overlap
     ethr =  3.22E-09,  avg # of iterations =  1.0

     total cpu time spent up to now is      202.0 secs

     total energy              =     -95.09941800 Ry
     Harris-Foulkes estimate   =     -95.09941829 Ry
     estimated scf accuracy    <       0.00000014 Ry

     iteration # 14     ecut=    40.00 Ry     beta=0.70
     Davidson diagonalization with overlap
     ethr =  1.58E-09,  avg # of iterations =  1.6

     total cpu time spent up to now is      204.4 secs

     total energy              =     -95.09941863 Ry
     Harris-Foulkes estimate   =     -95.09941801 Ry
     estimated scf accuracy    <       0.00000065 Ry

     iteration # 15     ecut=    40.00 Ry     beta=0.70
     Davidson diagonalization with overlap
     ethr =  1.58E-09,  avg # of iterations =  2.4

     total cpu time spent up to now is      207.2 secs

     total energy              =     -95.09941794 Ry
     Harris-Foulkes estimate   =     -95.09941892 Ry
     estimated scf accuracy    <       0.00000162 Ry

     iteration # 16     ecut=    40.00 Ry     beta=0.70
     Davidson diagonalization with overlap
     ethr =  1.58E-09,  avg # of iterations =  2.9

     total cpu time spent up to now is      210.3 secs

     total energy              =     -95.09941834 Ry
     Harris-Foulkes estimate   =     -95.09941843 Ry
     estimated scf accuracy    <       0.00000012 Ry

     iteration # 17     ecut=    40.00 Ry     beta=0.70
     Davidson diagonalization with overlap
     ethr =  1.30E-09,  avg # of iterations =  2.0

     total cpu time spent up to now is      213.1 secs

     total energy              =     -95.09941835 Ry
     Harris-Foulkes estimate   =     -95.09941844 Ry
     estimated scf accuracy    <       0.00000013 Ry

     iteration # 18     ecut=    40.00 Ry     beta=0.70
     Davidson diagonalization with overlap
     ethr =  1.30E-09,  avg # of iterations =  2.0

     total cpu time spent up to now is      215.7 secs

     total energy              =     -95.09941838 Ry
     Harris-Foulkes estimate   =     -95.09941838 Ry
     estimated scf accuracy    <          8.2E-10 Ry

     iteration # 19     ecut=    40.00 Ry     beta=0.70
     Davidson diagonalization with overlap
     ethr =  9.09E-12,  avg # of iterations =  1.1

     total cpu time spent up to now is      218.0 secs

     End of self-consistent calculation

     Number of k-points >= 100: set verbosity='high' to print the bands.

     the Fermi energy is     2.8188 ev

!    total energy              =     -95.09941838 Ry
     Harris-Foulkes estimate   =     -95.09941838 Ry
     estimated scf accuracy    <          8.5E-11 Ry

     The total energy is the sum of the following terms:

     one-electron contribution =     -82.40048337 Ry
     hartree contribution      =      42.02024904 Ry
     xc contribution           =     -14.30464951 Ry
     ewald contribution        =     -40.41449635 Ry
     smearing contrib. (-TS)   =      -0.00003819 Ry

     convergence has been achieved in  19 iterations

     Forces acting on atoms (cartesian axes, Ry/au):

     atom    1 type  1   force =     0.00000000    0.00000000    0.00000000

     Total force =     0.000000     Total SCF correction =     0.000000


     Computing stress (Cartesian axis) and pressure

          total   stress  (Ry/bohr**3)                   (kbar)     P=   30.03
   0.00020411  -0.00000000  -0.00000000         30.03     -0.00     -0.00
   0.00000000   0.00020411  -0.00000000          0.00     30.03     -0.00
  -0.00000000  -0.00000000   0.00020411         -0.00     -0.00     30.03


     number of scf cycles    =   5
     number of bfgs steps    =   4

     enthalpy old            =     -95.0694730751 Ry
     enthalpy new            =     -95.0730450632 Ry

     CASE: enthalpy_new < enthalpy_old

     new trust radius        =       0.0521708752 bohr
     new conv_thr            =            1.0E-10 Ry

     new unit-cell volume =    205.08718 a.u.^3 (    30.39078 Ang^3 )
     density =      1.25616 g/cm^3

CELL_PARAMETERS (alat=  8.00000000)
  -0.585076767   0.000000000   0.585076767
  -0.000000000   0.585076767   0.585076767
  -0.585076767   0.585076767   0.000000000

ATOMIC_POSITIONS (crystal)
Na       0.000000000   0.000000000   0.000000000



     Writing output data file na.fcc.save
     NEW-OLD atomic charge density approx. for the potential
     extrapolated charge    9.48698, renormalised to    9.00000

     total cpu time spent up to now is      219.8 secs

     per-process dynamical memory:    31.2 Mb

     Self-consistent Calculation

     iteration #  1     ecut=    40.00 Ry     beta=0.70
     Davidson diagonalization with overlap
     ethr =  1.00E-06,  avg # of iterations =  4.2

     total cpu time spent up to now is      224.3 secs

     total energy              =     -94.91155273 Ry
     Harris-Foulkes estimate   =     -91.47996635 Ry
     estimated scf accuracy    <       0.10579791 Ry

     iteration #  2     ecut=    40.00 Ry     beta=0.70
     Davidson diagonalization with overlap
     ethr =  1.18E-03,  avg # of iterations =  2.9

     total cpu time spent up to now is      227.8 secs

     total energy              =     -95.10845170 Ry
     Harris-Foulkes estimate   =     -95.18578509 Ry
     estimated scf accuracy    <       0.17563351 Ry

     iteration #  3     ecut=    40.00 Ry     beta=0.70
     Davidson diagonalization with overlap
     ethr =  1.18E-03,  avg # of iterations =  1.2

     total cpu time spent up to now is      230.0 secs

     total energy              =     -95.10556229 Ry
     Harris-Foulkes estimate   =     -95.11878779 Ry
     estimated scf accuracy    <       0.03785767 Ry

     iteration #  4     ecut=    40.00 Ry     beta=0.70
     Davidson diagonalization with overlap
     ethr =  4.21E-04,  avg # of iterations =  1.0

     total cpu time spent up to now is      232.2 secs

     total energy              =     -95.10282152 Ry
     Harris-Foulkes estimate   =     -95.10718473 Ry
     estimated scf accuracy    <       0.01239344 Ry

     iteration #  5     ecut=    40.00 Ry     beta=0.70
     Davidson diagonalization with overlap
     ethr =  1.38E-04,  avg # of iterations =  1.0

     total cpu time spent up to now is      234.4 secs

     total energy              =     -95.10113994 Ry
     Harris-Foulkes estimate   =     -95.10331265 Ry
     estimated scf accuracy    <       0.00413720 Ry

     iteration #  6     ecut=    40.00 Ry     beta=0.70
     Davidson diagonalization with overlap
     ethr =  4.60E-05,  avg # of iterations =  1.2

     total cpu time spent up to now is      236.6 secs

     total energy              =     -95.10129856 Ry
     Harris-Foulkes estimate   =     -95.10154405 Ry
     estimated scf accuracy    <       0.00041478 Ry

     iteration #  7     ecut=    40.00 Ry     beta=0.70
     Davidson diagonalization with overlap
     ethr =  4.61E-06,  avg # of iterations =  2.4

     total cpu time spent up to now is      239.4 secs

     total energy              =     -95.10137336 Ry
     Harris-Foulkes estimate   =     -95.10137106 Ry
     estimated scf accuracy    <       0.00001431 Ry

     iteration #  8     ecut=    40.00 Ry     beta=0.70
     Davidson diagonalization with overlap
     ethr =  1.59E-07,  avg # of iterations =  1.1

     total cpu time spent up to now is      241.6 secs

     total energy              =     -95.10135843 Ry
     Harris-Foulkes estimate   =     -95.10137353 Ry
     estimated scf accuracy    <       0.00001929 Ry

     iteration #  9     ecut=    40.00 Ry     beta=0.70
     Davidson diagonalization with overlap
     ethr =  1.59E-07,  avg # of iterations =  2.0

     total cpu time spent up to now is      244.3 secs

     total energy              =     -95.10136426 Ry
     Harris-Foulkes estimate   =     -95.10136537 Ry
     estimated scf accuracy    <       0.00000172 Ry

     iteration # 10     ecut=    40.00 Ry     beta=0.70
     Davidson diagonalization with overlap
     ethr =  1.91E-08,  avg # of iterations =  2.0

     total cpu time spent up to now is      247.0 secs

     total energy              =     -95.10136457 Ry
     Harris-Foulkes estimate   =     -95.10136458 Ry
     estimated scf accuracy    <          8.6E-09 Ry

     iteration # 11     ecut=    40.00 Ry     beta=0.70
     Davidson diagonalization with overlap
     ethr =  9.50E-11,  avg # of iterations =  2.0

     total cpu time spent up to now is      249.7 secs

     total energy              =     -95.10136457 Ry
     Harris-Foulkes estimate   =     -95.10136457 Ry
     estimated scf accuracy    <          2.4E-09 Ry

     iteration # 12     ecut=    40.00 Ry     beta=0.70
     Davidson diagonalization with overlap
     ethr =  2.61E-11,  avg # of iterations =  1.0

     total cpu time spent up to now is      251.9 secs

     total energy              =     -95.10136457 Ry
     Harris-Foulkes estimate   =     -95.10136457 Ry
     estimated scf accuracy    <          1.8E-10 Ry

     iteration # 13     ecut=    40.00 Ry     beta=0.70
     Davidson diagonalization with overlap
     ethr =  2.04E-12,  avg # of iterations =  2.0

     total cpu time spent up to now is      254.6 secs

     End of self-consistent calculation

     Number of k-points >= 100: set verbosity='high' to print the bands.

     the Fermi energy is     2.5226 ev

!    total energy              =     -95.10136457 Ry
     Harris-Foulkes estimate   =     -95.10136457 Ry
     estimated scf accuracy    <          3.9E-12 Ry

     The total energy is the sum of the following terms:

     one-electron contribution =     -83.69619204 Ry
     hartree contribution      =      42.56280503 Ry
     xc contribution           =     -14.29645261 Ry
     ewald contribution        =     -39.67148509 Ry
     smearing contrib. (-TS)   =      -0.00003986 Ry

     convergence has been achieved in  13 iterations

     Forces acting on atoms (cartesian axes, Ry/au):

     atom    1 type  1   force =     0.00000000    0.00000000    0.00000000

     Total force =     0.000000     Total SCF correction =     0.000000


     Computing stress (Cartesian axis) and pressure

          total   stress  (Ry/bohr**3)                   (kbar)     P=   21.65
   0.00014718   0.00000000  -0.00000000         21.65      0.00     -0.00
   0.00000000   0.00014718   0.00000000          0.00     21.65      0.00
  -0.00000000   0.00000000   0.00014718         -0.00      0.00     21.65


     number of scf cycles    =   6
     number of bfgs steps    =   5

     enthalpy old            =     -95.0730450632 Ry
     enthalpy new            =     -95.0734814825 Ry

     CASE: enthalpy_new < enthalpy_old

     new trust radius        =       0.0108520122 bohr
     new conv_thr            =            1.0E-10 Ry

     new unit-cell volume =    207.42718 a.u.^3 (    30.73754 Ang^3 )
     density =      1.24199 g/cm^3

CELL_PARAMETERS (alat=  8.00000000)
  -0.587293554   0.000000000   0.587293554
  -0.000000000   0.587293554   0.587293554
  -0.587293554   0.587293554   0.000000000

ATOMIC_POSITIONS (crystal)
Na       0.000000000   0.000000000   0.000000000



     Writing output data file na.fcc.save
     NEW-OLD atomic charge density approx. for the potential
     extrapolated charge    9.10146, renormalised to    9.00000

     total cpu time spent up to now is      256.4 secs

     per-process dynamical memory:    31.2 Mb

     Self-consistent Calculation

     iteration #  1     ecut=    40.00 Ry     beta=0.70
     Davidson diagonalization with overlap
     ethr =  1.00E-06,  avg # of iterations =  3.1

     total cpu time spent up to now is      260.2 secs

     total energy              =     -95.09474238 Ry
     Harris-Foulkes estimate   =     -94.34773330 Ry
     estimated scf accuracy    <       0.00387906 Ry

     iteration #  2     ecut=    40.00 Ry     beta=0.70
     Davidson diagonalization with overlap
     ethr =  4.31E-05,  avg # of iterations =  2.8

     total cpu time spent up to now is      263.6 secs

     total energy              =     -95.10185353 Ry
     Harris-Foulkes estimate   =     -95.10470345 Ry
     estimated scf accuracy    <       0.00648725 Ry

     iteration #  3     ecut=    40.00 Ry     beta=0.70
     Davidson diagonalization with overlap
     ethr =  4.31E-05,  avg # of iterations =  1.5

     total cpu time spent up to now is      265.9 secs

     total energy              =     -95.10185243 Ry
     Harris-Foulkes estimate   =     -95.10227293 Ry
     estimated scf accuracy    <       0.00128128 Ry

     iteration #  4     ecut=    40.00 Ry     beta=0.70
     Davidson diagonalization with overlap
     ethr =  1.42E-05,  avg # of iterations =  1.0

     total cpu time spent up to now is      268.1 secs

     total energy              =     -95.10173659 Ry
     Harris-Foulkes estimate   =     -95.10190311 Ry
     estimated scf accuracy    <       0.00044918 Ry

     iteration #  5     ecut=    40.00 Ry     beta=0.70
     Davidson diagonalization with overlap
     ethr =  4.99E-06,  avg # of iterations =  1.0

     total cpu time spent up to now is      270.3 secs

     total energy              =     -95.10171430 Ry
     Harris-Foulkes estimate   =     -95.10175707 Ry
     estimated scf accuracy    <       0.00013300 Ry

     iteration #  6     ecut=    40.00 Ry     beta=0.70
     Davidson diagonalization with overlap
     ethr =  1.48E-06,  avg # of iterations =  1.0

     total cpu time spent up to now is      272.5 secs

     total energy              =     -95.10169294 Ry
     Harris-Foulkes estimate   =     -95.10171887 Ry
     estimated scf accuracy    <       0.00004976 Ry

     iteration #  7     ecut=    40.00 Ry     beta=0.70
     Davidson diagonalization with overlap
     ethr =  5.53E-07,  avg # of iterations =  1.2

     total cpu time spent up to now is      274.8 secs

     total energy              =     -95.10169432 Ry
     Harris-Foulkes estimate   =     -95.10169776 Ry
     estimated scf accuracy    <       0.00000496 Ry

     iteration #  8     ecut=    40.00 Ry     beta=0.70
     Davidson diagonalization with overlap
     ethr =  5.51E-08,  avg # of iterations =  2.0

     total cpu time spent up to now is      277.5 secs

     total energy              =     -95.10169564 Ry
     Harris-Foulkes estimate   =     -95.10169564 Ry
     estimated scf accuracy    <       0.00000001 Ry

     iteration #  9     ecut=    40.00 Ry     beta=0.70
     Davidson diagonalization with overlap
     ethr =  1.12E-10,  avg # of iterations =  1.5

     total cpu time spent up to now is      279.8 secs

     total energy              =     -95.10169564 Ry
     Harris-Foulkes estimate   =     -95.10169564 Ry
     estimated scf accuracy    <          6.1E-09 Ry

     iteration # 10     ecut=    40.00 Ry     beta=0.70
     Davidson diagonalization with overlap
     ethr =  6.80E-11,  avg # of iterations =  1.9

     total cpu time spent up to now is      282.2 secs

     total energy              =     -95.10169564 Ry
     Harris-Foulkes estimate   =     -95.10169564 Ry
     estimated scf accuracy    <          3.4E-10 Ry

     iteration # 11     ecut=    40.00 Ry     beta=0.70
     Davidson diagonalization with overlap
     ethr =  3.78E-12,  avg # of iterations =  2.0

     total cpu time spent up to now is      284.8 secs

     End of self-consistent calculation

     Number of k-points >= 100: set verbosity='high' to print the bands.

     the Fermi energy is     2.4645 ev

!    total energy              =     -95.10169564 Ry
     Harris-Foulkes estimate   =     -95.10169564 Ry
     estimated scf accuracy    <          5.0E-11 Ry

     The total energy is the sum of the following terms:

     one-electron contribution =     -83.95751298 Ry
     hartree contribution      =      42.67238971 Ry
     xc contribution           =     -14.29479024 Ry
     ewald contribution        =     -39.52174190 Ry
     smearing contrib. (-TS)   =      -0.00004022 Ry

     convergence has been achieved in  11 iterations

     Forces acting on atoms (cartesian axes, Ry/au):

     atom    1 type  1   force =     0.00000000    0.00000000    0.00000000

     Total force =     0.000000     Total SCF correction =     0.000000


     Computing stress (Cartesian axis) and pressure

          total   stress  (Ry/bohr**3)                   (kbar)     P=   19.93
   0.00013548   0.00000000   0.00000000         19.93      0.00      0.00
   0.00000000   0.00013548  -0.00000000          0.00     19.93     -0.00
   0.00000000  -0.00000000   0.00013548          0.00     -0.00     19.93


     bfgs converged in   7 scf cycles and   6 bfgs steps
     (criteria: energy <  1.0E-04 Ry, force <  1.0E-03Ry/Bohr, cell <  5.0E-01kbar)

     End of BFGS Geometry Optimization

     Final enthalpy =     -95.0734944082 Ry
Begin final coordinates
     new unit-cell volume =    207.42718 a.u.^3 (    30.73754 Ang^3 )
     density =      1.24199 g/cm^3

CELL_PARAMETERS (alat=  8.00000000)
  -0.587293554   0.000000000   0.587293554
  -0.000000000   0.587293554   0.587293554
  -0.587293554   0.587293554   0.000000000

ATOMIC_POSITIONS (crystal)
Na       0.000000000   0.000000000   0.000000000
End final coordinates



     A final scf calculation at the relaxed structure.
     The G-vectors are recalculated for the final unit cell
     Results may differ from those at the preceding step.

     Parallelization info
     --------------------
     sticks:   dense  smooth     PW     G-vecs:    dense   smooth      PW
     Min         241     124     40                 4996     1779     351
     Max         244     126     41                 4997     1781     354
     Sum         967     499    163                19987     7119    1411



     bravais-lattice index     =            2
     lattice parameter (alat)  =       8.0000  a.u.
     unit-cell volume          =     207.4272 (a.u.)^3
     number of atoms/cell      =            1
     number of atomic types    =            1
     number of electrons       =         9.00
     number of Kohn-Sham states=            9
     kinetic-energy cutoff     =      40.0000  Ry
     charge density cutoff     =     320.0000  Ry
     convergence threshold     =      1.0E-10
     mixing beta               =       0.7000
     number of iterations used =            8  plain     mixing
     Exchange-correlation      = SLA  PW   PBE  PBE ( 1  4  3  4 0 0)

     celldm(1)=   8.000000  celldm(2)=   0.000000  celldm(3)=   0.000000
     celldm(4)=   0.000000  celldm(5)=   0.000000  celldm(6)=   0.000000

     crystal axes: (cart. coord. in units of alat)
               a(1) = (  -0.587294   0.000000   0.587294 )  
               a(2) = (  -0.000000   0.587294   0.587294 )  
               a(3) = (  -0.587294   0.587294   0.000000 )  

     reciprocal axes: (cart. coord. in units 2 pi/alat)
               b(1) = ( -0.851363 -0.851363  0.851363 )  
               b(2) = (  0.851363  0.851363  0.851363 )  
               b(3) = ( -0.851363  0.851363 -0.851363 )  


     PseudoPot. # 1 for Na read from file:
     /home/s1333534/quantum_espresso/qe-6.1/pseudo/Na_pbe_v1.uspp.F.UPF
     MD5 check sum: 76a99c7e9422403d3e93cbc85ab7bccb
     Pseudo is Ultrasoft, Zval =  9.0
     Generated by new atomic code, or converted to UPF format
     Using radial grid of  819 points,  5 beta functions with: 
                l(1) =   0
                l(2) =   0
                l(3) =   1
                l(4) =   1
                l(5) =   2
     Q(r) pseudized with  8 coefficients,  rinner =    1.250   1.250   1.250
                                                       1.250   1.250

     atomic species   valence    mass     pseudopotential
        Na             9.00    22.99000     Na( 1.00)

     48 Sym. Ops., with inversion, found



   Cartesian axes

     site n.     atom                  positions (alat units)
         1           Na  tau(   1) = (  -0.0000000   0.0000000   0.0000000  )

     number of k points=   770  Marzari-Vanderbilt smearing, width (Ry)=  0.0200

     Number of k-points >= 100: set verbosity='high' to print them.

     Dense  grid:    19987 G-vectors     FFT dimensions: (  40,  40,  40)

     Smooth grid:     7119 G-vectors     FFT dimensions: (  27,  27,  27)

     Estimated max dynamical RAM per process >      26.80MB

     Estimated total allocated dynamical RAM >     107.21MB

     Initial potential from superposition of free atoms

     starting charge    8.99371, renormalised to    9.00000
     Starting wfc are    5 randomized atomic wfcs +    4 random wfc

     Writing output data file na.fcc.save

     total cpu time spent up to now is      288.3 secs

     per-process dynamical memory:    41.9 Mb

     Self-consistent Calculation

     iteration #  1     ecut=    40.00 Ry     beta=0.70
     Davidson diagonalization with overlap
     c_bands:  1 eigenvalues not converged
     c_bands:  1 eigenvalues not converged
     c_bands:  1 eigenvalues not converged
     c_bands:  1 eigenvalues not converged
     c_bands:  1 eigenvalues not converged
     c_bands:  1 eigenvalues not converged
     ethr =  1.00E-06,  avg # of iterations = 10.9

     total cpu time spent up to now is      300.9 secs

     total energy              =     -95.10388683 Ry
     Harris-Foulkes estimate   =     -95.10420723 Ry
     estimated scf accuracy    <       0.00100634 Ry

     iteration #  2     ecut=    40.00 Ry     beta=0.70
     Davidson diagonalization with overlap
     ethr =  1.12E-05,  avg # of iterations =  2.0

     total cpu time spent up to now is      305.4 secs

     total energy              =     -95.10401159 Ry
     Harris-Foulkes estimate   =     -95.10404160 Ry
     estimated scf accuracy    <       0.00011433 Ry

     iteration #  3     ecut=    40.00 Ry     beta=0.70
     Davidson diagonalization with overlap
     ethr =  1.27E-06,  avg # of iterations =  2.0

     total cpu time spent up to now is      309.9 secs

     total energy              =     -95.10402436 Ry
     Harris-Foulkes estimate   =     -95.10402581 Ry
     estimated scf accuracy    <       0.00000698 Ry

     iteration #  4     ecut=    40.00 Ry     beta=0.70
     Davidson diagonalization with overlap
     ethr =  7.76E-08,  avg # of iterations =  1.0

     total cpu time spent up to now is      313.7 secs

     total energy              =     -95.10402498 Ry
     Harris-Foulkes estimate   =     -95.10402493 Ry
     estimated scf accuracy    <          7.9E-09 Ry

     iteration #  5     ecut=    40.00 Ry     beta=0.70
     Davidson diagonalization with overlap
     ethr =  8.78E-11,  avg # of iterations =  3.0

     total cpu time spent up to now is      319.1 secs

     total energy              =     -95.10402501 Ry
     Harris-Foulkes estimate   =     -95.10402501 Ry
     estimated scf accuracy    <          1.5E-09 Ry

     iteration #  6     ecut=    40.00 Ry     beta=0.70
     Davidson diagonalization with overlap
     ethr =  1.62E-11,  avg # of iterations =  1.6

     total cpu time spent up to now is      323.1 secs

     End of self-consistent calculation

     Number of k-points >= 100: set verbosity='high' to print the bands.

     the Fermi energy is     2.4668 ev

!    total energy              =     -95.10402502 Ry
     Harris-Foulkes estimate   =     -95.10402501 Ry
     estimated scf accuracy    <          2.5E-11 Ry

     The total energy is the sum of the following terms:

     one-electron contribution =     -83.95602678 Ry
     hartree contribution      =      42.66786076 Ry
     xc contribution           =     -14.29407687 Ry
     ewald contribution        =     -39.52174188 Ry
     smearing contrib. (-TS)   =      -0.00004024 Ry

     convergence has been achieved in   6 iterations

     Forces acting on atoms (cartesian axes, Ry/au):

     atom    1 type  1   force =     0.00000000    0.00000000    0.00000000

     Total force =     0.000000     Total SCF correction =     0.000000


     Computing stress (Cartesian axis) and pressure

          total   stress  (Ry/bohr**3)                   (kbar)     P=   17.13
   0.00011642  -0.00000000   0.00000000         17.13     -0.00      0.00
  -0.00000000   0.00011642  -0.00000000         -0.00     17.13     -0.00
   0.00000000  -0.00000000   0.00011642          0.00     -0.00     17.13


     Writing output data file na.fcc.save

     init_run     :      2.92s CPU      3.04s WALL (       2 calls)
     electrons    :    295.22s CPU    307.25s WALL (       8 calls)
     update_pot   :      0.71s CPU      0.71s WALL (       6 calls)
     forces       :      1.32s CPU      1.36s WALL (       8 calls)
     stress       :      7.06s CPU      7.11s WALL (       8 calls)

     Called by init_run:
     wfcinit      :      2.30s CPU      2.42s WALL (       2 calls)
     potinit      :      0.06s CPU      0.06s WALL (       2 calls)

     Called by electrons:
     c_bands      :    245.48s CPU    255.91s WALL (     109 calls)
     sum_band     :     47.84s CPU     49.40s WALL (     109 calls)
     v_of_rho     :      0.94s CPU      0.95s WALL (     116 calls)
     newd         :      0.93s CPU      0.95s WALL (     116 calls)
     mix_rho      :      0.07s CPU      0.08s WALL (     109 calls)

     Called by c_bands:
     init_us_2    :     12.22s CPU     11.22s WALL (  181720 calls)
     cegterg      :    233.52s CPU    244.19s WALL (   83930 calls)

     Called by sum_band:
     sum_band:bec :      0.21s CPU      0.27s WALL (   83930 calls)
     addusdens    :      1.08s CPU      1.08s WALL (     109 calls)

     Called by *egterg:
     h_psi        :    184.94s CPU    192.99s WALL (  249860 calls)
     s_psi        :      2.74s CPU      2.36s WALL (  249860 calls)
     g_psi        :      1.36s CPU      1.34s WALL (  164390 calls)
     cdiaghg      :     30.47s CPU     31.34s WALL (  242930 calls)

     Called by h_psi:
     h_psi:pot    :    184.31s CPU    192.00s WALL (  249860 calls)
     h_psi:calbec :      4.27s CPU      4.04s WALL (  249860 calls)
     vloc_psi     :    177.22s CPU    184.75s WALL (  249860 calls)
     add_vuspsi   :      2.44s CPU      2.61s WALL (  249860 calls)

     General routines
     calbec       :      5.55s CPU      5.66s WALL (  364590 calls)
     fft          :      0.43s CPU      0.44s WALL (    1898 calls)
     ffts         :      0.02s CPU      0.02s WALL (     225 calls)
     fftw         :    199.60s CPU    192.60s WALL ( 4429828 calls)
     interpolate  :      0.07s CPU      0.08s WALL (     225 calls)
     davcio       :      0.01s CPU      0.02s WALL (    1540 calls)

     Parallel routines
     fft_scatter  :     27.24s CPU     35.34s WALL ( 4431951 calls)

     PWSCF        :  5m12.73s CPU     5m25.23s WALL


   This run was terminated on:  11: 4:13  20Dec2017            

=------------------------------------------------------------------------------=
   JOB DONE.
=------------------------------------------------------------------------------=
