
     Program PWSCF v.6.1 (svn rev. 13369) starts on 20Dec2017 at 10:48:18 

     This program is part of the open-source Quantum ESPRESSO suite
     for quantum simulation of materials; please cite
         "P. Giannozzi et al., J. Phys.:Condens. Matter 21 395502 (2009);
          URL http://www.quantum-espresso.org", 
     in publications or presentations arising from this work. More details at
     http://www.quantum-espresso.org/quote

     Parallel version (MPI), running on     4 processors
     R & G space division:  proc/nbgrp/npool/nimage =       4
     Waiting for input...
     Reading input from standard input

     Current dimensions of program PWSCF are:
     Max number of different atomic species (ntypx) = 10
     Max number of k-points (npk) =  40000
     Max angular momentum in pseudopotentials (lmaxx) =  3

     Subspace diagonalization in iterative solution of the eigenvalue problem:
     a serial algorithm will be used


     Parallelization info
     --------------------
     sticks:   dense  smooth     PW     G-vecs:    dense   smooth      PW
     Min         175      90     30                 3084     1095     234
     Max         176      91     31                 3086     1096     238
     Sum         703     361    121                12339     4381     941



     bravais-lattice index     =            2
     lattice parameter (alat)  =       8.0000  a.u.
     unit-cell volume          =     128.0000 (a.u.)^3
     number of atoms/cell      =            1
     number of atomic types    =            1
     number of electrons       =         9.00
     number of Kohn-Sham states=            9
     kinetic-energy cutoff     =      40.0000  Ry
     charge density cutoff     =     320.0000  Ry
     convergence threshold     =      1.0E-08
     mixing beta               =       0.7000
     number of iterations used =            8  plain     mixing
     Exchange-correlation      = SLA  PW   PBE  PBE ( 1  4  3  4 0 0)
     nstep                     =           50


     celldm(1)=   8.000000  celldm(2)=   0.000000  celldm(3)=   0.000000
     celldm(4)=   0.000000  celldm(5)=   0.000000  celldm(6)=   0.000000

     crystal axes: (cart. coord. in units of alat)
               a(1) = (  -0.500000   0.000000   0.500000 )  
               a(2) = (   0.000000   0.500000   0.500000 )  
               a(3) = (  -0.500000   0.500000   0.000000 )  

     reciprocal axes: (cart. coord. in units 2 pi/alat)
               b(1) = ( -1.000000 -1.000000  1.000000 )  
               b(2) = (  1.000000  1.000000  1.000000 )  
               b(3) = ( -1.000000  1.000000 -1.000000 )  


     PseudoPot. # 1 for Na read from file:
     /home/s1333534/quantum_espresso/qe-6.1/pseudo/Na_pbe_v1.uspp.F.UPF
     MD5 check sum: 76a99c7e9422403d3e93cbc85ab7bccb
     Pseudo is Ultrasoft, Zval =  9.0
     Generated by new atomic code, or converted to UPF format
     Using radial grid of  819 points,  5 beta functions with: 
                l(1) =   0
                l(2) =   0
                l(3) =   1
                l(4) =   1
                l(5) =   2
     Q(r) pseudized with  8 coefficients,  rinner =    1.250   1.250   1.250
                                                       1.250   1.250

     atomic species   valence    mass     pseudopotential
        Na             9.00    22.99000     Na( 1.00)

     48 Sym. Ops., with inversion, found



   Cartesian axes

     site n.     atom                  positions (alat units)
         1           Na  tau(   1) = (   0.0000000   0.0000000   0.0000000  )

     number of k points=   770  Marzari-Vanderbilt smearing, width (Ry)=  0.0200

     Number of k-points >= 100: set verbosity='high' to print them.

     Dense  grid:    12339 G-vectors     FFT dimensions: (  36,  36,  36)

     Smooth grid:     4381 G-vectors     FFT dimensions: (  24,  24,  24)

     Estimated max dynamical RAM per process >      16.64MB

     Estimated total allocated dynamical RAM >      66.55MB

     Initial potential from superposition of free atoms

     starting charge    8.99371, renormalised to    9.00000
     Starting wfc are    5 randomized atomic wfcs +    4 random wfc

     total cpu time spent up to now is        1.2 secs

     per-process dynamical memory:    24.8 Mb

     Self-consistent Calculation

     iteration #  1     ecut=    40.00 Ry     beta=0.70
     Davidson diagonalization with overlap
     ethr =  1.00E-02,  avg # of iterations =  5.1

     Threshold (ethr) on eigenvalues was too large:
     Diagonalizing with lowered threshold

     Davidson diagonalization with overlap
     ethr =  2.47E-05,  avg # of iterations =  2.4

     total cpu time spent up to now is        8.3 secs

     total energy              =     -95.06263719 Ry
     Harris-Foulkes estimate   =     -95.06346383 Ry
     estimated scf accuracy    <       0.00221907 Ry

     iteration #  2     ecut=    40.00 Ry     beta=0.70
     Davidson diagonalization with overlap
     ethr =  2.47E-05,  avg # of iterations =  2.0

     total cpu time spent up to now is       10.8 secs

     total energy              =     -95.06293327 Ry
     Harris-Foulkes estimate   =     -95.06299962 Ry
     estimated scf accuracy    <       0.00025023 Ry

     iteration #  3     ecut=    40.00 Ry     beta=0.70
     Davidson diagonalization with overlap
     ethr =  2.78E-06,  avg # of iterations =  2.1

     total cpu time spent up to now is       13.4 secs

     total energy              =     -95.06296602 Ry
     Harris-Foulkes estimate   =     -95.06296754 Ry
     estimated scf accuracy    <       0.00001446 Ry

     iteration #  4     ecut=    40.00 Ry     beta=0.70
     Davidson diagonalization with overlap
     ethr =  1.61E-07,  avg # of iterations =  1.0

     total cpu time spent up to now is       15.6 secs

     total energy              =     -95.06296732 Ry
     Harris-Foulkes estimate   =     -95.06296725 Ry
     estimated scf accuracy    <       0.00000002 Ry

     iteration #  5     ecut=    40.00 Ry     beta=0.70
     Davidson diagonalization with overlap
     ethr =  2.20E-10,  avg # of iterations =  3.0

     total cpu time spent up to now is       18.8 secs

     End of self-consistent calculation

     Number of k-points >= 100: set verbosity='high' to print the bands.

     the Fermi energy is     5.7098 ev

!    total energy              =     -95.06296737 Ry
     Harris-Foulkes estimate   =     -95.06296737 Ry
     estimated scf accuracy    <          2.7E-09 Ry

     The total energy is the sum of the following terms:

     one-electron contribution =     -72.01868817 Ry
     hartree contribution      =      37.75480527 Ry
     xc contribution           =     -14.37732448 Ry
     ewald contribution        =     -46.42172850 Ry
     smearing contrib. (-TS)   =      -0.00003149 Ry

     convergence has been achieved in   5 iterations

     Forces acting on atoms (cartesian axes, Ry/au):

     atom    1 type  1   force =     0.00000000    0.00000000    0.00000000

     Total force =     0.000000     Total SCF correction =     0.000000


     Computing stress (Cartesian axis) and pressure

          total   stress  (Ry/bohr**3)                   (kbar)     P=  175.59
   0.00119366   0.00000000   0.00000000        175.59      0.00      0.00
   0.00000000   0.00119366  -0.00000000          0.00    175.59     -0.00
   0.00000000  -0.00000000   0.00119366          0.00     -0.00    175.59


     BFGS Geometry Optimization

     number of scf cycles    =   1
     number of bfgs steps    =   0

     enthalpy new            =     -95.0629673702 Ry

     new trust radius        =       0.0675238299 bohr
     new conv_thr            =       0.0000000100 Ry

     new unit-cell volume =    139.80454 a.u.^3 (    20.71689 Ang^3 )
     density =      1.84274 g/cm^3

CELL_PARAMETERS (alat=  8.00000000)
  -0.514920800  -0.000000000   0.514920800
   0.000000000   0.514920800   0.514920800
  -0.514920800   0.514920800  -0.000000000

ATOMIC_POSITIONS (crystal)
Na       0.000000000   0.000000000   0.000000000



     Writing output data file na.fcc.save
     NEW-OLD atomic charge density approx. for the potential
     extrapolated charge    9.75939, renormalised to    9.00000

     total cpu time spent up to now is       20.6 secs

     per-process dynamical memory:    31.6 Mb

     Self-consistent Calculation

     iteration #  1     ecut=    40.00 Ry     beta=0.70
     Davidson diagonalization with overlap
     ethr =  1.00E-06,  avg # of iterations =  4.5

     total cpu time spent up to now is       25.3 secs

     total energy              =     -94.57701788 Ry
     Harris-Foulkes estimate   =     -90.09992599 Ry
     estimated scf accuracy    <       0.28003204 Ry

     iteration #  2     ecut=    40.00 Ry     beta=0.70
     Davidson diagonalization with overlap
     ethr =  3.11E-03,  avg # of iterations =  3.0

     total cpu time spent up to now is       28.7 secs

     total energy              =     -95.09837194 Ry
     Harris-Foulkes estimate   =     -95.30172808 Ry
     estimated scf accuracy    <       0.46041095 Ry

     iteration #  3     ecut=    40.00 Ry     beta=0.70
     Davidson diagonalization with overlap
     ethr =  3.11E-03,  avg # of iterations =  1.0

     total cpu time spent up to now is       30.9 secs

     total energy              =     -95.08601635 Ry
     Harris-Foulkes estimate   =     -95.12373981 Ry
     estimated scf accuracy    <       0.10491394 Ry

     iteration #  4     ecut=    40.00 Ry     beta=0.70
     Davidson diagonalization with overlap
     ethr =  1.17E-03,  avg # of iterations =  1.0

     total cpu time spent up to now is       33.1 secs

     total energy              =     -95.08513477 Ry
     Harris-Foulkes estimate   =     -95.09071976 Ry
     estimated scf accuracy    <       0.03321922 Ry

     iteration #  5     ecut=    40.00 Ry     beta=0.70
     Davidson diagonalization with overlap
     ethr =  3.69E-04,  avg # of iterations =  1.0

     total cpu time spent up to now is       35.3 secs

     total energy              =     -95.07979583 Ry
     Harris-Foulkes estimate   =     -95.08555402 Ry
     estimated scf accuracy    <       0.02237784 Ry

     iteration #  6     ecut=    40.00 Ry     beta=0.70
     Davidson diagonalization with overlap
     ethr =  2.49E-04,  avg # of iterations =  1.0

     total cpu time spent up to now is       37.6 secs

     total energy              =     -95.07307364 Ry
     Harris-Foulkes estimate   =     -95.08020073 Ry
     estimated scf accuracy    <       0.01120603 Ry

     iteration #  7     ecut=    40.00 Ry     beta=0.70
     Davidson diagonalization with overlap
     ethr =  1.25E-04,  avg # of iterations =  2.0

     total cpu time spent up to now is       40.2 secs

     total energy              =     -95.07496479 Ry
     Harris-Foulkes estimate   =     -95.07501642 Ry
     estimated scf accuracy    <       0.00014212 Ry

     iteration #  8     ecut=    40.00 Ry     beta=0.70
     Davidson diagonalization with overlap
     ethr =  1.58E-06,  avg # of iterations =  2.5

     total cpu time spent up to now is       42.8 secs

     total energy              =     -95.07494054 Ry
     Harris-Foulkes estimate   =     -95.07497335 Ry
     estimated scf accuracy    <       0.00003978 Ry

     iteration #  9     ecut=    40.00 Ry     beta=0.70
     Davidson diagonalization with overlap
     ethr =  4.42E-07,  avg # of iterations =  2.0

     total cpu time spent up to now is       45.6 secs

     total energy              =     -95.07496918 Ry
     Harris-Foulkes estimate   =     -95.07497155 Ry
     estimated scf accuracy    <       0.00003955 Ry

     iteration # 10     ecut=    40.00 Ry     beta=0.70
     Davidson diagonalization with overlap
     ethr =  4.39E-07,  avg # of iterations =  1.0

     total cpu time spent up to now is       47.8 secs

     total energy              =     -95.07495359 Ry
     Harris-Foulkes estimate   =     -95.07496925 Ry
     estimated scf accuracy    <       0.00003548 Ry

     iteration # 11     ecut=    40.00 Ry     beta=0.70
     Davidson diagonalization with overlap
     ethr =  3.94E-07,  avg # of iterations =  1.0

     total cpu time spent up to now is       50.0 secs

     total energy              =     -95.07495468 Ry
     Harris-Foulkes estimate   =     -95.07495663 Ry
     estimated scf accuracy    <       0.00000291 Ry

     iteration # 12     ecut=    40.00 Ry     beta=0.70
     Davidson diagonalization with overlap
     ethr =  3.23E-08,  avg # of iterations =  2.0

     total cpu time spent up to now is       52.7 secs

     total energy              =     -95.07495547 Ry
     Harris-Foulkes estimate   =     -95.07495595 Ry
     estimated scf accuracy    <       0.00000088 Ry

     iteration # 13     ecut=    40.00 Ry     beta=0.70
     Davidson diagonalization with overlap
     ethr =  9.79E-09,  avg # of iterations =  2.0

     total cpu time spent up to now is       55.4 secs

     total energy              =     -95.07495566 Ry
     Harris-Foulkes estimate   =     -95.07495569 Ry
     estimated scf accuracy    <       0.00000006 Ry

     iteration # 14     ecut=    40.00 Ry     beta=0.70
     Davidson diagonalization with overlap
     ethr =  6.54E-10,  avg # of iterations =  1.0

     total cpu time spent up to now is       57.6 secs

     End of self-consistent calculation

     Number of k-points >= 100: set verbosity='high' to print the bands.

     the Fermi energy is     4.9810 ev

!    total energy              =     -95.07495566 Ry
     Harris-Foulkes estimate   =     -95.07495567 Ry
     estimated scf accuracy    <          7.6E-09 Ry

     The total energy is the sum of the following terms:

     one-electron contribution =     -74.32791648 Ry
     hartree contribution      =      38.68925629 Ry
     xc contribution           =     -14.35969203 Ry
     ewald contribution        =     -45.07657152 Ry
     smearing contrib. (-TS)   =      -0.00003191 Ry

     convergence has been achieved in  14 iterations

     Forces acting on atoms (cartesian axes, Ry/au):

     atom    1 type  1   force =     0.00000000    0.00000000    0.00000000

     Total force =     0.000000     Total SCF correction =     0.000000


     Computing stress (Cartesian axis) and pressure

          total   stress  (Ry/bohr**3)                   (kbar)     P=  124.78
   0.00084824   0.00000000   0.00000000        124.78      0.00      0.00
  -0.00000000   0.00084824  -0.00000000         -0.00    124.78     -0.00
   0.00000000  -0.00000000   0.00084824          0.00     -0.00    124.78


     number of scf cycles    =   2
     number of bfgs steps    =   1

     enthalpy old            =     -95.0629673702 Ry
     enthalpy new            =     -95.0749556599 Ry

     CASE: enthalpy_new < enthalpy_old

     new trust radius        =       0.0753763264 bohr
     new conv_thr            =            1.0E-10 Ry

     new unit-cell volume =    153.60381 a.u.^3 (    22.76174 Ang^3 )
     density =      1.67719 g/cm^3

CELL_PARAMETERS (alat=  8.00000000)
  -0.531333679  -0.000000000   0.531333679
   0.000000000   0.531333679   0.531333679
  -0.531333679   0.531333679  -0.000000000

ATOMIC_POSITIONS (crystal)
Na       0.000000000   0.000000000   0.000000000



     Writing output data file na.fcc.save
     NEW-OLD atomic charge density approx. for the potential
     extrapolated charge    9.80797, renormalised to    9.00000

     total cpu time spent up to now is       59.4 secs

     per-process dynamical memory:    31.6 Mb

     Self-consistent Calculation

     iteration #  1     ecut=    40.00 Ry     beta=0.70
     Davidson diagonalization with overlap
     ethr =  1.00E-06,  avg # of iterations =  4.6

     total cpu time spent up to now is       64.1 secs

     total energy              =     -94.49395689 Ry
     Harris-Foulkes estimate   =     -89.61145436 Ry
     estimated scf accuracy    <       0.33269283 Ry

     iteration #  2     ecut=    40.00 Ry     beta=0.70
     Davidson diagonalization with overlap
     ethr =  3.70E-03,  avg # of iterations =  3.0

     total cpu time spent up to now is       67.5 secs

     total energy              =     -95.11383092 Ry
     Harris-Foulkes estimate   =     -95.35460542 Ry
     estimated scf accuracy    <       0.54419363 Ry

     iteration #  3     ecut=    40.00 Ry     beta=0.70
     Davidson diagonalization with overlap
     ethr =  3.70E-03,  avg # of iterations =  1.0

     total cpu time spent up to now is       69.7 secs

     total energy              =     -95.09774632 Ry
     Harris-Foulkes estimate   =     -95.14341413 Ry
     estimated scf accuracy    <       0.12529963 Ry

     iteration #  4     ecut=    40.00 Ry     beta=0.70
     Davidson diagonalization with overlap
     ethr =  1.39E-03,  avg # of iterations =  1.0

     total cpu time spent up to now is       71.9 secs

     total energy              =     -95.09599577 Ry
     Harris-Foulkes estimate   =     -95.10342118 Ry
     estimated scf accuracy    <       0.03915911 Ry

     iteration #  5     ecut=    40.00 Ry     beta=0.70
     Davidson diagonalization with overlap
     ethr =  4.35E-04,  avg # of iterations =  1.0

     total cpu time spent up to now is       74.1 secs

     total energy              =     -95.08900935 Ry
     Harris-Foulkes estimate   =     -95.09656269 Ry
     estimated scf accuracy    <       0.02460993 Ry

     iteration #  6     ecut=    40.00 Ry     beta=0.70
     Davidson diagonalization with overlap
     ethr =  2.73E-04,  avg # of iterations =  1.0

     total cpu time spent up to now is       76.4 secs

     total energy              =     -95.08270123 Ry
     Harris-Foulkes estimate   =     -95.08963343 Ry
     estimated scf accuracy    <       0.01036588 Ry

     iteration #  7     ecut=    40.00 Ry     beta=0.70
     Davidson diagonalization with overlap
     ethr =  1.15E-04,  avg # of iterations =  2.0

     total cpu time spent up to now is       79.0 secs

     total energy              =     -95.08478914 Ry
     Harris-Foulkes estimate   =     -95.08479341 Ry
     estimated scf accuracy    <       0.00002580 Ry

     iteration #  8     ecut=    40.00 Ry     beta=0.70
     Davidson diagonalization with overlap
     ethr =  2.87E-07,  avg # of iterations =  2.7

     total cpu time spent up to now is       82.1 secs

     total energy              =     -95.08478495 Ry
     Harris-Foulkes estimate   =     -95.08480058 Ry
     estimated scf accuracy    <       0.00005453 Ry

     iteration #  9     ecut=    40.00 Ry     beta=0.70
     Davidson diagonalization with overlap
     ethr =  2.87E-07,  avg # of iterations =  1.0

     total cpu time spent up to now is       84.3 secs

     total energy              =     -95.08478890 Ry
     Harris-Foulkes estimate   =     -95.08478681 Ry
     estimated scf accuracy    <       0.00000196 Ry

     iteration # 10     ecut=    40.00 Ry     beta=0.70
     Davidson diagonalization with overlap
     ethr =  2.18E-08,  avg # of iterations =  2.0

     total cpu time spent up to now is       87.1 secs

     total energy              =     -95.08478438 Ry
     Harris-Foulkes estimate   =     -95.08478986 Ry
     estimated scf accuracy    <       0.00000744 Ry

     iteration # 11     ecut=    40.00 Ry     beta=0.70
     Davidson diagonalization with overlap
     ethr =  2.18E-08,  avg # of iterations =  2.0

     total cpu time spent up to now is       89.8 secs

     total energy              =     -95.08478650 Ry
     Harris-Foulkes estimate   =     -95.08478662 Ry
     estimated scf accuracy    <       0.00000030 Ry

     iteration # 12     ecut=    40.00 Ry     beta=0.70
     Davidson diagonalization with overlap
     ethr =  3.33E-09,  avg # of iterations =  1.0

     total cpu time spent up to now is       92.1 secs

     total energy              =     -95.08478649 Ry
     Harris-Foulkes estimate   =     -95.08478652 Ry
     estimated scf accuracy    <       0.00000007 Ry

     iteration # 13     ecut=    40.00 Ry     beta=0.70
     Davidson diagonalization with overlap
     ethr =  7.93E-10,  avg # of iterations =  1.0

     total cpu time spent up to now is       94.3 secs

     total energy              =     -95.08478649 Ry
     Harris-Foulkes estimate   =     -95.08478650 Ry
     estimated scf accuracy    <       0.00000001 Ry

     iteration # 14     ecut=    40.00 Ry     beta=0.70
     Davidson diagonalization with overlap
     ethr =  1.38E-10,  avg # of iterations =  2.0

     total cpu time spent up to now is       97.0 secs

     total energy              =     -95.08478649 Ry
     Harris-Foulkes estimate   =     -95.08478649 Ry
     estimated scf accuracy    <          1.6E-09 Ry

     iteration # 15     ecut=    40.00 Ry     beta=0.70
     Davidson diagonalization with overlap
     ethr =  1.80E-11,  avg # of iterations =  1.8

     total cpu time spent up to now is       99.4 secs

     End of self-consistent calculation

     Number of k-points >= 100: set verbosity='high' to print the bands.

     the Fermi energy is     4.2777 ev

!    total energy              =     -95.08478649 Ry
     Harris-Foulkes estimate   =     -95.08478649 Ry
     estimated scf accuracy    <          2.1E-11 Ry

     The total energy is the sum of the following terms:

     one-electron contribution =     -76.72807890 Ry
     hartree contribution      =      39.66988211 Ry
     xc contribution           =     -14.34239894 Ry
     ewald contribution        =     -43.68415774 Ry
     smearing contrib. (-TS)   =      -0.00003302 Ry

     convergence has been achieved in  15 iterations

     Forces acting on atoms (cartesian axes, Ry/au):

     atom    1 type  1   force =     0.00000000    0.00000000    0.00000000

     Total force =     0.000000     Total SCF correction =     0.000000


     Computing stress (Cartesian axis) and pressure

          total   stress  (Ry/bohr**3)                   (kbar)     P=   86.28
   0.00058655  -0.00000000  -0.00000000         86.28     -0.00     -0.00
  -0.00000000   0.00058655   0.00000000         -0.00     86.28      0.00
  -0.00000000   0.00000000   0.00058655         -0.00      0.00     86.28


     number of scf cycles    =   3
     number of bfgs steps    =   2

     enthalpy old            =     -95.0749556599 Ry
     enthalpy new            =     -95.0847864921 Ry

     CASE: enthalpy_new < enthalpy_old

     new trust radius        =       0.1148522961 bohr
     new conv_thr            =            1.0E-10 Ry

     new unit-cell volume =    175.96009 a.u.^3 (    26.07460 Ang^3 )
     density =      1.46410 g/cm^3

CELL_PARAMETERS (alat=  8.00000000)
  -0.555952998  -0.000000000   0.555952998
   0.000000000   0.555952998   0.555952998
  -0.555952998   0.555952998  -0.000000000

ATOMIC_POSITIONS (crystal)
Na       0.000000000   0.000000000   0.000000000



     Writing output data file na.fcc.save
     NEW-OLD atomic charge density approx. for the potential
     extrapolated charge   10.14268, renormalised to    9.00000

     total cpu time spent up to now is      101.3 secs

     per-process dynamical memory:    31.6 Mb

     Self-consistent Calculation

     iteration #  1     ecut=    40.00 Ry     beta=0.70
     Davidson diagonalization with overlap
     ethr =  1.00E-06,  avg # of iterations =  5.0

     total cpu time spent up to now is      106.2 secs

     total energy              =     -93.58038399 Ry
     Harris-Foulkes estimate   =     -87.02402788 Ry
     estimated scf accuracy    <       0.87061314 Ry

     iteration #  2     ecut=    40.00 Ry     beta=0.70
     Davidson diagonalization with overlap
     ethr =  9.67E-03,  avg # of iterations =  3.0

     total cpu time spent up to now is      109.5 secs

     total energy              =     -95.18998277 Ry
     Harris-Foulkes estimate   =     -95.79981934 Ry
     estimated scf accuracy    <       1.35790359 Ry

     iteration #  3     ecut=    40.00 Ry     beta=0.70
     Davidson diagonalization with overlap
     ethr =  9.67E-03,  avg # of iterations =  1.0

     total cpu time spent up to now is      111.7 secs

     total energy              =     -95.12688041 Ry
     Harris-Foulkes estimate   =     -95.25737126 Ry
     estimated scf accuracy    <       0.33334264 Ry

     iteration #  4     ecut=    40.00 Ry     beta=0.70
     Davidson diagonalization with overlap
     ethr =  3.70E-03,  avg # of iterations =  1.0

     total cpu time spent up to now is      113.9 secs

     total energy              =     -95.12083594 Ry
     Harris-Foulkes estimate   =     -95.14243616 Ry
     estimated scf accuracy    <       0.09815514 Ry

     iteration #  5     ecut=    40.00 Ry     beta=0.70
     Davidson diagonalization with overlap
     ethr =  1.09E-03,  avg # of iterations =  1.0

     total cpu time spent up to now is      116.1 secs

     total energy              =     -95.10040218 Ry
     Harris-Foulkes estimate   =     -95.12248286 Ry
     estimated scf accuracy    <       0.05642747 Ry

     iteration #  6     ecut=    40.00 Ry     beta=0.70
     Davidson diagonalization with overlap
     ethr =  6.27E-04,  avg # of iterations =  1.0

     total cpu time spent up to now is      118.3 secs

     total energy              =     -95.09068223 Ry
     Harris-Foulkes estimate   =     -95.10272857 Ry
     estimated scf accuracy    <       0.01700401 Ry

     iteration #  7     ecut=    40.00 Ry     beta=0.70
     Davidson diagonalization with overlap
     ethr =  1.89E-04,  avg # of iterations =  2.0

     total cpu time spent up to now is      121.0 secs

     total energy              =     -95.09469647 Ry
     Harris-Foulkes estimate   =     -95.09470948 Ry
     estimated scf accuracy    <       0.00003229 Ry

     iteration #  8     ecut=    40.00 Ry     beta=0.70
     Davidson diagonalization with overlap
     ethr =  3.59E-07,  avg # of iterations =  3.6

     total cpu time spent up to now is      124.3 secs

     total energy              =     -95.09469783 Ry
     Harris-Foulkes estimate   =     -95.09470052 Ry
     estimated scf accuracy    <       0.00000768 Ry

     iteration #  9     ecut=    40.00 Ry     beta=0.70
     Davidson diagonalization with overlap
     ethr =  8.53E-08,  avg # of iterations =  2.0

     total cpu time spent up to now is      126.9 secs

     total energy              =     -95.09469870 Ry
     Harris-Foulkes estimate   =     -95.09469892 Ry
     estimated scf accuracy    <       0.00000283 Ry

     iteration # 10     ecut=    40.00 Ry     beta=0.70
     Davidson diagonalization with overlap
     ethr =  3.15E-08,  avg # of iterations =  1.2

     total cpu time spent up to now is      129.2 secs

     total energy              =     -95.09469906 Ry
     Harris-Foulkes estimate   =     -95.09469885 Ry
     estimated scf accuracy    <       0.00000065 Ry

     iteration # 11     ecut=    40.00 Ry     beta=0.70
     Davidson diagonalization with overlap
     ethr =  7.27E-09,  avg # of iterations =  1.0

     total cpu time spent up to now is      131.4 secs

     total energy              =     -95.09469854 Ry
     Harris-Foulkes estimate   =     -95.09469908 Ry
     estimated scf accuracy    <       0.00000108 Ry

     iteration # 12     ecut=    40.00 Ry     beta=0.70
     Davidson diagonalization with overlap
     ethr =  7.27E-09,  avg # of iterations =  2.0

     total cpu time spent up to now is      134.1 secs

     total energy              =     -95.09469861 Ry
     Harris-Foulkes estimate   =     -95.09469866 Ry
     estimated scf accuracy    <       0.00000008 Ry

     iteration # 13     ecut=    40.00 Ry     beta=0.70
     Davidson diagonalization with overlap
     ethr =  8.92E-10,  avg # of iterations =  2.0

     total cpu time spent up to now is      136.8 secs

     total energy              =     -95.09469863 Ry
     Harris-Foulkes estimate   =     -95.09469863 Ry
     estimated scf accuracy    <          3.2E-10 Ry

     iteration # 14     ecut=    40.00 Ry     beta=0.70
     Davidson diagonalization with overlap
     ethr =  3.51E-12,  avg # of iterations =  2.0

     total cpu time spent up to now is      139.5 secs

     End of self-consistent calculation

     Number of k-points >= 100: set verbosity='high' to print the bands.

     the Fermi energy is     3.3831 ev

!    total energy              =     -95.09469863 Ry
     Harris-Foulkes estimate   =     -95.09469863 Ry
     estimated scf accuracy    <          9.5E-12 Ry

     The total energy is the sum of the following terms:

     one-electron contribution =     -80.07796852 Ry
     hartree contribution      =      41.05261964 Ry
     xc contribution           =     -14.31962604 Ry
     ewald contribution        =     -41.74968805 Ry
     smearing contrib. (-TS)   =      -0.00003565 Ry

     convergence has been achieved in  14 iterations

     Forces acting on atoms (cartesian axes, Ry/au):

     atom    1 type  1   force =     0.00000000    0.00000000    0.00000000

     Total force =     0.000000     Total SCF correction =     0.000000


     Computing stress (Cartesian axis) and pressure

          total   stress  (Ry/bohr**3)                   (kbar)     P=   48.13
   0.00032719  -0.00000000  -0.00000000         48.13     -0.00     -0.00
  -0.00000000   0.00032719   0.00000000         -0.00     48.13      0.00
  -0.00000000   0.00000000   0.00032719         -0.00      0.00     48.13


     number of scf cycles    =   4
     number of bfgs steps    =   3

     enthalpy old            =     -95.0847864921 Ry
     enthalpy new            =     -95.0946986279 Ry

     CASE: enthalpy_new < enthalpy_old

     new trust radius        =       0.1762245080 bohr
     new conv_thr            =            1.0E-10 Ry

     new unit-cell volume =    213.40505 a.u.^3 (    31.62337 Ang^3 )
     density =      1.20720 g/cm^3

CELL_PARAMETERS (alat=  8.00000000)
  -0.592881977   0.000000000   0.592881977
   0.000000000   0.592881977   0.592881977
  -0.592881977   0.592881977  -0.000000000

ATOMIC_POSITIONS (crystal)
Na       0.000000000   0.000000000   0.000000000



     Writing output data file na.fcc.save
     NEW-OLD atomic charge density approx. for the potential
     extrapolated charge   10.57807, renormalised to    9.00000

     total cpu time spent up to now is      141.3 secs

     per-process dynamical memory:    31.6 Mb

     Self-consistent Calculation

     iteration #  1     ecut=    40.00 Ry     beta=0.70
     Davidson diagonalization with overlap
     ethr =  1.00E-06,  avg # of iterations =  5.6

     total cpu time spent up to now is      146.7 secs

     total energy              =     -90.42991987 Ry
     Harris-Foulkes estimate   =     -83.44653525 Ry
     estimated scf accuracy    <       2.86243831 Ry

     iteration #  2     ecut=    40.00 Ry     beta=0.70
     Davidson diagonalization with overlap
     ethr =  1.00E-02,  avg # of iterations =  3.0

     total cpu time spent up to now is      150.4 secs

     total energy              =     -95.49473093 Ry
     Harris-Foulkes estimate   =     -97.33257605 Ry
     estimated scf accuracy    <       3.93292845 Ry

     iteration #  3     ecut=    40.00 Ry     beta=0.70
     Davidson diagonalization with overlap
     ethr =  1.00E-02,  avg # of iterations =  2.0

     total cpu time spent up to now is      153.1 secs

     total energy              =     -95.19587973 Ry
     Harris-Foulkes estimate   =     -95.66279195 Ry
     estimated scf accuracy    <       1.04421274 Ry

     iteration #  4     ecut=    40.00 Ry     beta=0.70
     Davidson diagonalization with overlap
     ethr =  1.00E-02,  avg # of iterations =  1.0

     total cpu time spent up to now is      155.3 secs

     total energy              =     -95.15877605 Ry
     Harris-Foulkes estimate   =     -95.24445838 Ry
     estimated scf accuracy    <       0.27795606 Ry

     iteration #  5     ecut=    40.00 Ry     beta=0.70
     Davidson diagonalization with overlap
     ethr =  3.09E-03,  avg # of iterations =  1.0

     total cpu time spent up to now is      157.5 secs

     total energy              =     -95.11603313 Ry
     Harris-Foulkes estimate   =     -95.16568849 Ry
     estimated scf accuracy    <       0.12397369 Ry

     iteration #  6     ecut=    40.00 Ry     beta=0.70
     Davidson diagonalization with overlap
     ethr =  1.38E-03,  avg # of iterations =  1.1

     total cpu time spent up to now is      159.8 secs

     total energy              =     -95.09774500 Ry
     Harris-Foulkes estimate   =     -95.12118046 Ry
     estimated scf accuracy    <       0.03783277 Ry

     iteration #  7     ecut=    40.00 Ry     beta=0.70
     Davidson diagonalization with overlap
     ethr =  4.20E-04,  avg # of iterations =  2.2

     total cpu time spent up to now is      162.5 secs

     total energy              =     -95.10438615 Ry
     Harris-Foulkes estimate   =     -95.10310800 Ry
     estimated scf accuracy    <       0.00142144 Ry

     iteration #  8     ecut=    40.00 Ry     beta=0.70
     Davidson diagonalization with overlap
     ethr =  1.58E-05,  avg # of iterations =  3.1

     total cpu time spent up to now is      165.4 secs

     total energy              =     -95.10320084 Ry
     Harris-Foulkes estimate   =     -95.10456284 Ry
     estimated scf accuracy    <       0.00430906 Ry

     iteration #  9     ecut=    40.00 Ry     beta=0.70
     Davidson diagonalization with overlap
     ethr =  1.58E-05,  avg # of iterations =  1.0

     total cpu time spent up to now is      167.6 secs

     total energy              =     -95.10252649 Ry
     Harris-Foulkes estimate   =     -95.10331216 Ry
     estimated scf accuracy    <       0.00182717 Ry

     iteration # 10     ecut=    40.00 Ry     beta=0.70
     Davidson diagonalization with overlap
     ethr =  1.58E-05,  avg # of iterations =  1.0

     total cpu time spent up to now is      169.8 secs

     total energy              =     -95.10232622 Ry
     Harris-Foulkes estimate   =     -95.10263181 Ry
     estimated scf accuracy    <       0.00043371 Ry

     iteration # 11     ecut=    40.00 Ry     beta=0.70
     Davidson diagonalization with overlap
     ethr =  4.82E-06,  avg # of iterations =  2.0

     total cpu time spent up to now is      172.5 secs

     total energy              =     -95.10242296 Ry
     Harris-Foulkes estimate   =     -95.10242295 Ry
     estimated scf accuracy    <          7.8E-09 Ry

     iteration # 12     ecut=    40.00 Ry     beta=0.70
     Davidson diagonalization with overlap
     ethr =  8.65E-11,  avg # of iterations =  3.2

     total cpu time spent up to now is      175.8 secs

     total energy              =     -95.10242304 Ry
     Harris-Foulkes estimate   =     -95.10242305 Ry
     estimated scf accuracy    <       0.00000002 Ry

     iteration # 13     ecut=    40.00 Ry     beta=0.70
     Davidson diagonalization with overlap
     ethr =  8.65E-11,  avg # of iterations =  2.0

     total cpu time spent up to now is      178.5 secs

     total energy              =     -95.10242304 Ry
     Harris-Foulkes estimate   =     -95.10242304 Ry
     estimated scf accuracy    <          3.6E-09 Ry

     iteration # 14     ecut=    40.00 Ry     beta=0.70
     Davidson diagonalization with overlap
     ethr =  4.05E-11,  avg # of iterations =  2.0

     total cpu time spent up to now is      181.0 secs

     total energy              =     -95.10242304 Ry
     Harris-Foulkes estimate   =     -95.10242304 Ry
     estimated scf accuracy    <          2.4E-10 Ry

     iteration # 15     ecut=    40.00 Ry     beta=0.70
     Davidson diagonalization with overlap
     ethr =  2.64E-12,  avg # of iterations =  2.0

     total cpu time spent up to now is      183.7 secs

     total energy              =     -95.10242304 Ry
     Harris-Foulkes estimate   =     -95.10242304 Ry
     estimated scf accuracy    <          9.8E-10 Ry

     iteration # 16     ecut=    40.00 Ry     beta=0.70
     Davidson diagonalization with overlap
     ethr =  2.64E-12,  avg # of iterations =  2.0

     total cpu time spent up to now is      186.5 secs

     total energy              =     -95.10242304 Ry
     Harris-Foulkes estimate   =     -95.10242304 Ry
     estimated scf accuracy    <          1.5E-10 Ry

     iteration # 17     ecut=    40.00 Ry     beta=0.70
     Davidson diagonalization with overlap
     ethr =  1.65E-12,  avg # of iterations =  2.0

     total cpu time spent up to now is      189.1 secs

     End of self-consistent calculation

     Number of k-points >= 100: set verbosity='high' to print the bands.

     the Fermi energy is     2.3219 ev

!    total energy              =     -95.10242304 Ry
     Harris-Foulkes estimate   =     -95.10242304 Ry
     estimated scf accuracy    <          3.6E-12 Ry

     The total energy is the sum of the following terms:

     one-electron contribution =     -84.60800595 Ry
     hartree contribution      =      42.94550443 Ry
     xc contribution           =     -14.29066491 Ry
     ewald contribution        =     -39.14921546 Ry
     smearing contrib. (-TS)   =      -0.00004115 Ry

     convergence has been achieved in  17 iterations

     Forces acting on atoms (cartesian axes, Ry/au):

     atom    1 type  1   force =     0.00000000    0.00000000    0.00000000

     Total force =     0.000000     Total SCF correction =     0.000000


     Computing stress (Cartesian axis) and pressure

          total   stress  (Ry/bohr**3)                   (kbar)     P=   15.85
   0.00010774   0.00000000   0.00000000         15.85      0.00      0.00
   0.00000000   0.00010774   0.00000000          0.00     15.85      0.00
   0.00000000   0.00000000   0.00010774          0.00      0.00     15.85


     number of scf cycles    =   5
     number of bfgs steps    =   4

     enthalpy old            =     -95.0946986279 Ry
     enthalpy new            =     -95.1024230393 Ry

     CASE: enthalpy_new < enthalpy_old

     new trust radius        =       0.1089529275 bohr
     new conv_thr            =            1.0E-10 Ry

     new unit-cell volume =    238.18083 a.u.^3 (    35.29476 Ang^3 )
     density =      1.08163 g/cm^3

CELL_PARAMETERS (alat=  8.00000000)
  -0.614991268   0.000000000   0.614991268
   0.000000000   0.614991268   0.614991268
  -0.614991268   0.614991268  -0.000000000

ATOMIC_POSITIONS (crystal)
Na       0.000000000   0.000000000   0.000000000



     Writing output data file na.fcc.save
     NEW-OLD atomic charge density approx. for the potential
     extrapolated charge    9.93553, renormalised to    9.00000

     total cpu time spent up to now is      190.9 secs

     per-process dynamical memory:    31.6 Mb

     Self-consistent Calculation

     iteration #  1     ecut=    40.00 Ry     beta=0.70
     Davidson diagonalization with overlap
     ethr =  1.00E-06,  avg # of iterations =  5.2

     total cpu time spent up to now is      195.8 secs

     total energy              =     -94.17360527 Ry
     Harris-Foulkes estimate   =     -87.84382583 Ry
     estimated scf accuracy    <       0.52681362 Ry

     iteration #  2     ecut=    40.00 Ry     beta=0.70
     Davidson diagonalization with overlap
     ethr =  5.85E-03,  avg # of iterations =  3.0

     total cpu time spent up to now is      199.1 secs

     total energy              =     -95.15486174 Ry
     Harris-Foulkes estimate   =     -95.52612416 Ry
     estimated scf accuracy    <       0.82973997 Ry

     iteration #  3     ecut=    40.00 Ry     beta=0.70
     Davidson diagonalization with overlap
     ethr =  5.85E-03,  avg # of iterations =  1.0

     total cpu time spent up to now is      201.3 secs

     total energy              =     -95.12436674 Ry
     Harris-Foulkes estimate   =     -95.19824721 Ry
     estimated scf accuracy    <       0.19619237 Ry

     iteration #  4     ecut=    40.00 Ry     beta=0.70
     Davidson diagonalization with overlap
     ethr =  2.18E-03,  avg # of iterations =  1.0

     total cpu time spent up to now is      203.5 secs

     total energy              =     -95.11107783 Ry
     Harris-Foulkes estimate   =     -95.13307694 Ry
     estimated scf accuracy    <       0.06078884 Ry

     iteration #  5     ecut=    40.00 Ry     beta=0.70
     Davidson diagonalization with overlap
     ethr =  6.75E-04,  avg # of iterations =  1.0

     total cpu time spent up to now is      205.7 secs

     total energy              =     -95.10033780 Ry
     Harris-Foulkes estimate   =     -95.11344994 Ry
     estimated scf accuracy    <       0.02036880 Ry

     iteration #  6     ecut=    40.00 Ry     beta=0.70
     Davidson diagonalization with overlap
     ethr =  2.26E-04,  avg # of iterations =  2.0

     total cpu time spent up to now is      208.4 secs

     total energy              =     -95.10378790 Ry
     Harris-Foulkes estimate   =     -95.10374144 Ry
     estimated scf accuracy    <       0.00026233 Ry

     iteration #  7     ecut=    40.00 Ry     beta=0.70
     Davidson diagonalization with overlap
     ethr =  2.91E-06,  avg # of iterations =  3.8

     total cpu time spent up to now is      211.5 secs

     total energy              =     -95.10353252 Ry
     Harris-Foulkes estimate   =     -95.10379390 Ry
     estimated scf accuracy    <       0.00036533 Ry

     iteration #  8     ecut=    40.00 Ry     beta=0.70
     Davidson diagonalization with overlap
     ethr =  2.91E-06,  avg # of iterations =  2.0

     total cpu time spent up to now is      214.2 secs

     total energy              =     -95.10362227 Ry
     Harris-Foulkes estimate   =     -95.10362232 Ry
     estimated scf accuracy    <       0.00000177 Ry

     iteration #  9     ecut=    40.00 Ry     beta=0.70
     Davidson diagonalization with overlap
     ethr =  1.97E-08,  avg # of iterations =  1.2

     total cpu time spent up to now is      216.5 secs

     total energy              =     -95.10362345 Ry
     Harris-Foulkes estimate   =     -95.10362230 Ry
     estimated scf accuracy    <       0.00000166 Ry

     iteration # 10     ecut=    40.00 Ry     beta=0.70
     Davidson diagonalization with overlap
     ethr =  1.84E-08,  avg # of iterations =  1.1

     total cpu time spent up to now is      218.7 secs

     total energy              =     -95.10362073 Ry
     Harris-Foulkes estimate   =     -95.10362360 Ry
     estimated scf accuracy    <       0.00000447 Ry

     iteration # 11     ecut=    40.00 Ry     beta=0.70
     Davidson diagonalization with overlap
     ethr =  1.84E-08,  avg # of iterations =  2.0

     total cpu time spent up to now is      221.4 secs

     total energy              =     -95.10362154 Ry
     Harris-Foulkes estimate   =     -95.10362155 Ry
     estimated scf accuracy    <       0.00000003 Ry

     iteration # 12     ecut=    40.00 Ry     beta=0.70
     Davidson diagonalization with overlap
     ethr =  3.01E-10,  avg # of iterations =  1.9

     total cpu time spent up to now is      223.8 secs

     total energy              =     -95.10362155 Ry
     Harris-Foulkes estimate   =     -95.10362154 Ry
     estimated scf accuracy    <          8.4E-09 Ry

     iteration # 13     ecut=    40.00 Ry     beta=0.70
     Davidson diagonalization with overlap
     ethr =  9.35E-11,  avg # of iterations =  2.0

     total cpu time spent up to now is      226.5 secs

     total energy              =     -95.10362155 Ry
     Harris-Foulkes estimate   =     -95.10362155 Ry
     estimated scf accuracy    <          6.0E-09 Ry

     iteration # 14     ecut=    40.00 Ry     beta=0.70
     Davidson diagonalization with overlap
     ethr =  6.66E-11,  avg # of iterations =  1.0

     total cpu time spent up to now is      228.7 secs

     total energy              =     -95.10362154 Ry
     Harris-Foulkes estimate   =     -95.10362155 Ry
     estimated scf accuracy    <          6.0E-09 Ry

     iteration # 15     ecut=    40.00 Ry     beta=0.70
     Davidson diagonalization with overlap
     ethr =  6.61E-11,  avg # of iterations =  2.0

     total cpu time spent up to now is      231.4 secs

     total energy              =     -95.10362155 Ry
     Harris-Foulkes estimate   =     -95.10362155 Ry
     estimated scf accuracy    <          2.8E-09 Ry

     iteration # 16     ecut=    40.00 Ry     beta=0.70
     Davidson diagonalization with overlap
     ethr =  3.06E-11,  avg # of iterations =  1.6

     total cpu time spent up to now is      233.8 secs

     End of self-consistent calculation

     Number of k-points >= 100: set verbosity='high' to print the bands.

     the Fermi energy is     1.8101 ev

!    total energy              =     -95.10362155 Ry
     Harris-Foulkes estimate   =     -95.10362155 Ry
     estimated scf accuracy    <          2.6E-11 Ry

     The total energy is the sum of the following terms:

     one-electron contribution =     -87.06728063 Ry
     hartree contribution      =      43.97996602 Ry
     xc contribution           =     -14.27448316 Ry
     ewald contribution        =     -37.74177869 Ry
     smearing contrib. (-TS)   =      -0.00004509 Ry

     convergence has been achieved in  16 iterations

     Forces acting on atoms (cartesian axes, Ry/au):

     atom    1 type  1   force =     0.00000000    0.00000000    0.00000000

     Total force =     0.000000     Total SCF correction =     0.000000


     Computing stress (Cartesian axis) and pressure

          total   stress  (Ry/bohr**3)                   (kbar)     P=   -2.05
  -0.00001393  -0.00000000  -0.00000000         -2.05     -0.00     -0.00
   0.00000000  -0.00001393  -0.00000000          0.00     -2.05     -0.00
   0.00000000  -0.00000000  -0.00001393          0.00     -0.00     -2.05


     number of scf cycles    =   6
     number of bfgs steps    =   5

     enthalpy old            =     -95.1024230393 Ry
     enthalpy new            =     -95.1036215480 Ry

     CASE: enthalpy_new < enthalpy_old

     new trust radius        =       0.0135550110 bohr
     new conv_thr            =            1.0E-10 Ry

     new unit-cell volume =    235.05665 a.u.^3 (    34.83180 Ang^3 )
     density =      1.09600 g/cm^3

CELL_PARAMETERS (alat=  8.00000000)
  -0.612290511   0.000000000   0.612290511
   0.000000000   0.612290511   0.612290511
  -0.612290511   0.612290511  -0.000000000

ATOMIC_POSITIONS (crystal)
Na       0.000000000   0.000000000   0.000000000



     Writing output data file na.fcc.save
     NEW-OLD atomic charge density approx. for the potential
     extrapolated charge    8.88046, renormalised to    9.00000

     total cpu time spent up to now is      235.6 secs

     per-process dynamical memory:    31.6 Mb

     Self-consistent Calculation

     iteration #  1     ecut=    40.00 Ry     beta=0.70
     Davidson diagonalization with overlap
     ethr =  1.00E-06,  avg # of iterations =  3.3

     total cpu time spent up to now is      239.6 secs

     total energy              =     -95.09468372 Ry
     Harris-Foulkes estimate   =     -96.02025541 Ry
     estimated scf accuracy    <       0.00502095 Ry

     iteration #  2     ecut=    40.00 Ry     beta=0.70
     Davidson diagonalization with overlap
     ethr =  5.58E-05,  avg # of iterations =  2.5

     total cpu time spent up to now is      242.9 secs

     total energy              =     -95.10376641 Ry
     Harris-Foulkes estimate   =     -95.10741260 Ry
     estimated scf accuracy    <       0.00826312 Ry

     iteration #  3     ecut=    40.00 Ry     beta=0.70
     Davidson diagonalization with overlap
     ethr =  5.58E-05,  avg # of iterations =  1.9

     total cpu time spent up to now is      245.4 secs

     total energy              =     -95.10376312 Ry
     Harris-Foulkes estimate   =     -95.10433248 Ry
     estimated scf accuracy    <       0.00153592 Ry

     iteration #  4     ecut=    40.00 Ry     beta=0.70
     Davidson diagonalization with overlap
     ethr =  1.71E-05,  avg # of iterations =  1.0

     total cpu time spent up to now is      247.6 secs

     total energy              =     -95.10358913 Ry
     Harris-Foulkes estimate   =     -95.10383822 Ry
     estimated scf accuracy    <       0.00043875 Ry

     iteration #  5     ecut=    40.00 Ry     beta=0.70
     Davidson diagonalization with overlap
     ethr =  4.87E-06,  avg # of iterations =  2.0

     total cpu time spent up to now is      250.2 secs

     total energy              =     -95.10365672 Ry
     Harris-Foulkes estimate   =     -95.10364852 Ry
     estimated scf accuracy    <       0.00002137 Ry

     iteration #  6     ecut=    40.00 Ry     beta=0.70
     Davidson diagonalization with overlap
     ethr =  2.37E-07,  avg # of iterations =  1.0

     total cpu time spent up to now is      252.4 secs

     total energy              =     -95.10364748 Ry
     Harris-Foulkes estimate   =     -95.10365744 Ry
     estimated scf accuracy    <       0.00004033 Ry

     iteration #  7     ecut=    40.00 Ry     beta=0.70
     Davidson diagonalization with overlap
     ethr =  2.37E-07,  avg # of iterations =  1.0

     total cpu time spent up to now is      254.6 secs

     total energy              =     -95.10363977 Ry
     Harris-Foulkes estimate   =     -95.10364818 Ry
     estimated scf accuracy    <       0.00002075 Ry

     iteration #  8     ecut=    40.00 Ry     beta=0.70
     Davidson diagonalization with overlap
     ethr =  2.31E-07,  avg # of iterations =  1.0

     total cpu time spent up to now is      256.8 secs

     total energy              =     -95.10363865 Ry
     Harris-Foulkes estimate   =     -95.10364102 Ry
     estimated scf accuracy    <       0.00000509 Ry

     iteration #  9     ecut=    40.00 Ry     beta=0.70
     Davidson diagonalization with overlap
     ethr =  5.65E-08,  avg # of iterations =  1.1

     total cpu time spent up to now is      259.1 secs

     total energy              =     -95.10363876 Ry
     Harris-Foulkes estimate   =     -95.10363909 Ry
     estimated scf accuracy    <       0.00000062 Ry

     iteration # 10     ecut=    40.00 Ry     beta=0.70
     Davidson diagonalization with overlap
     ethr =  6.91E-09,  avg # of iterations =  2.0

     total cpu time spent up to now is      261.6 secs

     total energy              =     -95.10363880 Ry
     Harris-Foulkes estimate   =     -95.10363884 Ry
     estimated scf accuracy    <       0.00000007 Ry

     iteration # 11     ecut=    40.00 Ry     beta=0.70
     Davidson diagonalization with overlap
     ethr =  7.36E-10,  avg # of iterations =  2.0

     total cpu time spent up to now is      264.3 secs

     total energy              =     -95.10363881 Ry
     Harris-Foulkes estimate   =     -95.10363881 Ry
     estimated scf accuracy    <          4.6E-10 Ry

     iteration # 12     ecut=    40.00 Ry     beta=0.70
     Davidson diagonalization with overlap
     ethr =  5.14E-12,  avg # of iterations =  1.6

     total cpu time spent up to now is      266.6 secs

     total energy              =     -95.10363881 Ry
     Harris-Foulkes estimate   =     -95.10363881 Ry
     estimated scf accuracy    <          1.6E-09 Ry

     iteration # 13     ecut=    40.00 Ry     beta=0.70
     Davidson diagonalization with overlap
     ethr =  5.14E-12,  avg # of iterations =  1.0

     total cpu time spent up to now is      268.8 secs

     total energy              =     -95.10363881 Ry
     Harris-Foulkes estimate   =     -95.10363881 Ry
     estimated scf accuracy    <          2.3E-09 Ry

     iteration # 14     ecut=    40.00 Ry     beta=0.70
     Davidson diagonalization with overlap
     ethr =  5.14E-12,  avg # of iterations =  1.6

     total cpu time spent up to now is      271.2 secs

     End of self-consistent calculation

     Number of k-points >= 100: set verbosity='high' to print the bands.

     the Fermi energy is     1.8684 ev

!    total energy              =     -95.10363881 Ry
     Harris-Foulkes estimate   =     -95.10363881 Ry
     estimated scf accuracy    <          2.4E-11 Ry

     The total energy is the sum of the following terms:

     one-electron contribution =     -86.77641065 Ry
     hartree contribution      =      43.85754875 Ry
     xc contribution           =     -14.27647819 Ry
     ewald contribution        =     -37.90825414 Ry
     smearing contrib. (-TS)   =      -0.00004459 Ry

     convergence has been achieved in  14 iterations

     Forces acting on atoms (cartesian axes, Ry/au):

     atom    1 type  1   force =     0.00000000    0.00000000    0.00000000

     Total force =     0.000000     Total SCF correction =     0.000000


     Computing stress (Cartesian axis) and pressure

          total   stress  (Ry/bohr**3)                   (kbar)     P=    0.42
   0.00000283  -0.00000000  -0.00000000          0.42     -0.00     -0.00
  -0.00000000   0.00000283   0.00000000         -0.00      0.42      0.00
  -0.00000000   0.00000000   0.00000283         -0.00      0.00      0.42


     bfgs converged in   7 scf cycles and   6 bfgs steps
     (criteria: energy <  1.0E-04 Ry, force <  1.0E-03Ry/Bohr, cell <  5.0E-01kbar)

     End of BFGS Geometry Optimization

     Final enthalpy =     -95.1036388076 Ry
Begin final coordinates
     new unit-cell volume =    235.05665 a.u.^3 (    34.83180 Ang^3 )
     density =      1.09600 g/cm^3

CELL_PARAMETERS (alat=  8.00000000)
  -0.612290511   0.000000000   0.612290511
   0.000000000   0.612290511   0.612290511
  -0.612290511   0.612290511  -0.000000000

ATOMIC_POSITIONS (crystal)
Na       0.000000000   0.000000000   0.000000000
End final coordinates



     A final scf calculation at the relaxed structure.
     The G-vectors are recalculated for the final unit cell
     Results may differ from those at the preceding step.

     Parallelization info
     --------------------
     sticks:   dense  smooth     PW     G-vecs:    dense   smooth      PW
     Min         264     129     42                 5664     1996     367
     Max         265     130     43                 5665     1999     368
     Sum        1057     517    169                22659     7991    1471



     bravais-lattice index     =            2
     lattice parameter (alat)  =       8.0000  a.u.
     unit-cell volume          =     235.0567 (a.u.)^3
     number of atoms/cell      =            1
     number of atomic types    =            1
     number of electrons       =         9.00
     number of Kohn-Sham states=            9
     kinetic-energy cutoff     =      40.0000  Ry
     charge density cutoff     =     320.0000  Ry
     convergence threshold     =      1.0E-10
     mixing beta               =       0.7000
     number of iterations used =            8  plain     mixing
     Exchange-correlation      = SLA  PW   PBE  PBE ( 1  4  3  4 0 0)

     celldm(1)=   8.000000  celldm(2)=   0.000000  celldm(3)=   0.000000
     celldm(4)=   0.000000  celldm(5)=   0.000000  celldm(6)=   0.000000

     crystal axes: (cart. coord. in units of alat)
               a(1) = (  -0.612291   0.000000   0.612291 )  
               a(2) = (   0.000000   0.612291   0.612291 )  
               a(3) = (  -0.612291   0.612291  -0.000000 )  

     reciprocal axes: (cart. coord. in units 2 pi/alat)
               b(1) = ( -0.816606 -0.816606  0.816606 )  
               b(2) = (  0.816606  0.816606  0.816606 )  
               b(3) = ( -0.816606  0.816606 -0.816606 )  


     PseudoPot. # 1 for Na read from file:
     /home/s1333534/quantum_espresso/qe-6.1/pseudo/Na_pbe_v1.uspp.F.UPF
     MD5 check sum: 76a99c7e9422403d3e93cbc85ab7bccb
     Pseudo is Ultrasoft, Zval =  9.0
     Generated by new atomic code, or converted to UPF format
     Using radial grid of  819 points,  5 beta functions with: 
                l(1) =   0
                l(2) =   0
                l(3) =   1
                l(4) =   1
                l(5) =   2
     Q(r) pseudized with  8 coefficients,  rinner =    1.250   1.250   1.250
                                                       1.250   1.250

     atomic species   valence    mass     pseudopotential
        Na             9.00    22.99000     Na( 1.00)

     48 Sym. Ops., with inversion, found



   Cartesian axes

     site n.     atom                  positions (alat units)
         1           Na  tau(   1) = (   0.0000000   0.0000000   0.0000000  )

     number of k points=   770  Marzari-Vanderbilt smearing, width (Ry)=  0.0200

     Number of k-points >= 100: set verbosity='high' to print them.

     Dense  grid:    22659 G-vectors     FFT dimensions: (  40,  40,  40)

     Smooth grid:     7991 G-vectors     FFT dimensions: (  27,  27,  27)

     Estimated max dynamical RAM per process >      30.28MB

     Estimated total allocated dynamical RAM >     121.13MB

     Initial potential from superposition of free atoms

     starting charge    8.99371, renormalised to    9.00000
     Starting wfc are    5 randomized atomic wfcs +    4 random wfc

     Writing output data file na.fcc.save

     total cpu time spent up to now is      274.8 secs

     per-process dynamical memory:    46.8 Mb

     Self-consistent Calculation

     iteration #  1     ecut=    40.00 Ry     beta=0.70
     Davidson diagonalization with overlap
     c_bands:  1 eigenvalues not converged
     c_bands:  1 eigenvalues not converged
     c_bands:  1 eigenvalues not converged
     c_bands:  1 eigenvalues not converged
     c_bands:  1 eigenvalues not converged
     c_bands:  1 eigenvalues not converged
     c_bands:  1 eigenvalues not converged
     c_bands:  1 eigenvalues not converged
     c_bands:  1 eigenvalues not converged
     c_bands:  1 eigenvalues not converged
     c_bands:  1 eigenvalues not converged
     c_bands:  1 eigenvalues not converged
     c_bands:  1 eigenvalues not converged
     c_bands:  1 eigenvalues not converged
     ethr =  1.00E-06,  avg # of iterations = 11.3

     total cpu time spent up to now is      288.2 secs

     total energy              =     -95.10620037 Ry
     Harris-Foulkes estimate   =     -95.10644881 Ry
     estimated scf accuracy    <       0.00090886 Ry

     iteration #  2     ecut=    40.00 Ry     beta=0.70
     Davidson diagonalization with overlap
     ethr =  1.01E-05,  avg # of iterations =  2.0

     total cpu time spent up to now is      292.7 secs

     total energy              =     -95.10630691 Ry
     Harris-Foulkes estimate   =     -95.10633171 Ry
     estimated scf accuracy    <       0.00010208 Ry

     iteration #  3     ecut=    40.00 Ry     beta=0.70
     Davidson diagonalization with overlap
     ethr =  1.13E-06,  avg # of iterations =  2.0

     total cpu time spent up to now is      297.4 secs

     total energy              =     -95.10631827 Ry
     Harris-Foulkes estimate   =     -95.10631957 Ry
     estimated scf accuracy    <       0.00000633 Ry

     iteration #  4     ecut=    40.00 Ry     beta=0.70
     Davidson diagonalization with overlap
     ethr =  7.04E-08,  avg # of iterations =  1.0

     total cpu time spent up to now is      301.3 secs

     total energy              =     -95.10631885 Ry
     Harris-Foulkes estimate   =     -95.10631880 Ry
     estimated scf accuracy    <          8.3E-09 Ry

     iteration #  5     ecut=    40.00 Ry     beta=0.70
     Davidson diagonalization with overlap
     ethr =  9.18E-11,  avg # of iterations =  3.0

     total cpu time spent up to now is      306.9 secs

     total energy              =     -95.10631888 Ry
     Harris-Foulkes estimate   =     -95.10631888 Ry
     estimated scf accuracy    <          1.6E-09 Ry

     iteration #  6     ecut=    40.00 Ry     beta=0.70
     Davidson diagonalization with overlap
     ethr =  1.77E-11,  avg # of iterations =  1.6

     total cpu time spent up to now is      311.0 secs

     End of self-consistent calculation

     Number of k-points >= 100: set verbosity='high' to print the bands.

     the Fermi energy is     1.8716 ev

!    total energy              =     -95.10631888 Ry
     Harris-Foulkes estimate   =     -95.10631888 Ry
     estimated scf accuracy    <          2.6E-11 Ry

     The total energy is the sum of the following terms:

     one-electron contribution =     -86.77843157 Ry
     hartree contribution      =      43.85708307 Ry
     xc contribution           =     -14.27667174 Ry
     ewald contribution        =     -37.90825403 Ry
     smearing contrib. (-TS)   =      -0.00004461 Ry

     convergence has been achieved in   6 iterations

     Forces acting on atoms (cartesian axes, Ry/au):

     atom    1 type  1   force =     0.00000000    0.00000000    0.00000000

     Total force =     0.000000     Total SCF correction =     0.000000


     Computing stress (Cartesian axis) and pressure

          total   stress  (Ry/bohr**3)                   (kbar)     P=    2.46
   0.00001672  -0.00000000   0.00000000          2.46     -0.00      0.00
   0.00000000   0.00001672   0.00000000          0.00      2.46      0.00
   0.00000000   0.00000000   0.00001672          0.00      0.00      2.46


     Writing output data file na.fcc.save

     init_run     :      2.98s CPU      3.10s WALL (       2 calls)
     electrons    :    283.83s CPU    295.09s WALL (       8 calls)
     update_pot   :      0.73s CPU      0.73s WALL (       6 calls)
     forces       :      1.36s CPU      1.39s WALL (       8 calls)
     stress       :      7.29s CPU      7.35s WALL (       8 calls)

     Called by init_run:
     wfcinit      :      2.36s CPU      2.47s WALL (       2 calls)
     potinit      :      0.07s CPU      0.07s WALL (       2 calls)

     Called by electrons:
     c_bands      :    237.10s CPU    246.78s WALL (     102 calls)
     sum_band     :     44.97s CPU     46.50s WALL (     102 calls)
     v_of_rho     :      0.88s CPU      0.89s WALL (     109 calls)
     newd         :      0.88s CPU      0.89s WALL (     109 calls)
     mix_rho      :      0.07s CPU      0.07s WALL (     102 calls)

     Called by c_bands:
     init_us_2    :     11.56s CPU     10.79s WALL (  170940 calls)
     cegterg      :    225.69s CPU    235.52s WALL (   78540 calls)

     Called by sum_band:
     sum_band:bec :      0.19s CPU      0.23s WALL (   78540 calls)
     addusdens    :      1.03s CPU      1.04s WALL (     102 calls)

     Called by *egterg:
     h_psi        :    177.83s CPU    185.38s WALL (  240001 calls)
     s_psi        :      2.83s CPU      2.30s WALL (  240001 calls)
     g_psi        :      1.35s CPU      1.32s WALL (  159921 calls)
     cdiaghg      :     29.78s CPU     30.55s WALL (  233071 calls)

     Called by h_psi:
     h_psi:pot    :    177.21s CPU    184.41s WALL (  240001 calls)
     h_psi:calbec :      4.41s CPU      3.83s WALL (  240001 calls)
     vloc_psi     :    170.39s CPU    177.47s WALL (  240001 calls)
     add_vuspsi   :      2.05s CPU      2.52s WALL (  240001 calls)

     General routines
     calbec       :      5.72s CPU      5.46s WALL (  349341 calls)
     fft          :      0.39s CPU      0.40s WALL (    1786 calls)
     ffts         :      0.02s CPU      0.02s WALL (     211 calls)
     fftw         :    189.89s CPU    184.35s WALL ( 4204246 calls)
     interpolate  :      0.07s CPU      0.07s WALL (     211 calls)
     davcio       :      0.01s CPU      0.02s WALL (    1540 calls)

     Parallel routines
     fft_scatter  :     27.39s CPU     34.90s WALL ( 4206243 calls)

     PWSCF        :  5m 1.70s CPU     5m13.40s WALL


   This run was terminated on:  10:53:32  20Dec2017            

=------------------------------------------------------------------------------=
   JOB DONE.
=------------------------------------------------------------------------------=
