
     Program PHONON v.6.1 (svn rev. 13369) starts on 31Jan2018 at 19: 1:43 

     This program is part of the open-source Quantum ESPRESSO suite
     for quantum simulation of materials; please cite
         "P. Giannozzi et al., J. Phys.:Condens. Matter 21 395502 (2009);
          URL http://www.quantum-espresso.org", 
     in publications or presentations arising from this work. More details at
     http://www.quantum-espresso.org/quote

     Parallel version (MPI), running on    64 processors
     K-points division:     npool     =       4
     R & G space division:  proc/nbgrp/npool/nimage =      16

     Reading data from directory:
     ./na.bcc.save

   Info: using nr1, nr2, nr3 values from input

   Info: using nr1, nr2, nr3 values from input

     IMPORTANT: XC functional enforced from input :
     Exchange-correlation      = SLA  PW   PBE  PBE ( 1  4  3  4 0 0)
     Any further DFT definition will be discarded
     Please, verify this is what you really want


     Parallelization info
     --------------------
     sticks:   dense  smooth     PW     G-vecs:    dense   smooth      PW
     Min          52      25      8                  978      339      65
     Max          53      26      9                  982      343      68
     Sum         841     415    137                15683     5473    1055



     Dynamical matrices for ( 6, 6, 6)  uniform grid of q-points
     (  16q-points):
       N         xq(1)         xq(2)         xq(3) 
       1   0.000000000   0.000000000   0.000000000
       2   0.000000000  -0.166666667   0.166666667
       3   0.000000000  -0.333333333   0.333333333
       4   0.000000000   0.500000000  -0.500000000
       5  -0.166666667  -0.166666667   0.333333333
       6  -0.166666667   0.666666667  -0.500000000
       7  -0.333333333   0.666666667  -0.333333333
       8   0.000000000   0.000000000   0.333333333
       9   0.000000000  -0.166666667   0.500000000
      10   0.000000000   0.666666667  -0.333333333
      11  -0.166666667   0.833333333  -0.333333333
      12   0.666666667  -0.666666667   0.333333333
      13   0.500000000  -0.500000000   0.333333333
      14   0.000000000   0.000000000   0.666666667
      15   0.000000000   0.833333333  -0.166666667
      16   0.000000000   0.000000000  -1.000000000

     Calculation of q =    0.0000000   0.0000000   0.0000000

                                                                                

     bravais-lattice index     =            3
     lattice parameter (alat)  =       6.8800  a.u.
     unit-cell volume          =     162.8303 (a.u.)^3
     number of atoms/cell      =            1
     number of atomic types    =            1
     kinetic-energy cut-off    =      40.0000  Ry
     charge density cut-off    =     320.0000  Ry
     convergence threshold     =      1.0E-16
     beta                      =       0.7000
     number of iterations used =            4
     Exchange-correlation      = SLA  PW   PBE  PBE ( 1  4  3  4 0 0)


     celldm(1)=    6.88000  celldm(2)=    0.00000  celldm(3)=    0.00000
     celldm(4)=    0.00000  celldm(5)=    0.00000  celldm(6)=    0.00000

     crystal axes: (cart. coord. in units of alat)
               a(1) = (  0.5000  0.5000  0.5000 )  
               a(2) = ( -0.5000  0.5000  0.5000 )  
               a(3) = ( -0.5000 -0.5000  0.5000 )  

     reciprocal axes: (cart. coord. in units 2 pi/alat)
               b(1) = (  1.0000  0.0000  1.0000 )  
               b(2) = ( -1.0000  1.0000  0.0000 )  
               b(3) = (  0.0000 -1.0000  1.0000 )  


     Atoms inside the unit cell: 

     Cartesian axes

     site n.  atom      mass           positions (alat units)
        1     Na  22.9900   tau(    1) = (    0.00000    0.00000    0.00000  )

     Computing dynamical matrix for 
                    q = (   0.0000000   0.0000000   0.0000000 )

     49 Sym.Ops. (with q -> -q+G )


     G cutoff =  383.6782  (    979 G-vectors)     FFT grid: ( 36, 36, 36)
     G cutoff =  191.8391  (    343 G-vectors)  smooth grid: ( 24, 24, 24)

     number of k points=   250  Marzari-Vanderbilt smearing, width (Ry)=  0.0200

     PseudoPot. # 1 for Na read from file:
     /home/s1333534/quantum_espresso/qe-6.1/pseudo/Na_pbe_v1.uspp.F.UPF
     MD5 check sum: 76a99c7e9422403d3e93cbc85ab7bccb
     Pseudo is Ultrasoft, Zval =  9.0
     Generated by new atomic code, or converted to UPF format
     Using radial grid of  819 points,  5 beta functions with: 
                l(1) =   0
                l(2) =   0
                l(3) =   1
                l(4) =   1
                l(5) =   2
     Q(r) pseudized with  8 coefficients,  rinner =    1.250   1.250   1.250
                                                       1.250   1.250

     Mode symmetry, O_h (m-3m)  point group:


     Atomic displacements:
     There are   1 irreducible representations

     Representation     1      3 modes -T_1u G_15  G_4-  To be done



     Alpha used in Ewald sum =   2.8000
     PHONON       :     2.96s CPU         3.17s WALL



     Representation #  1 modes #   1  2  3

     Self-consistent Calculation

     Pert. #  1: Fermi energy shift (Ry) =     2.3157E-26     0.0000E+00
     Pert. #  2: Fermi energy shift (Ry) =     1.9791E-26     1.5673E-38
     Pert. #  3: Fermi energy shift (Ry) =     8.8184E-27     1.6065E-37

      iter #   1 total cpu time :     6.3 secs   av.it.:   5.5
      thresh= 1.000E-02 alpha_mix =  0.700 |ddv_scf|^2 =  1.471E-06

     Pert. #  1: Fermi energy shift (Ry) =     0.0000E+00     7.3468E-40
     Pert. #  2: Fermi energy shift (Ry) =     4.7391E-26     1.5918E-39
     Pert. #  3: Fermi energy shift (Ry) =    -4.3082E-26    -2.4489E-40

      iter #   2 total cpu time :     9.7 secs   av.it.:   8.5
      thresh= 1.213E-04 alpha_mix =  0.700 |ddv_scf|^2 =  2.922E-08

     Pert. #  1: Fermi energy shift (Ry) =     0.0000E+00     1.8367E-40
     Pert. #  2: Fermi energy shift (Ry) =    -1.7771E-26     3.9795E-40
     Pert. #  3: Fermi energy shift (Ry) =    -9.6935E-27    -6.1224E-41

      iter #   3 total cpu time :    13.2 secs   av.it.:   8.6
      thresh= 1.709E-05 alpha_mix =  0.700 |ddv_scf|^2 =  2.936E-10

     Pert. #  1: Fermi energy shift (Ry) =    -8.6165E-27    -2.6785E-41
     Pert. #  2: Fermi energy shift (Ry) =    -5.3853E-27    -7.6530E-41
     Pert. #  3: Fermi energy shift (Ry) =     6.4623E-27    -1.7219E-41

      iter #   4 total cpu time :    16.5 secs   av.it.:   8.2
      thresh= 1.714E-06 alpha_mix =  0.700 |ddv_scf|^2 =  9.932E-13

     Pert. #  1: Fermi energy shift (Ry) =     7.5394E-27    -8.6096E-42
     Pert. #  2: Fermi energy shift (Ry) =    -4.3082E-27     1.0523E-41
     Pert. #  3: Fermi energy shift (Ry) =    -5.3853E-27    -2.3915E-42

      iter #   5 total cpu time :    20.0 secs   av.it.:   8.4
      thresh= 9.966E-08 alpha_mix =  0.700 |ddv_scf|^2 =  4.883E-15

     Pert. #  1: Fermi energy shift (Ry) =     5.3853E-27     9.5662E-43
     Pert. #  2: Fermi energy shift (Ry) =    -7.5394E-27     5.2614E-42
     Pert. #  3: Fermi energy shift (Ry) =    -8.0779E-27    -8.1313E-42

      iter #   6 total cpu time :    23.5 secs   av.it.:   8.3
      thresh= 6.988E-09 alpha_mix =  0.700 |ddv_scf|^2 =  4.291E-17

     End of self-consistent calculation

     Convergence has been achieved 

     Number of q in the star =    1
     List of q in the star:
          1   0.000000000   0.000000000   0.000000000

     Diagonalizing the dynamical matrix

     q = (    0.000000000   0.000000000   0.000000000 ) 

 **************************************************************************
     freq (    1) =      -0.339594 [THz] =     -11.327620 [cm-1]
     freq (    2) =      -0.339594 [THz] =     -11.327620 [cm-1]
     freq (    3) =      -0.339594 [THz] =     -11.327620 [cm-1]
 **************************************************************************

     Mode symmetry, O_h (m-3m)  point group:

     freq (  1 -  3) =        -11.3  [cm-1]   --> T_1u G_15  G_4- I  

     Calculation of q =    0.0000000  -0.1666667   0.1666667

   Info: using nr1, nr2, nr3 values from input

   Info: using nr1, nr2, nr3 values from input

     Parallelization info
     --------------------
     sticks:   dense  smooth     PW     G-vecs:    dense   smooth      PW
     Min          52      25      9                  978      339      72
     Max          53      26     11                  982      343      73
     Sum         841     415    151                15683     5473    1157



     bravais-lattice index     =            3
     lattice parameter (alat)  =       6.8800  a.u.
     unit-cell volume          =     162.8303 (a.u.)^3
     number of atoms/cell      =            1
     number of atomic types    =            1
     number of electrons       =         9.00
     number of Kohn-Sham states=            9
     kinetic-energy cutoff     =      40.0000  Ry
     charge density cutoff     =     320.0000  Ry
     Exchange-correlation      = SLA  PW   PBE  PBE ( 1  4  3  4 0 0)

     celldm(1)=   6.880000  celldm(2)=   0.000000  celldm(3)=   0.000000
     celldm(4)=   0.000000  celldm(5)=   0.000000  celldm(6)=   0.000000

     crystal axes: (cart. coord. in units of alat)
               a(1) = (   0.500000   0.500000   0.500000 )  
               a(2) = (  -0.500000   0.500000   0.500000 )  
               a(3) = (  -0.500000  -0.500000   0.500000 )  

     reciprocal axes: (cart. coord. in units 2 pi/alat)
               b(1) = (  1.000000  0.000000  1.000000 )  
               b(2) = ( -1.000000  1.000000  0.000000 )  
               b(3) = (  0.000000 -1.000000  1.000000 )  


     PseudoPot. # 1 for Na read from file:
     /home/s1333534/quantum_espresso/qe-6.1/pseudo/Na_pbe_v1.uspp.F.UPF
     MD5 check sum: 76a99c7e9422403d3e93cbc85ab7bccb
     Pseudo is Ultrasoft, Zval =  9.0
     Generated by new atomic code, or converted to UPF format
     Using radial grid of  819 points,  5 beta functions with: 
                l(1) =   0
                l(2) =   0
                l(3) =   1
                l(4) =   1
                l(5) =   2
     Q(r) pseudized with  8 coefficients,  rinner =    1.250   1.250   1.250
                                                       1.250   1.250

     atomic species   valence    mass     pseudopotential
        Na             9.00    22.99000     Na( 1.00)

     48 Sym. Ops., with inversion, found



   Cartesian axes

     site n.     atom                  positions (alat units)
         1           Na  tau(   1) = (   0.0000000   0.0000000   0.0000000  )

     number of k points=  4400  Marzari-Vanderbilt smearing, width (Ry)=  0.0200

     Number of k-points >= 100: set verbosity='high' to print them.

     Dense  grid:    15683 G-vectors     FFT dimensions: (  36,  36,  36)

     Smooth grid:     5473 G-vectors     FFT dimensions: (  24,  24,  24)

     Estimated max dynamical RAM per process >       0.54MB

     Estimated total allocated dynamical RAM >      34.46MB

     The potential is recalculated from file :
     ./_ph0/na.bcc.save/charge-density.dat

     Starting wfc are    5 atomic +    4 random wfc

     Band Structure Calculation
     Davidson diagonalization with overlap

     ethr =  1.11E-10,  avg # of iterations = 18.1

     total cpu time spent up to now is       55.7 secs

     End of band structure calculation

     Number of k-points >= 100: set verbosity='high' to print the bands.

     the Fermi energy is     3.8798 ev

     Writing output data file na.bcc.save

                                                                                

     bravais-lattice index     =            3
     lattice parameter (alat)  =       6.8800  a.u.
     unit-cell volume          =     162.8303 (a.u.)^3
     number of atoms/cell      =            1
     number of atomic types    =            1
     kinetic-energy cut-off    =      40.0000  Ry
     charge density cut-off    =     320.0000  Ry
     convergence threshold     =      1.0E-16
     beta                      =       0.7000
     number of iterations used =            4
     Exchange-correlation      = SLA  PW   PBE  PBE ( 1  4  3  4 0 0)


     celldm(1)=    6.88000  celldm(2)=    0.00000  celldm(3)=    0.00000
     celldm(4)=    0.00000  celldm(5)=    0.00000  celldm(6)=    0.00000

     crystal axes: (cart. coord. in units of alat)
               a(1) = (  0.5000  0.5000  0.5000 )  
               a(2) = ( -0.5000  0.5000  0.5000 )  
               a(3) = ( -0.5000 -0.5000  0.5000 )  

     reciprocal axes: (cart. coord. in units 2 pi/alat)
               b(1) = (  1.0000  0.0000  1.0000 )  
               b(2) = ( -1.0000  1.0000  0.0000 )  
               b(3) = (  0.0000 -1.0000  1.0000 )  


     Atoms inside the unit cell: 

     Cartesian axes

     site n.  atom      mass           positions (alat units)
        1     Na  22.9900   tau(    1) = (    0.00000    0.00000    0.00000  )

     Computing dynamical matrix for 
                    q = (   0.0000000  -0.1666667   0.1666667 )

      4 Sym.Ops. (no q -> -q+G )


     G cutoff =  383.6782  (    979 G-vectors)     FFT grid: ( 36, 36, 36)
     G cutoff =  191.8391  (    343 G-vectors)  smooth grid: ( 24, 24, 24)

     number of k points=  4400  Marzari-Vanderbilt smearing, width (Ry)=  0.0200

     PseudoPot. # 1 for Na read from file:
     /home/s1333534/quantum_espresso/qe-6.1/pseudo/Na_pbe_v1.uspp.F.UPF
     MD5 check sum: 76a99c7e9422403d3e93cbc85ab7bccb
     Pseudo is Ultrasoft, Zval =  9.0
     Generated by new atomic code, or converted to UPF format
     Using radial grid of  819 points,  5 beta functions with: 
                l(1) =   0
                l(2) =   0
                l(3) =   1
                l(4) =   1
                l(5) =   2
     Q(r) pseudized with  8 coefficients,  rinner =    1.250   1.250   1.250
                                                       1.250   1.250

     Mode symmetry, C_2v (mm2)  point group:


     Atomic displacements:
     There are   3 irreducible representations

     Representation     1      1 modes -A_1  D_1  S_1  To be done

     Representation     2      1 modes -B_1  D_3  S_3  To be done

     Representation     3      1 modes -B_2  D_4  S_4  To be done



     Alpha used in Ewald sum =   2.8000
     PHONON       :  1m29.23s CPU     1m35.12s WALL



     Representation #  1 mode #   1

     Self-consistent Calculation

      iter #   1 total cpu time :   102.3 secs   av.it.:   5.7
      thresh= 1.000E-02 alpha_mix =  0.700 |ddv_scf|^2 =  3.800E-02

      iter #   2 total cpu time :   109.4 secs   av.it.:   6.7
      thresh= 1.000E-02 alpha_mix =  0.700 |ddv_scf|^2 =  4.776E+00

      iter #   3 total cpu time :   116.4 secs   av.it.:   6.7
      thresh= 1.000E-02 alpha_mix =  0.700 |ddv_scf|^2 =  1.213E-06

      iter #   4 total cpu time :   123.9 secs   av.it.:   7.6
      thresh= 1.101E-04 alpha_mix =  0.700 |ddv_scf|^2 =  1.323E-07

      iter #   5 total cpu time :   131.4 secs   av.it.:   7.3
      thresh= 3.638E-05 alpha_mix =  0.700 |ddv_scf|^2 =  4.471E-09

      iter #   6 total cpu time :   138.9 secs   av.it.:   7.5
      thresh= 6.686E-06 alpha_mix =  0.700 |ddv_scf|^2 =  9.802E-10

      iter #   7 total cpu time :   145.9 secs   av.it.:   6.6
      thresh= 3.131E-06 alpha_mix =  0.700 |ddv_scf|^2 =  1.165E-08

      iter #   8 total cpu time :   152.3 secs   av.it.:   5.8
      thresh= 1.079E-05 alpha_mix =  0.700 |ddv_scf|^2 =  4.537E-11

      iter #   9 total cpu time :   159.8 secs   av.it.:   7.2
      thresh= 6.736E-07 alpha_mix =  0.700 |ddv_scf|^2 =  1.525E-12

      iter #  10 total cpu time :   167.4 secs   av.it.:   7.1
      thresh= 1.235E-07 alpha_mix =  0.700 |ddv_scf|^2 =  6.954E-14

      iter #  11 total cpu time :   174.7 secs   av.it.:   7.2
      thresh= 2.637E-08 alpha_mix =  0.700 |ddv_scf|^2 =  6.473E-16

      iter #  12 total cpu time :   182.4 secs   av.it.:   7.9
      thresh= 2.544E-09 alpha_mix =  0.700 |ddv_scf|^2 =  3.571E-16

      iter #  13 total cpu time :   190.0 secs   av.it.:   7.2
      thresh= 1.890E-09 alpha_mix =  0.700 |ddv_scf|^2 =  2.496E-15

      iter #  14 total cpu time :   196.1 secs   av.it.:   5.4
      thresh= 4.996E-09 alpha_mix =  0.700 |ddv_scf|^2 =  1.670E-17

     End of self-consistent calculation

     Convergence has been achieved 


     Representation #  2 mode #   2

     Self-consistent Calculation

      iter #   1 total cpu time :   203.1 secs   av.it.:   5.4
      thresh= 1.000E-02 alpha_mix =  0.700 |ddv_scf|^2 =  1.340E-05

      iter #   2 total cpu time :   210.8 secs   av.it.:   7.6
      thresh= 3.660E-04 alpha_mix =  0.700 |ddv_scf|^2 =  2.593E-07

      iter #   3 total cpu time :   218.9 secs   av.it.:   7.9
      thresh= 5.092E-05 alpha_mix =  0.700 |ddv_scf|^2 =  2.961E-09

      iter #   4 total cpu time :   226.8 secs   av.it.:   7.4
      thresh= 5.441E-06 alpha_mix =  0.700 |ddv_scf|^2 =  9.810E-12

      iter #   5 total cpu time :   234.8 secs   av.it.:   7.6
      thresh= 3.132E-07 alpha_mix =  0.700 |ddv_scf|^2 =  4.046E-14

      iter #   6 total cpu time :   242.6 secs   av.it.:   7.5
      thresh= 2.012E-08 alpha_mix =  0.700 |ddv_scf|^2 =  4.416E-16

      iter #   7 total cpu time :   250.4 secs   av.it.:   7.7
      thresh= 2.101E-09 alpha_mix =  0.700 |ddv_scf|^2 =  2.615E-19

     End of self-consistent calculation

     Convergence has been achieved 


     Representation #  3 mode #   3

     Self-consistent Calculation

      iter #   1 total cpu time :   257.4 secs   av.it.:   5.5
      thresh= 1.000E-02 alpha_mix =  0.700 |ddv_scf|^2 =  1.390E-05

      iter #   2 total cpu time :   265.1 secs   av.it.:   7.7
      thresh= 3.728E-04 alpha_mix =  0.700 |ddv_scf|^2 =  2.567E-07

      iter #   3 total cpu time :   273.0 secs   av.it.:   7.9
      thresh= 5.067E-05 alpha_mix =  0.700 |ddv_scf|^2 =  3.883E-09

      iter #   4 total cpu time :   280.6 secs   av.it.:   7.5
      thresh= 6.231E-06 alpha_mix =  0.700 |ddv_scf|^2 =  1.324E-11

      iter #   5 total cpu time :   288.7 secs   av.it.:   7.6
      thresh= 3.639E-07 alpha_mix =  0.700 |ddv_scf|^2 =  4.014E-14

      iter #   6 total cpu time :   296.2 secs   av.it.:   7.4
      thresh= 2.003E-08 alpha_mix =  0.700 |ddv_scf|^2 =  9.707E-16

      iter #   7 total cpu time :   303.9 secs   av.it.:   7.7
      thresh= 3.116E-09 alpha_mix =  0.700 |ddv_scf|^2 =  9.169E-19

     End of self-consistent calculation

     Convergence has been achieved 

     Number of q in the star =   12
     List of q in the star:
          1   0.000000000  -0.166666667   0.166666667
          2  -0.166666667   0.000000000   0.166666667
          3   0.166666667   0.000000000   0.166666667
          4   0.000000000   0.166666667   0.166666667
          5   0.166666667   0.166666667   0.000000000
          6  -0.166666667   0.166666667   0.000000000
          7   0.166666667  -0.166666667   0.000000000
          8  -0.166666667  -0.166666667   0.000000000
          9  -0.166666667   0.000000000  -0.166666667
         10   0.000000000  -0.166666667  -0.166666667
         11   0.000000000   0.166666667  -0.166666667
         12   0.166666667   0.000000000  -0.166666667

     Diagonalizing the dynamical matrix

     q = (    0.000000000  -0.166666667   0.166666667 ) 

 **************************************************************************
     freq (    1) =       0.803227 [THz] =      26.792783 [cm-1]
     freq (    2) =       1.769533 [THz] =      59.025265 [cm-1]
     freq (    3) =       3.317866 [THz] =     110.672094 [cm-1]
 **************************************************************************

     Mode symmetry, C_2v (mm2)  point group:

     freq (  1 -  1) =         26.8  [cm-1]   --> B_1  D_3  S_3      
     freq (  2 -  2) =         59.0  [cm-1]   --> B_2  D_4  S_4      
     freq (  3 -  3) =        110.7  [cm-1]   --> A_1  D_1  S_1      

     Calculation of q =    0.0000000  -0.3333333   0.3333333

   Info: using nr1, nr2, nr3 values from input

   Info: using nr1, nr2, nr3 values from input

     Parallelization info
     --------------------
     sticks:   dense  smooth     PW     G-vecs:    dense   smooth      PW
     Min          52      25      9                  978      339      74
     Max          53      26     10                  982      343      77
     Sum         841     415    155                15683     5473    1205



     bravais-lattice index     =            3
     lattice parameter (alat)  =       6.8800  a.u.
     unit-cell volume          =     162.8303 (a.u.)^3
     number of atoms/cell      =            1
     number of atomic types    =            1
     number of electrons       =         9.00
     number of Kohn-Sham states=            9
     kinetic-energy cutoff     =      40.0000  Ry
     charge density cutoff     =     320.0000  Ry
     Exchange-correlation      = SLA  PW   PBE  PBE ( 1  4  3  4 0 0)

     celldm(1)=   6.880000  celldm(2)=   0.000000  celldm(3)=   0.000000
     celldm(4)=   0.000000  celldm(5)=   0.000000  celldm(6)=   0.000000

     crystal axes: (cart. coord. in units of alat)
               a(1) = (   0.500000   0.500000   0.500000 )  
               a(2) = (  -0.500000   0.500000   0.500000 )  
               a(3) = (  -0.500000  -0.500000   0.500000 )  

     reciprocal axes: (cart. coord. in units 2 pi/alat)
               b(1) = (  1.000000  0.000000  1.000000 )  
               b(2) = ( -1.000000  1.000000  0.000000 )  
               b(3) = (  0.000000 -1.000000  1.000000 )  


     PseudoPot. # 1 for Na read from file:
     /home/s1333534/quantum_espresso/qe-6.1/pseudo/Na_pbe_v1.uspp.F.UPF
     MD5 check sum: 76a99c7e9422403d3e93cbc85ab7bccb
     Pseudo is Ultrasoft, Zval =  9.0
     Generated by new atomic code, or converted to UPF format
     Using radial grid of  819 points,  5 beta functions with: 
                l(1) =   0
                l(2) =   0
                l(3) =   1
                l(4) =   1
                l(5) =   2
     Q(r) pseudized with  8 coefficients,  rinner =    1.250   1.250   1.250
                                                       1.250   1.250

     atomic species   valence    mass     pseudopotential
        Na             9.00    22.99000     Na( 1.00)

     48 Sym. Ops., with inversion, found



   Cartesian axes

     site n.     atom                  positions (alat units)
         1           Na  tau(   1) = (   0.0000000   0.0000000   0.0000000  )

     number of k points=  4400  Marzari-Vanderbilt smearing, width (Ry)=  0.0200

     Number of k-points >= 100: set verbosity='high' to print them.

     Dense  grid:    15683 G-vectors     FFT dimensions: (  36,  36,  36)

     Smooth grid:     5473 G-vectors     FFT dimensions: (  24,  24,  24)

     Estimated max dynamical RAM per process >       0.54MB

     Estimated total allocated dynamical RAM >      34.46MB

     The potential is recalculated from file :
     ./_ph0/na.bcc.save/charge-density.dat

     Starting wfc are    5 atomic +    4 random wfc

     Band Structure Calculation
     Davidson diagonalization with overlap

     ethr =  1.11E-10,  avg # of iterations = 18.1

     total cpu time spent up to now is      121.7 secs

     End of band structure calculation

     Number of k-points >= 100: set verbosity='high' to print the bands.

     the Fermi energy is     3.8798 ev

     Writing output data file na.bcc.save

                                                                                

     bravais-lattice index     =            3
     lattice parameter (alat)  =       6.8800  a.u.
     unit-cell volume          =     162.8303 (a.u.)^3
     number of atoms/cell      =            1
     number of atomic types    =            1
     kinetic-energy cut-off    =      40.0000  Ry
     charge density cut-off    =     320.0000  Ry
     convergence threshold     =      1.0E-16
     beta                      =       0.7000
     number of iterations used =            4
     Exchange-correlation      = SLA  PW   PBE  PBE ( 1  4  3  4 0 0)


     celldm(1)=    6.88000  celldm(2)=    0.00000  celldm(3)=    0.00000
     celldm(4)=    0.00000  celldm(5)=    0.00000  celldm(6)=    0.00000

     crystal axes: (cart. coord. in units of alat)
               a(1) = (  0.5000  0.5000  0.5000 )  
               a(2) = ( -0.5000  0.5000  0.5000 )  
               a(3) = ( -0.5000 -0.5000  0.5000 )  

     reciprocal axes: (cart. coord. in units 2 pi/alat)
               b(1) = (  1.0000  0.0000  1.0000 )  
               b(2) = ( -1.0000  1.0000  0.0000 )  
               b(3) = (  0.0000 -1.0000  1.0000 )  


     Atoms inside the unit cell: 

     Cartesian axes

     site n.  atom      mass           positions (alat units)
        1     Na  22.9900   tau(    1) = (    0.00000    0.00000    0.00000  )

     Computing dynamical matrix for 
                    q = (   0.0000000  -0.3333333   0.3333333 )

      4 Sym.Ops. (no q -> -q+G )


     G cutoff =  383.6782  (    979 G-vectors)     FFT grid: ( 36, 36, 36)
     G cutoff =  191.8391  (    343 G-vectors)  smooth grid: ( 24, 24, 24)

     number of k points=  4400  Marzari-Vanderbilt smearing, width (Ry)=  0.0200

     PseudoPot. # 1 for Na read from file:
     /home/s1333534/quantum_espresso/qe-6.1/pseudo/Na_pbe_v1.uspp.F.UPF
     MD5 check sum: 76a99c7e9422403d3e93cbc85ab7bccb
     Pseudo is Ultrasoft, Zval =  9.0
     Generated by new atomic code, or converted to UPF format
     Using radial grid of  819 points,  5 beta functions with: 
                l(1) =   0
                l(2) =   0
                l(3) =   1
                l(4) =   1
                l(5) =   2
     Q(r) pseudized with  8 coefficients,  rinner =    1.250   1.250   1.250
                                                       1.250   1.250

     Mode symmetry, C_2v (mm2)  point group:


     Atomic displacements:
     There are   3 irreducible representations

     Representation     1      1 modes -A_1  D_1  S_1  To be done

     Representation     2      1 modes -B_1  D_3  S_3  To be done

     Representation     3      1 modes -B_2  D_4  S_4  To be done



     Alpha used in Ewald sum =   2.8000
     PHONON       :  5m42.56s CPU     6m13.93s WALL



     Representation #  1 mode #   1

     Self-consistent Calculation

      iter #   1 total cpu time :   380.8 secs   av.it.:   5.7
      thresh= 1.000E-02 alpha_mix =  0.700 |ddv_scf|^2 =  6.468E-04

      iter #   2 total cpu time :   387.5 secs   av.it.:   6.7
      thresh= 2.543E-03 alpha_mix =  0.700 |ddv_scf|^2 =  3.137E-03

      iter #   3 total cpu time :   393.8 secs   av.it.:   6.1
      thresh= 5.601E-03 alpha_mix =  0.700 |ddv_scf|^2 =  6.591E-07

      iter #   4 total cpu time :   401.4 secs   av.it.:   7.7
      thresh= 8.119E-05 alpha_mix =  0.700 |ddv_scf|^2 =  9.327E-09

      iter #   5 total cpu time :   409.7 secs   av.it.:   8.3
      thresh= 9.658E-06 alpha_mix =  0.700 |ddv_scf|^2 =  8.489E-10

      iter #   6 total cpu time :   417.6 secs   av.it.:   8.0
      thresh= 2.914E-06 alpha_mix =  0.700 |ddv_scf|^2 =  1.427E-11

      iter #   7 total cpu time :   425.0 secs   av.it.:   7.6
      thresh= 3.778E-07 alpha_mix =  0.700 |ddv_scf|^2 =  1.013E-13

      iter #   8 total cpu time :   432.1 secs   av.it.:   7.4
      thresh= 3.183E-08 alpha_mix =  0.700 |ddv_scf|^2 =  1.723E-15

      iter #   9 total cpu time :   439.4 secs   av.it.:   7.6
      thresh= 4.151E-09 alpha_mix =  0.700 |ddv_scf|^2 =  1.355E-15

      iter #  10 total cpu time :   446.3 secs   av.it.:   6.8
      thresh= 3.681E-09 alpha_mix =  0.700 |ddv_scf|^2 =  3.819E-16

      iter #  11 total cpu time :   453.0 secs   av.it.:   6.9
      thresh= 1.954E-09 alpha_mix =  0.700 |ddv_scf|^2 =  8.438E-18

     End of self-consistent calculation

     Convergence has been achieved 


     Representation #  2 mode #   2

     Self-consistent Calculation

      iter #   1 total cpu time :   459.8 secs   av.it.:   5.5
      thresh= 1.000E-02 alpha_mix =  0.700 |ddv_scf|^2 =  1.381E-05

      iter #   2 total cpu time :   467.5 secs   av.it.:   7.7
      thresh= 3.716E-04 alpha_mix =  0.700 |ddv_scf|^2 =  2.483E-07

      iter #   3 total cpu time :   476.0 secs   av.it.:   7.9
      thresh= 4.983E-05 alpha_mix =  0.700 |ddv_scf|^2 =  3.994E-09

      iter #   4 total cpu time :   483.3 secs   av.it.:   7.5
      thresh= 6.320E-06 alpha_mix =  0.700 |ddv_scf|^2 =  1.229E-11

      iter #   5 total cpu time :   490.9 secs   av.it.:   7.7
      thresh= 3.506E-07 alpha_mix =  0.700 |ddv_scf|^2 =  3.184E-14

      iter #   6 total cpu time :   498.2 secs   av.it.:   7.5
      thresh= 1.784E-08 alpha_mix =  0.700 |ddv_scf|^2 =  5.248E-16

      iter #   7 total cpu time :   505.6 secs   av.it.:   7.7
      thresh= 2.291E-09 alpha_mix =  0.700 |ddv_scf|^2 =  3.176E-19

     End of self-consistent calculation

     Convergence has been achieved 


     Representation #  3 mode #   3

     Self-consistent Calculation

      iter #   1 total cpu time :   512.4 secs   av.it.:   5.5
      thresh= 1.000E-02 alpha_mix =  0.700 |ddv_scf|^2 =  1.536E-05

      iter #   2 total cpu time :   519.8 secs   av.it.:   7.7
      thresh= 3.919E-04 alpha_mix =  0.700 |ddv_scf|^2 =  2.414E-07

      iter #   3 total cpu time :   527.7 secs   av.it.:   7.9
      thresh= 4.913E-05 alpha_mix =  0.700 |ddv_scf|^2 =  7.146E-09

      iter #   4 total cpu time :   534.8 secs   av.it.:   7.5
      thresh= 8.453E-06 alpha_mix =  0.700 |ddv_scf|^2 =  2.504E-11

      iter #   5 total cpu time :   542.3 secs   av.it.:   7.7
      thresh= 5.004E-07 alpha_mix =  0.700 |ddv_scf|^2 =  3.609E-14

      iter #   6 total cpu time :   549.4 secs   av.it.:   7.0
      thresh= 1.900E-08 alpha_mix =  0.700 |ddv_scf|^2 =  1.760E-15

      iter #   7 total cpu time :   556.6 secs   av.it.:   7.6
      thresh= 4.196E-09 alpha_mix =  0.700 |ddv_scf|^2 =  1.386E-18

     End of self-consistent calculation

     Convergence has been achieved 

     Number of q in the star =   12
     List of q in the star:
          1   0.000000000  -0.333333333   0.333333333
          2  -0.333333333   0.000000000   0.333333333
          3   0.333333333   0.000000000   0.333333333
          4   0.000000000   0.333333333   0.333333333
          5   0.333333333   0.333333333   0.000000000
          6  -0.333333333   0.333333333   0.000000000
          7   0.333333333  -0.333333333   0.000000000
          8  -0.333333333  -0.333333333   0.000000000
          9  -0.333333333   0.000000000  -0.333333333
         10   0.000000000  -0.333333333  -0.333333333
         11   0.000000000   0.333333333  -0.333333333
         12   0.333333333   0.000000000  -0.333333333

     Diagonalizing the dynamical matrix

     q = (    0.000000000  -0.333333333   0.333333333 ) 

 **************************************************************************
     freq (    1) =       1.270404 [THz] =      42.376120 [cm-1]
     freq (    2) =       3.027103 [THz] =     100.973274 [cm-1]
     freq (    3) =       5.869887 [THz] =     195.798370 [cm-1]
 **************************************************************************

     Mode symmetry, C_2v (mm2)  point group:

     freq (  1 -  1) =         42.4  [cm-1]   --> B_1  D_3  S_3      
     freq (  2 -  2) =        101.0  [cm-1]   --> B_2  D_4  S_4      
     freq (  3 -  3) =        195.8  [cm-1]   --> A_1  D_1  S_1      

     Calculation of q =    0.0000000   0.5000000  -0.5000000

   Info: using nr1, nr2, nr3 values from input

   Info: using nr1, nr2, nr3 values from input

     Parallelization info
     --------------------
     sticks:   dense  smooth     PW     G-vecs:    dense   smooth      PW
     Min          52      25     10                  978      339      80
     Max          53      26     11                  982      343      81
     Sum         841     415    165                15683     5473    1289



     bravais-lattice index     =            3
     lattice parameter (alat)  =       6.8800  a.u.
     unit-cell volume          =     162.8303 (a.u.)^3
     number of atoms/cell      =            1
     number of atomic types    =            1
     number of electrons       =         9.00
     number of Kohn-Sham states=            9
     kinetic-energy cutoff     =      40.0000  Ry
     charge density cutoff     =     320.0000  Ry
     Exchange-correlation      = SLA  PW   PBE  PBE ( 1  4  3  4 0 0)

     celldm(1)=   6.880000  celldm(2)=   0.000000  celldm(3)=   0.000000
     celldm(4)=   0.000000  celldm(5)=   0.000000  celldm(6)=   0.000000

     crystal axes: (cart. coord. in units of alat)
               a(1) = (   0.500000   0.500000   0.500000 )  
               a(2) = (  -0.500000   0.500000   0.500000 )  
               a(3) = (  -0.500000  -0.500000   0.500000 )  

     reciprocal axes: (cart. coord. in units 2 pi/alat)
               b(1) = (  1.000000  0.000000  1.000000 )  
               b(2) = ( -1.000000  1.000000  0.000000 )  
               b(3) = (  0.000000 -1.000000  1.000000 )  


     PseudoPot. # 1 for Na read from file:
     /home/s1333534/quantum_espresso/qe-6.1/pseudo/Na_pbe_v1.uspp.F.UPF
     MD5 check sum: 76a99c7e9422403d3e93cbc85ab7bccb
     Pseudo is Ultrasoft, Zval =  9.0
     Generated by new atomic code, or converted to UPF format
     Using radial grid of  819 points,  5 beta functions with: 
                l(1) =   0
                l(2) =   0
                l(3) =   1
                l(4) =   1
                l(5) =   2
     Q(r) pseudized with  8 coefficients,  rinner =    1.250   1.250   1.250
                                                       1.250   1.250

     atomic species   valence    mass     pseudopotential
        Na             9.00    22.99000     Na( 1.00)

     48 Sym. Ops., with inversion, found



   Cartesian axes

     site n.     atom                  positions (alat units)
         1           Na  tau(   1) = (   0.0000000   0.0000000   0.0000000  )

     number of k points=  2310  Marzari-Vanderbilt smearing, width (Ry)=  0.0200

     Number of k-points >= 100: set verbosity='high' to print them.

     Dense  grid:    15683 G-vectors     FFT dimensions: (  36,  36,  36)

     Smooth grid:     5473 G-vectors     FFT dimensions: (  24,  24,  24)

     Estimated max dynamical RAM per process >       0.54MB

     Estimated total allocated dynamical RAM >      34.46MB

     The potential is recalculated from file :
     ./_ph0/na.bcc.save/charge-density.dat

     Starting wfc are    5 atomic +    4 random wfc

     Band Structure Calculation
     Davidson diagonalization with overlap

     ethr =  1.11E-10,  avg # of iterations = 18.1

     total cpu time spent up to now is      164.3 secs

     End of band structure calculation

     Number of k-points >= 100: set verbosity='high' to print the bands.

     the Fermi energy is     3.8798 ev

     Writing output data file na.bcc.save

                                                                                

     bravais-lattice index     =            3
     lattice parameter (alat)  =       6.8800  a.u.
     unit-cell volume          =     162.8303 (a.u.)^3
     number of atoms/cell      =            1
     number of atomic types    =            1
     kinetic-energy cut-off    =      40.0000  Ry
     charge density cut-off    =     320.0000  Ry
     convergence threshold     =      1.0E-16
     beta                      =       0.7000
     number of iterations used =            4
     Exchange-correlation      = SLA  PW   PBE  PBE ( 1  4  3  4 0 0)


     celldm(1)=    6.88000  celldm(2)=    0.00000  celldm(3)=    0.00000
     celldm(4)=    0.00000  celldm(5)=    0.00000  celldm(6)=    0.00000

     crystal axes: (cart. coord. in units of alat)
               a(1) = (  0.5000  0.5000  0.5000 )  
               a(2) = ( -0.5000  0.5000  0.5000 )  
               a(3) = ( -0.5000 -0.5000  0.5000 )  

     reciprocal axes: (cart. coord. in units 2 pi/alat)
               b(1) = (  1.0000  0.0000  1.0000 )  
               b(2) = ( -1.0000  1.0000  0.0000 )  
               b(3) = (  0.0000 -1.0000  1.0000 )  


     Atoms inside the unit cell: 

     Cartesian axes

     site n.  atom      mass           positions (alat units)
        1     Na  22.9900   tau(    1) = (    0.00000    0.00000    0.00000  )

     Computing dynamical matrix for 
                    q = (   0.0000000   0.5000000  -0.5000000 )

      9 Sym.Ops. (with q -> -q+G )


     G cutoff =  383.6782  (    979 G-vectors)     FFT grid: ( 36, 36, 36)
     G cutoff =  191.8391  (    343 G-vectors)  smooth grid: ( 24, 24, 24)

     number of k points=  2310  Marzari-Vanderbilt smearing, width (Ry)=  0.0200

     PseudoPot. # 1 for Na read from file:
     /home/s1333534/quantum_espresso/qe-6.1/pseudo/Na_pbe_v1.uspp.F.UPF
     MD5 check sum: 76a99c7e9422403d3e93cbc85ab7bccb
     Pseudo is Ultrasoft, Zval =  9.0
     Generated by new atomic code, or converted to UPF format
     Using radial grid of  819 points,  5 beta functions with: 
                l(1) =   0
                l(2) =   0
                l(3) =   1
                l(4) =   1
                l(5) =   2
     Q(r) pseudized with  8 coefficients,  rinner =    1.250   1.250   1.250
                                                       1.250   1.250

     Mode symmetry, D_2h (mmm)  point group:


     Atomic displacements:
     There are   3 irreducible representations

     Representation     1      1 modes -B_1u  To be done

     Representation     2      1 modes -B_2u  To be done

     Representation     3      1 modes -B_3u  To be done



     Alpha used in Ewald sum =   2.8000
     PHONON       :  9m 1.69s CPU     9m54.66s WALL



     Representation #  1 mode #   1

     Self-consistent Calculation

      iter #   1 total cpu time :   598.3 secs   av.it.:   5.5
      thresh= 1.000E-02 alpha_mix =  0.700 |ddv_scf|^2 =  1.616E-05

      iter #   2 total cpu time :   602.5 secs   av.it.:   7.6
      thresh= 4.020E-04 alpha_mix =  0.700 |ddv_scf|^2 =  2.337E-07

      iter #   3 total cpu time :   606.7 secs   av.it.:   7.8
      thresh= 4.835E-05 alpha_mix =  0.700 |ddv_scf|^2 =  9.238E-09

      iter #   4 total cpu time :   610.6 secs   av.it.:   7.3
      thresh= 9.612E-06 alpha_mix =  0.700 |ddv_scf|^2 =  3.261E-11

      iter #   5 total cpu time :   614.8 secs   av.it.:   7.6
      thresh= 5.711E-07 alpha_mix =  0.700 |ddv_scf|^2 =  3.579E-14

      iter #   6 total cpu time :   618.4 secs   av.it.:   6.5
      thresh= 1.892E-08 alpha_mix =  0.700 |ddv_scf|^2 =  2.047E-15

      iter #   7 total cpu time :   622.6 secs   av.it.:   7.4
      thresh= 4.524E-09 alpha_mix =  0.700 |ddv_scf|^2 =  1.307E-18

     End of self-consistent calculation

     Convergence has been achieved 


     Representation #  2 mode #   2

     Self-consistent Calculation

      iter #   1 total cpu time :   626.4 secs   av.it.:   5.5
      thresh= 1.000E-02 alpha_mix =  0.700 |ddv_scf|^2 =  1.406E-05

      iter #   2 total cpu time :   630.6 secs   av.it.:   7.7
      thresh= 3.750E-04 alpha_mix =  0.700 |ddv_scf|^2 =  2.416E-07

      iter #   3 total cpu time :   634.9 secs   av.it.:   7.9
      thresh= 4.916E-05 alpha_mix =  0.700 |ddv_scf|^2 =  4.747E-09

      iter #   4 total cpu time :   638.8 secs   av.it.:   7.2
      thresh= 6.890E-06 alpha_mix =  0.700 |ddv_scf|^2 =  1.369E-11

      iter #   5 total cpu time :   643.1 secs   av.it.:   7.6
      thresh= 3.699E-07 alpha_mix =  0.700 |ddv_scf|^2 =  2.690E-14

      iter #   6 total cpu time :   647.2 secs   av.it.:   7.4
      thresh= 1.640E-08 alpha_mix =  0.700 |ddv_scf|^2 =  4.959E-16

      iter #   7 total cpu time :   651.3 secs   av.it.:   7.5
      thresh= 2.227E-09 alpha_mix =  0.700 |ddv_scf|^2 =  1.291E-19

     End of self-consistent calculation

     Convergence has been achieved 


     Representation #  3 mode #   3

     Self-consistent Calculation

      iter #   1 total cpu time :   655.2 secs   av.it.:   5.7
      thresh= 1.000E-02 alpha_mix =  0.700 |ddv_scf|^2 =  1.327E-04

      iter #   2 total cpu time :   659.3 secs   av.it.:   6.8
      thresh= 1.152E-03 alpha_mix =  0.700 |ddv_scf|^2 =  6.107E-05

      iter #   3 total cpu time :   663.1 secs   av.it.:   6.8
      thresh= 7.815E-04 alpha_mix =  0.700 |ddv_scf|^2 =  8.143E-08

      iter #   4 total cpu time :   667.4 secs   av.it.:   7.8
      thresh= 2.854E-05 alpha_mix =  0.700 |ddv_scf|^2 =  2.536E-10

      iter #   5 total cpu time :   671.1 secs   av.it.:   6.5
      thresh= 1.592E-06 alpha_mix =  0.700 |ddv_scf|^2 =  5.859E-12

      iter #   6 total cpu time :   675.0 secs   av.it.:   6.9
      thresh= 2.421E-07 alpha_mix =  0.700 |ddv_scf|^2 =  1.361E-14

      iter #   7 total cpu time :   679.0 secs   av.it.:   7.0
      thresh= 1.167E-08 alpha_mix =  0.700 |ddv_scf|^2 =  1.952E-17

     End of self-consistent calculation

     Convergence has been achieved 

     Number of q in the star =    6
     List of q in the star:
          1   0.000000000   0.500000000  -0.500000000
          2  -0.500000000  -0.500000000   0.000000000
          3   0.500000000  -0.500000000   0.000000000
          4   0.500000000   0.000000000   0.500000000
          5   0.000000000  -0.500000000  -0.500000000
          6   0.500000000   0.000000000  -0.500000000

     Diagonalizing the dynamical matrix

     q = (    0.000000000   0.500000000  -0.500000000 ) 

 **************************************************************************
     freq (    1) =       1.433877 [THz] =      47.828999 [cm-1]
     freq (    2) =       3.492723 [THz] =     116.504693 [cm-1]
     freq (    3) =       6.822629 [THz] =     227.578403 [cm-1]
 **************************************************************************

     Mode symmetry, D_2h (mmm)  point group:

     freq (  1 -  1) =         47.8  [cm-1]   --> B_2u               
     freq (  2 -  2) =        116.5  [cm-1]   --> B_1u               
     freq (  3 -  3) =        227.6  [cm-1]   --> B_3u               

     Calculation of q =   -0.1666667  -0.1666667   0.3333333

   Info: using nr1, nr2, nr3 values from input

   Info: using nr1, nr2, nr3 values from input

     Parallelization info
     --------------------
     sticks:   dense  smooth     PW     G-vecs:    dense   smooth      PW
     Min          52      25      9                  978      339      74
     Max          53      26     10                  982      343      77
     Sum         841     415    155                15683     5473    1205



     bravais-lattice index     =            3
     lattice parameter (alat)  =       6.8800  a.u.
     unit-cell volume          =     162.8303 (a.u.)^3
     number of atoms/cell      =            1
     number of atomic types    =            1
     number of electrons       =         9.00
     number of Kohn-Sham states=            9
     kinetic-energy cutoff     =      40.0000  Ry
     charge density cutoff     =     320.0000  Ry
     Exchange-correlation      = SLA  PW   PBE  PBE ( 1  4  3  4 0 0)

     celldm(1)=   6.880000  celldm(2)=   0.000000  celldm(3)=   0.000000
     celldm(4)=   0.000000  celldm(5)=   0.000000  celldm(6)=   0.000000

     crystal axes: (cart. coord. in units of alat)
               a(1) = (   0.500000   0.500000   0.500000 )  
               a(2) = (  -0.500000   0.500000   0.500000 )  
               a(3) = (  -0.500000  -0.500000   0.500000 )  

     reciprocal axes: (cart. coord. in units 2 pi/alat)
               b(1) = (  1.000000  0.000000  1.000000 )  
               b(2) = ( -1.000000  1.000000  0.000000 )  
               b(3) = (  0.000000 -1.000000  1.000000 )  


     PseudoPot. # 1 for Na read from file:
     /home/s1333534/quantum_espresso/qe-6.1/pseudo/Na_pbe_v1.uspp.F.UPF
     MD5 check sum: 76a99c7e9422403d3e93cbc85ab7bccb
     Pseudo is Ultrasoft, Zval =  9.0
     Generated by new atomic code, or converted to UPF format
     Using radial grid of  819 points,  5 beta functions with: 
                l(1) =   0
                l(2) =   0
                l(3) =   1
                l(4) =   1
                l(5) =   2
     Q(r) pseudized with  8 coefficients,  rinner =    1.250   1.250   1.250
                                                       1.250   1.250

     atomic species   valence    mass     pseudopotential
        Na             9.00    22.99000     Na( 1.00)

     48 Sym. Ops., with inversion, found



   Cartesian axes

     site n.     atom                  positions (alat units)
         1           Na  tau(   1) = (   0.0000000   0.0000000   0.0000000  )

     number of k points=  8400  Marzari-Vanderbilt smearing, width (Ry)=  0.0200

     Number of k-points >= 100: set verbosity='high' to print them.

     Dense  grid:    15683 G-vectors     FFT dimensions: (  36,  36,  36)

     Smooth grid:     5473 G-vectors     FFT dimensions: (  24,  24,  24)

     Estimated max dynamical RAM per process >       0.54MB

     Estimated total allocated dynamical RAM >      34.46MB

     The potential is recalculated from file :
     ./_ph0/na.bcc.save/charge-density.dat

     Starting wfc are    5 atomic +    4 random wfc

     Band Structure Calculation
     Davidson diagonalization with overlap

     ethr =  1.11E-10,  avg # of iterations = 18.1

     total cpu time spent up to now is      273.7 secs

     End of band structure calculation

     Number of k-points >= 100: set verbosity='high' to print the bands.

     the Fermi energy is     3.8798 ev

     Writing output data file na.bcc.save

                                                                                

     bravais-lattice index     =            3
     lattice parameter (alat)  =       6.8800  a.u.
     unit-cell volume          =     162.8303 (a.u.)^3
     number of atoms/cell      =            1
     number of atomic types    =            1
     kinetic-energy cut-off    =      40.0000  Ry
     charge density cut-off    =     320.0000  Ry
     convergence threshold     =      1.0E-16
     beta                      =       0.7000
     number of iterations used =            4
     Exchange-correlation      = SLA  PW   PBE  PBE ( 1  4  3  4 0 0)


     celldm(1)=    6.88000  celldm(2)=    0.00000  celldm(3)=    0.00000
     celldm(4)=    0.00000  celldm(5)=    0.00000  celldm(6)=    0.00000

     crystal axes: (cart. coord. in units of alat)
               a(1) = (  0.5000  0.5000  0.5000 )  
               a(2) = ( -0.5000  0.5000  0.5000 )  
               a(3) = ( -0.5000 -0.5000  0.5000 )  

     reciprocal axes: (cart. coord. in units 2 pi/alat)
               b(1) = (  1.0000  0.0000  1.0000 )  
               b(2) = ( -1.0000  1.0000  0.0000 )  
               b(3) = (  0.0000 -1.0000  1.0000 )  


     Atoms inside the unit cell: 

     Cartesian axes

     site n.  atom      mass           positions (alat units)
        1     Na  22.9900   tau(    1) = (    0.00000    0.00000    0.00000  )

     Computing dynamical matrix for 
                    q = (  -0.1666667  -0.1666667   0.3333333 )

      2 Sym.Ops. (no q -> -q+G )


     G cutoff =  383.6782  (    979 G-vectors)     FFT grid: ( 36, 36, 36)
     G cutoff =  191.8391  (    343 G-vectors)  smooth grid: ( 24, 24, 24)

     number of k points=  8400  Marzari-Vanderbilt smearing, width (Ry)=  0.0200

     PseudoPot. # 1 for Na read from file:
     /home/s1333534/quantum_espresso/qe-6.1/pseudo/Na_pbe_v1.uspp.F.UPF
     MD5 check sum: 76a99c7e9422403d3e93cbc85ab7bccb
     Pseudo is Ultrasoft, Zval =  9.0
     Generated by new atomic code, or converted to UPF format
     Using radial grid of  819 points,  5 beta functions with: 
                l(1) =   0
                l(2) =   0
                l(3) =   1
                l(4) =   1
                l(5) =   2
     Q(r) pseudized with  8 coefficients,  rinner =    1.250   1.250   1.250
                                                       1.250   1.250

     Mode symmetry, C_s (m)     point group:


     Atomic displacements:
     There are   3 irreducible representations

     Representation     1      1 modes -A'  To be done

     Representation     2      1 modes -A'  To be done

     Representation     3      1 modes -A''  To be done



     Alpha used in Ewald sum =   2.8000
     PHONON       : 12m23.92s CPU    13m32.14s WALL



     Representation #  1 mode #   1

     Self-consistent Calculation

      iter #   1 total cpu time :   825.0 secs   av.it.:   5.6
      thresh= 1.000E-02 alpha_mix =  0.700 |ddv_scf|^2 =  1.601E-04

      iter #   2 total cpu time :   838.8 secs   av.it.:   7.3
      thresh= 1.265E-03 alpha_mix =  0.700 |ddv_scf|^2 =  1.493E-03

      iter #   3 total cpu time :   850.2 secs   av.it.:   5.6
      thresh= 3.864E-03 alpha_mix =  0.700 |ddv_scf|^2 =  1.683E-07

      iter #   4 total cpu time :   865.0 secs   av.it.:   8.3
      thresh= 4.103E-05 alpha_mix =  0.700 |ddv_scf|^2 =  4.774E-09

      iter #   5 total cpu time :   879.1 secs   av.it.:   7.9
      thresh= 6.909E-06 alpha_mix =  0.700 |ddv_scf|^2 =  2.738E-10

      iter #   6 total cpu time :   893.7 secs   av.it.:   8.2
      thresh= 1.655E-06 alpha_mix =  0.700 |ddv_scf|^2 =  2.548E-11

      iter #   7 total cpu time :   907.6 secs   av.it.:   7.7
      thresh= 5.047E-07 alpha_mix =  0.700 |ddv_scf|^2 =  6.900E-11

      iter #   8 total cpu time :   920.2 secs   av.it.:   6.7
      thresh= 8.306E-07 alpha_mix =  0.700 |ddv_scf|^2 =  3.281E-11

      iter #   9 total cpu time :   931.7 secs   av.it.:   5.8
      thresh= 5.728E-07 alpha_mix =  0.700 |ddv_scf|^2 =  8.201E-13

      iter #  10 total cpu time :   945.4 secs   av.it.:   7.3
      thresh= 9.056E-08 alpha_mix =  0.700 |ddv_scf|^2 =  7.235E-15

      iter #  11 total cpu time :   960.2 secs   av.it.:   8.0
      thresh= 8.506E-09 alpha_mix =  0.700 |ddv_scf|^2 =  2.051E-16

      iter #  12 total cpu time :   974.1 secs   av.it.:   7.8
      thresh= 1.432E-09 alpha_mix =  0.700 |ddv_scf|^2 =  2.408E-17

     End of self-consistent calculation

     Convergence has been achieved 


     Representation #  2 mode #   2

     Self-consistent Calculation

      iter #   1 total cpu time :   988.2 secs   av.it.:   5.8
      thresh= 1.000E-02 alpha_mix =  0.700 |ddv_scf|^2 =  1.310E-03

      iter #   2 total cpu time :  1000.8 secs   av.it.:   6.7
      thresh= 3.619E-03 alpha_mix =  0.700 |ddv_scf|^2 =  1.320E-02

      iter #   3 total cpu time :  1012.4 secs   av.it.:   5.7
      thresh= 1.000E-02 alpha_mix =  0.700 |ddv_scf|^2 =  1.393E-06

      iter #   4 total cpu time :  1026.3 secs   av.it.:   7.6
      thresh= 1.180E-04 alpha_mix =  0.700 |ddv_scf|^2 =  6.030E-09

      iter #   5 total cpu time :  1041.0 secs   av.it.:   8.4
      thresh= 7.765E-06 alpha_mix =  0.700 |ddv_scf|^2 =  1.303E-09

      iter #   6 total cpu time :  1055.2 secs   av.it.:   7.9
      thresh= 3.610E-06 alpha_mix =  0.700 |ddv_scf|^2 =  1.134E-11

      iter #   7 total cpu time :  1069.7 secs   av.it.:   8.0
      thresh= 3.367E-07 alpha_mix =  0.700 |ddv_scf|^2 =  2.709E-12

      iter #   8 total cpu time :  1083.4 secs   av.it.:   7.3
      thresh= 1.646E-07 alpha_mix =  0.700 |ddv_scf|^2 =  8.391E-12

      iter #   9 total cpu time :  1095.5 secs   av.it.:   6.5
      thresh= 2.897E-07 alpha_mix =  0.700 |ddv_scf|^2 =  7.573E-13

      iter #  10 total cpu time :  1108.7 secs   av.it.:   7.1
      thresh= 8.702E-08 alpha_mix =  0.700 |ddv_scf|^2 =  3.972E-14

      iter #  11 total cpu time :  1122.9 secs   av.it.:   7.7
      thresh= 1.993E-08 alpha_mix =  0.700 |ddv_scf|^2 =  2.433E-16

      iter #  12 total cpu time :  1137.4 secs   av.it.:   8.2
      thresh= 1.560E-09 alpha_mix =  0.700 |ddv_scf|^2 =  2.583E-17

     End of self-consistent calculation

     Convergence has been achieved 


     Representation #  3 mode #   3

     Self-consistent Calculation

      iter #   1 total cpu time :  1150.2 secs   av.it.:   5.5
      thresh= 1.000E-02 alpha_mix =  0.700 |ddv_scf|^2 =  1.628E-05

      iter #   2 total cpu time :  1164.3 secs   av.it.:   7.7
      thresh= 4.035E-04 alpha_mix =  0.700 |ddv_scf|^2 =  2.215E-07

      iter #   3 total cpu time :  1179.5 secs   av.it.:   8.0
      thresh= 4.706E-05 alpha_mix =  0.700 |ddv_scf|^2 =  8.657E-09

      iter #   4 total cpu time :  1193.6 secs   av.it.:   7.7
      thresh= 9.305E-06 alpha_mix =  0.700 |ddv_scf|^2 =  6.701E-11

      iter #   5 total cpu time :  1207.9 secs   av.it.:   7.5
      thresh= 8.186E-07 alpha_mix =  0.700 |ddv_scf|^2 =  6.603E-14

      iter #   6 total cpu time :  1221.8 secs   av.it.:   7.4
      thresh= 2.570E-08 alpha_mix =  0.700 |ddv_scf|^2 =  3.197E-15

      iter #   7 total cpu time :  1235.3 secs   av.it.:   7.5
      thresh= 5.654E-09 alpha_mix =  0.700 |ddv_scf|^2 =  1.019E-17

     End of self-consistent calculation

     Convergence has been achieved 

     Number of q in the star =   24
     List of q in the star:
          1  -0.166666667  -0.166666667   0.333333333
          2  -0.166666667  -0.333333333   0.166666667
          3   0.166666667  -0.333333333   0.166666667
          4  -0.166666667   0.333333333  -0.166666667
          5   0.166666667   0.333333333  -0.166666667
          6   0.166666667   0.166666667  -0.333333333
          7  -0.166666667   0.166666667  -0.333333333
          8   0.333333333   0.166666667  -0.166666667
          9  -0.333333333   0.166666667   0.166666667
         10   0.333333333  -0.166666667   0.166666667
         11  -0.333333333  -0.166666667  -0.166666667
         12  -0.166666667  -0.166666667  -0.333333333
         13  -0.166666667   0.333333333   0.166666667
         14  -0.166666667  -0.333333333  -0.166666667
         15  -0.166666667   0.166666667   0.333333333
         16   0.166666667  -0.166666667   0.333333333
         17   0.166666667  -0.333333333  -0.166666667
         18  -0.333333333   0.166666667  -0.166666667
         19   0.333333333   0.166666667   0.166666667
         20  -0.333333333  -0.166666667   0.166666667
         21   0.333333333  -0.166666667  -0.166666667
         22   0.166666667  -0.166666667  -0.333333333
         23   0.166666667   0.166666667   0.333333333
         24   0.166666667   0.333333333   0.166666667

     Diagonalizing the dynamical matrix

     q = (   -0.166666667  -0.166666667   0.333333333 ) 

 **************************************************************************
     freq (    1) =       1.815456 [THz] =      60.557093 [cm-1]
     freq (    2) =       2.944067 [THz] =      98.203495 [cm-1]
     freq (    3) =       5.121499 [THz] =     170.834824 [cm-1]
 **************************************************************************

     Mode symmetry, C_s (m)     point group:

     freq (  1 -  1) =         60.6  [cm-1]   --> A'                 
     freq (  2 -  2) =         98.2  [cm-1]   --> A''                
     freq (  3 -  3) =        170.8  [cm-1]   --> A'                 

     Calculation of q =   -0.1666667   0.6666667  -0.5000000

   Info: using nr1, nr2, nr3 values from input

   Info: using nr1, nr2, nr3 values from input

     Parallelization info
     --------------------
     sticks:   dense  smooth     PW     G-vecs:    dense   smooth      PW
     Min          52      25     10                  978      339      88
     Max          53      26     11                  982      343      91
     Sum         841     415    173                15683     5473    1433



     bravais-lattice index     =            3
     lattice parameter (alat)  =       6.8800  a.u.
     unit-cell volume          =     162.8303 (a.u.)^3
     number of atoms/cell      =            1
     number of atomic types    =            1
     number of electrons       =         9.00
     number of Kohn-Sham states=            9
     kinetic-energy cutoff     =      40.0000  Ry
     charge density cutoff     =     320.0000  Ry
     Exchange-correlation      = SLA  PW   PBE  PBE ( 1  4  3  4 0 0)

     celldm(1)=   6.880000  celldm(2)=   0.000000  celldm(3)=   0.000000
     celldm(4)=   0.000000  celldm(5)=   0.000000  celldm(6)=   0.000000

     crystal axes: (cart. coord. in units of alat)
               a(1) = (   0.500000   0.500000   0.500000 )  
               a(2) = (  -0.500000   0.500000   0.500000 )  
               a(3) = (  -0.500000  -0.500000   0.500000 )  

     reciprocal axes: (cart. coord. in units 2 pi/alat)
               b(1) = (  1.000000  0.000000  1.000000 )  
               b(2) = ( -1.000000  1.000000  0.000000 )  
               b(3) = (  0.000000 -1.000000  1.000000 )  


     PseudoPot. # 1 for Na read from file:
     /home/s1333534/quantum_espresso/qe-6.1/pseudo/Na_pbe_v1.uspp.F.UPF
     MD5 check sum: 76a99c7e9422403d3e93cbc85ab7bccb
     Pseudo is Ultrasoft, Zval =  9.0
     Generated by new atomic code, or converted to UPF format
     Using radial grid of  819 points,  5 beta functions with: 
                l(1) =   0
                l(2) =   0
                l(3) =   1
                l(4) =   1
                l(5) =   2
     Q(r) pseudized with  8 coefficients,  rinner =    1.250   1.250   1.250
                                                       1.250   1.250

     atomic species   valence    mass     pseudopotential
        Na             9.00    22.99000     Na( 1.00)

     48 Sym. Ops., with inversion, found



   Cartesian axes

     site n.     atom                  positions (alat units)
         1           Na  tau(   1) = (   0.0000000   0.0000000   0.0000000  )

     number of k points= 16000  Marzari-Vanderbilt smearing, width (Ry)=  0.0200

     Number of k-points >= 100: set verbosity='high' to print them.

     Dense  grid:    15683 G-vectors     FFT dimensions: (  36,  36,  36)

     Smooth grid:     5473 G-vectors     FFT dimensions: (  24,  24,  24)

     Estimated max dynamical RAM per process >       0.54MB

     Estimated total allocated dynamical RAM >      34.46MB

     The potential is recalculated from file :
     ./_ph0/na.bcc.save/charge-density.dat

     Starting wfc are    5 atomic +    4 random wfc

     Band Structure Calculation
     Davidson diagonalization with overlap

     ethr =  1.11E-10,  avg # of iterations = 18.1

     total cpu time spent up to now is      499.5 secs

     End of band structure calculation

     Number of k-points >= 100: set verbosity='high' to print the bands.

     the Fermi energy is     3.8798 ev

     Writing output data file na.bcc.save

                                                                                

     bravais-lattice index     =            3
     lattice parameter (alat)  =       6.8800  a.u.
     unit-cell volume          =     162.8303 (a.u.)^3
     number of atoms/cell      =            1
     number of atomic types    =            1
     kinetic-energy cut-off    =      40.0000  Ry
     charge density cut-off    =     320.0000  Ry
     convergence threshold     =      1.0E-16
     beta                      =       0.7000
     number of iterations used =            4
     Exchange-correlation      = SLA  PW   PBE  PBE ( 1  4  3  4 0 0)


     celldm(1)=    6.88000  celldm(2)=    0.00000  celldm(3)=    0.00000
     celldm(4)=    0.00000  celldm(5)=    0.00000  celldm(6)=    0.00000

     crystal axes: (cart. coord. in units of alat)
               a(1) = (  0.5000  0.5000  0.5000 )  
               a(2) = ( -0.5000  0.5000  0.5000 )  
               a(3) = ( -0.5000 -0.5000  0.5000 )  

     reciprocal axes: (cart. coord. in units 2 pi/alat)
               b(1) = (  1.0000  0.0000  1.0000 )  
               b(2) = ( -1.0000  1.0000  0.0000 )  
               b(3) = (  0.0000 -1.0000  1.0000 )  


     Atoms inside the unit cell: 

     Cartesian axes

     site n.  atom      mass           positions (alat units)
        1     Na  22.9900   tau(    1) = (    0.00000    0.00000    0.00000  )

     Computing dynamical matrix for 
                    q = (  -0.1666667   0.6666667  -0.5000000 )

     No symmetry!

     G cutoff =  383.6782  (    979 G-vectors)     FFT grid: ( 36, 36, 36)
     G cutoff =  191.8391  (    343 G-vectors)  smooth grid: ( 24, 24, 24)

     number of k points= 16000  Marzari-Vanderbilt smearing, width (Ry)=  0.0200

     PseudoPot. # 1 for Na read from file:
     /home/s1333534/quantum_espresso/qe-6.1/pseudo/Na_pbe_v1.uspp.F.UPF
     MD5 check sum: 76a99c7e9422403d3e93cbc85ab7bccb
     Pseudo is Ultrasoft, Zval =  9.0
     Generated by new atomic code, or converted to UPF format
     Using radial grid of  819 points,  5 beta functions with: 
                l(1) =   0
                l(2) =   0
                l(3) =   1
                l(4) =   1
                l(5) =   2
     Q(r) pseudized with  8 coefficients,  rinner =    1.250   1.250   1.250
                                                       1.250   1.250

     Mode symmetry, C_1 (1)     point group:


     Atomic displacements:
     There are   3 irreducible representations

     Representation     1      1 modes -A  To be done

     Representation     2      1 modes -A  To be done

     Representation     3      1 modes -A  To be done



     Alpha used in Ewald sum =   2.8000
     PHONON       : 22m46.29s CPU    24m53.39s WALL



     Representation #  1 mode #   1

     Self-consistent Calculation

      iter #   1 total cpu time :  1519.7 secs   av.it.:   5.7
      thresh= 1.000E-02 alpha_mix =  0.700 |ddv_scf|^2 =  1.799E-05

      iter #   2 total cpu time :  1550.3 secs   av.it.:   7.9
      thresh= 4.242E-04 alpha_mix =  0.700 |ddv_scf|^2 =  2.129E-06

      iter #   3 total cpu time :  1580.9 secs   av.it.:   7.5
      thresh= 1.459E-04 alpha_mix =  0.700 |ddv_scf|^2 =  8.278E-07

      iter #   4 total cpu time :  1609.9 secs   av.it.:   7.4
      thresh= 9.098E-05 alpha_mix =  0.700 |ddv_scf|^2 =  4.419E-09

      iter #   5 total cpu time :  1638.9 secs   av.it.:   7.8
      thresh= 6.648E-06 alpha_mix =  0.700 |ddv_scf|^2 =  3.453E-10

      iter #   6 total cpu time :  1668.9 secs   av.it.:   7.9
      thresh= 1.858E-06 alpha_mix =  0.700 |ddv_scf|^2 =  5.090E-12

      iter #   7 total cpu time :  1699.3 secs   av.it.:   8.3
      thresh= 2.256E-07 alpha_mix =  0.700 |ddv_scf|^2 =  2.993E-13

      iter #   8 total cpu time :  1730.1 secs   av.it.:   8.4
      thresh= 5.471E-08 alpha_mix =  0.700 |ddv_scf|^2 =  1.343E-14

      iter #   9 total cpu time :  1760.3 secs   av.it.:   8.3
      thresh= 1.159E-08 alpha_mix =  0.700 |ddv_scf|^2 =  3.719E-16

      iter #  10 total cpu time :  1790.1 secs   av.it.:   7.5
      thresh= 1.929E-09 alpha_mix =  0.700 |ddv_scf|^2 =  1.152E-16

      iter #  11 total cpu time :  1819.5 secs   av.it.:   7.4
      thresh= 1.073E-09 alpha_mix =  0.700 |ddv_scf|^2 =  1.971E-18

     End of self-consistent calculation

     Convergence has been achieved 


     Representation #  2 mode #   2

     Self-consistent Calculation

      iter #   1 total cpu time :  1846.3 secs   av.it.:   5.8
      thresh= 1.000E-02 alpha_mix =  0.700 |ddv_scf|^2 =  7.953E-05

      iter #   2 total cpu time :  1875.9 secs   av.it.:   7.5
      thresh= 8.918E-04 alpha_mix =  0.700 |ddv_scf|^2 =  6.135E-05

      iter #   3 total cpu time :  1903.8 secs   av.it.:   7.0
      thresh= 7.832E-04 alpha_mix =  0.700 |ddv_scf|^2 =  1.028E-07

      iter #   4 total cpu time :  1933.6 secs   av.it.:   8.3
      thresh= 3.206E-05 alpha_mix =  0.700 |ddv_scf|^2 =  3.859E-09

      iter #   5 total cpu time :  1963.7 secs   av.it.:   8.4
      thresh= 6.212E-06 alpha_mix =  0.700 |ddv_scf|^2 =  4.523E-10

      iter #   6 total cpu time :  1993.2 secs   av.it.:   8.1
      thresh= 2.127E-06 alpha_mix =  0.700 |ddv_scf|^2 =  8.709E-12

      iter #   7 total cpu time :  2021.5 secs   av.it.:   7.7
      thresh= 2.951E-07 alpha_mix =  0.700 |ddv_scf|^2 =  7.054E-13

      iter #   8 total cpu time :  2050.6 secs   av.it.:   7.8
      thresh= 8.399E-08 alpha_mix =  0.700 |ddv_scf|^2 =  3.054E-14

      iter #   9 total cpu time :  2079.9 secs   av.it.:   7.6
      thresh= 1.747E-08 alpha_mix =  0.700 |ddv_scf|^2 =  1.475E-15

      iter #  10 total cpu time :  2108.8 secs   av.it.:   7.7
      thresh= 3.840E-09 alpha_mix =  0.700 |ddv_scf|^2 =  2.836E-17

     End of self-consistent calculation

     Convergence has been achieved 


     Representation #  3 mode #   3

     Self-consistent Calculation

      iter #   1 total cpu time :  2136.5 secs   av.it.:   5.8
      thresh= 1.000E-02 alpha_mix =  0.700 |ddv_scf|^2 =  8.933E-05

      iter #   2 total cpu time :  2165.1 secs   av.it.:   7.4
      thresh= 9.451E-04 alpha_mix =  0.700 |ddv_scf|^2 =  6.205E-05

      iter #   3 total cpu time :  2191.5 secs   av.it.:   7.0
      thresh= 7.877E-04 alpha_mix =  0.700 |ddv_scf|^2 =  3.659E-07

      iter #   4 total cpu time :  2221.5 secs   av.it.:   7.8
      thresh= 6.049E-05 alpha_mix =  0.700 |ddv_scf|^2 =  8.863E-09

      iter #   5 total cpu time :  2251.6 secs   av.it.:   8.4
      thresh= 9.415E-06 alpha_mix =  0.700 |ddv_scf|^2 =  2.462E-10

      iter #   6 total cpu time :  2282.0 secs   av.it.:   8.3
      thresh= 1.569E-06 alpha_mix =  0.700 |ddv_scf|^2 =  1.966E-11

      iter #   7 total cpu time :  2311.8 secs   av.it.:   8.2
      thresh= 4.433E-07 alpha_mix =  0.700 |ddv_scf|^2 =  9.148E-13

      iter #   8 total cpu time :  2342.5 secs   av.it.:   8.3
      thresh= 9.565E-08 alpha_mix =  0.700 |ddv_scf|^2 =  5.641E-14

      iter #   9 total cpu time :  2370.1 secs   av.it.:   7.4
      thresh= 2.375E-08 alpha_mix =  0.700 |ddv_scf|^2 =  3.113E-15

      iter #  10 total cpu time :  2398.4 secs   av.it.:   7.8
      thresh= 5.580E-09 alpha_mix =  0.700 |ddv_scf|^2 =  4.669E-17

     End of self-consistent calculation

     Convergence has been achieved 

     Number of q in the star =   48
     List of q in the star:
          1  -0.166666667   0.666666667  -0.500000000
          2   0.666666667  -0.166666667  -0.500000000
          3  -0.166666667   0.500000000  -0.666666667
          4   0.166666667   0.500000000  -0.666666667
          5  -0.166666667  -0.500000000   0.666666667
          6   0.166666667  -0.500000000   0.666666667
          7   0.166666667  -0.666666667   0.500000000
          8  -0.166666667  -0.666666667   0.500000000
          9  -0.500000000  -0.666666667  -0.166666667
         10   0.500000000  -0.666666667   0.166666667
         11  -0.500000000   0.666666667   0.166666667
         12   0.500000000   0.666666667  -0.166666667
         13   0.666666667  -0.166666667   0.500000000
         14   0.666666667  -0.500000000  -0.166666667
         15  -0.166666667  -0.500000000  -0.666666667
         16  -0.166666667   0.500000000   0.666666667
         17   0.666666667   0.166666667  -0.500000000
         18   0.166666667   0.666666667  -0.500000000
         19   0.666666667   0.500000000   0.166666667
         20  -0.666666667   0.500000000  -0.166666667
         21   0.500000000   0.166666667   0.666666667
         22  -0.500000000   0.166666667  -0.666666667
         23   0.500000000   0.666666667   0.166666667
         24   0.500000000  -0.166666667  -0.666666667
         25  -0.666666667   0.166666667   0.500000000
         26  -0.166666667   0.666666667   0.500000000
         27  -0.500000000  -0.166666667   0.666666667
         28   0.166666667   0.666666667   0.500000000
         29  -0.500000000   0.666666667  -0.166666667
         30  -0.666666667  -0.166666667  -0.500000000
         31  -0.666666667  -0.166666667   0.500000000
         32   0.666666667   0.166666667   0.500000000
         33   0.166666667  -0.666666667  -0.500000000
         34  -0.666666667   0.166666667  -0.500000000
         35   0.500000000  -0.666666667  -0.166666667
         36  -0.500000000  -0.666666667   0.166666667
         37  -0.166666667  -0.666666667  -0.500000000
         38  -0.666666667  -0.500000000   0.166666667
         39   0.166666667   0.500000000   0.666666667
         40   0.166666667  -0.500000000  -0.666666667
         41  -0.666666667   0.500000000   0.166666667
         42   0.666666667   0.500000000  -0.166666667
         43  -0.666666667  -0.500000000  -0.166666667
         44   0.666666667  -0.500000000   0.166666667
         45   0.500000000   0.166666667  -0.666666667
         46   0.500000000  -0.166666667   0.666666667
         47  -0.500000000  -0.166666667  -0.666666667
         48  -0.500000000   0.166666667   0.666666667

     Diagonalizing the dynamical matrix

     q = (   -0.166666667   0.666666667  -0.500000000 ) 

 **************************************************************************
     freq (    1) =       2.226702 [THz] =      74.274784 [cm-1]
     freq (    2) =       4.150450 [THz] =     138.444096 [cm-1]
     freq (    3) =       6.387245 [THz] =     213.055553 [cm-1]
 **************************************************************************

     Mode symmetry, C_1 (1)     point group:

     freq (  1 -  1) =         74.3  [cm-1]   --> A                  
     freq (  2 -  2) =        138.4  [cm-1]   --> A                  
     freq (  3 -  3) =        213.1  [cm-1]   --> A                  

     Calculation of q =   -0.3333333   0.6666667  -0.3333333

   Info: using nr1, nr2, nr3 values from input

   Info: using nr1, nr2, nr3 values from input

     Parallelization info
     --------------------
     sticks:   dense  smooth     PW     G-vecs:    dense   smooth      PW
     Min          52      25     10                  978      339      87
     Max          53      26     11                  982      343      89
     Sum         841     415    169                15683     5473    1409



     bravais-lattice index     =            3
     lattice parameter (alat)  =       6.8800  a.u.
     unit-cell volume          =     162.8303 (a.u.)^3
     number of atoms/cell      =            1
     number of atomic types    =            1
     number of electrons       =         9.00
     number of Kohn-Sham states=            9
     kinetic-energy cutoff     =      40.0000  Ry
     charge density cutoff     =     320.0000  Ry
     Exchange-correlation      = SLA  PW   PBE  PBE ( 1  4  3  4 0 0)

     celldm(1)=   6.880000  celldm(2)=   0.000000  celldm(3)=   0.000000
     celldm(4)=   0.000000  celldm(5)=   0.000000  celldm(6)=   0.000000

     crystal axes: (cart. coord. in units of alat)
               a(1) = (   0.500000   0.500000   0.500000 )  
               a(2) = (  -0.500000   0.500000   0.500000 )  
               a(3) = (  -0.500000  -0.500000   0.500000 )  

     reciprocal axes: (cart. coord. in units 2 pi/alat)
               b(1) = (  1.000000  0.000000  1.000000 )  
               b(2) = ( -1.000000  1.000000  0.000000 )  
               b(3) = (  0.000000 -1.000000  1.000000 )  


     PseudoPot. # 1 for Na read from file:
     /home/s1333534/quantum_espresso/qe-6.1/pseudo/Na_pbe_v1.uspp.F.UPF
     MD5 check sum: 76a99c7e9422403d3e93cbc85ab7bccb
     Pseudo is Ultrasoft, Zval =  9.0
     Generated by new atomic code, or converted to UPF format
     Using radial grid of  819 points,  5 beta functions with: 
                l(1) =   0
                l(2) =   0
                l(3) =   1
                l(4) =   1
                l(5) =   2
     Q(r) pseudized with  8 coefficients,  rinner =    1.250   1.250   1.250
                                                       1.250   1.250

     atomic species   valence    mass     pseudopotential
        Na             9.00    22.99000     Na( 1.00)

     48 Sym. Ops., with inversion, found



   Cartesian axes

     site n.     atom                  positions (alat units)
         1           Na  tau(   1) = (   0.0000000   0.0000000   0.0000000  )

     number of k points=  3080  Marzari-Vanderbilt smearing, width (Ry)=  0.0200

     Number of k-points >= 100: set verbosity='high' to print them.

     Dense  grid:    15683 G-vectors     FFT dimensions: (  36,  36,  36)

     Smooth grid:     5473 G-vectors     FFT dimensions: (  24,  24,  24)

     Estimated max dynamical RAM per process >       0.54MB

     Estimated total allocated dynamical RAM >      34.46MB

     The potential is recalculated from file :
     ./_ph0/na.bcc.save/charge-density.dat

     Starting wfc are    5 atomic +    4 random wfc

     Band Structure Calculation
     Davidson diagonalization with overlap

     ethr =  1.11E-10,  avg # of iterations = 18.3

     total cpu time spent up to now is      584.2 secs

     End of band structure calculation

     Number of k-points >= 100: set verbosity='high' to print the bands.

     the Fermi energy is     3.8798 ev

     Writing output data file na.bcc.save

                                                                                

     bravais-lattice index     =            3
     lattice parameter (alat)  =       6.8800  a.u.
     unit-cell volume          =     162.8303 (a.u.)^3
     number of atoms/cell      =            1
     number of atomic types    =            1
     kinetic-energy cut-off    =      40.0000  Ry
     charge density cut-off    =     320.0000  Ry
     convergence threshold     =      1.0E-16
     beta                      =       0.7000
     number of iterations used =            4
     Exchange-correlation      = SLA  PW   PBE  PBE ( 1  4  3  4 0 0)


     celldm(1)=    6.88000  celldm(2)=    0.00000  celldm(3)=    0.00000
     celldm(4)=    0.00000  celldm(5)=    0.00000  celldm(6)=    0.00000

     crystal axes: (cart. coord. in units of alat)
               a(1) = (  0.5000  0.5000  0.5000 )  
               a(2) = ( -0.5000  0.5000  0.5000 )  
               a(3) = ( -0.5000 -0.5000  0.5000 )  

     reciprocal axes: (cart. coord. in units 2 pi/alat)
               b(1) = (  1.0000  0.0000  1.0000 )  
               b(2) = ( -1.0000  1.0000  0.0000 )  
               b(3) = (  0.0000 -1.0000  1.0000 )  


     Atoms inside the unit cell: 

     Cartesian axes

     site n.  atom      mass           positions (alat units)
        1     Na  22.9900   tau(    1) = (    0.00000    0.00000    0.00000  )

     Computing dynamical matrix for 
                    q = (  -0.3333333   0.6666667  -0.3333333 )

      6 Sym.Ops. (no q -> -q+G )


     G cutoff =  383.6782  (    982 G-vectors)     FFT grid: ( 36, 36, 36)
     G cutoff =  191.8391  (    343 G-vectors)  smooth grid: ( 24, 24, 24)

     number of k points=  3080  Marzari-Vanderbilt smearing, width (Ry)=  0.0200

     PseudoPot. # 1 for Na read from file:
     /home/s1333534/quantum_espresso/qe-6.1/pseudo/Na_pbe_v1.uspp.F.UPF
     MD5 check sum: 76a99c7e9422403d3e93cbc85ab7bccb
     Pseudo is Ultrasoft, Zval =  9.0
     Generated by new atomic code, or converted to UPF format
     Using radial grid of  819 points,  5 beta functions with: 
                l(1) =   0
                l(2) =   0
                l(3) =   1
                l(4) =   1
                l(5) =   2
     Q(r) pseudized with  8 coefficients,  rinner =    1.250   1.250   1.250
                                                       1.250   1.250

     Mode symmetry, C_3v (3m)   point group:


     Atomic displacements:
     There are   2 irreducible representations

     Representation     1      1 modes -A_1  L_1  To be done

     Representation     2      2 modes -E    L_3  To be done



     Alpha used in Ewald sum =   2.8000
     PHONON       : 36m59.04s CPU    40m49.73s WALL



     Representation #  1 mode #   1

     Self-consistent Calculation

      iter #   1 total cpu time :  2454.6 secs   av.it.:   5.4
      thresh= 1.000E-02 alpha_mix =  0.700 |ddv_scf|^2 =  1.512E-05

      iter #   2 total cpu time :  2460.0 secs   av.it.:   7.7
      thresh= 3.889E-04 alpha_mix =  0.700 |ddv_scf|^2 =  2.412E-07

      iter #   3 total cpu time :  2465.6 secs   av.it.:   7.9
      thresh= 4.911E-05 alpha_mix =  0.700 |ddv_scf|^2 =  7.328E-09

      iter #   4 total cpu time :  2470.8 secs   av.it.:   7.6
      thresh= 8.560E-06 alpha_mix =  0.700 |ddv_scf|^2 =  2.207E-10

      iter #   5 total cpu time :  2476.2 secs   av.it.:   7.7
      thresh= 1.485E-06 alpha_mix =  0.700 |ddv_scf|^2 =  4.921E-12

      iter #   6 total cpu time :  2482.0 secs   av.it.:   8.1
      thresh= 2.218E-07 alpha_mix =  0.700 |ddv_scf|^2 =  5.469E-13

      iter #   7 total cpu time :  2488.6 secs   av.it.:   8.0
      thresh= 7.395E-08 alpha_mix =  0.700 |ddv_scf|^2 =  3.525E-15

      iter #   8 total cpu time :  2494.2 secs   av.it.:   7.9
      thresh= 5.937E-09 alpha_mix =  0.700 |ddv_scf|^2 =  4.945E-17

     End of self-consistent calculation

     Convergence has been achieved 


     Representation #  2 modes #   2  3

     Self-consistent Calculation

      iter #   1 total cpu time :  2504.5 secs   av.it.:   5.7
      thresh= 1.000E-02 alpha_mix =  0.700 |ddv_scf|^2 =  1.254E-05

      iter #   2 total cpu time :  2516.3 secs   av.it.:   8.1
      thresh= 3.541E-04 alpha_mix =  0.700 |ddv_scf|^2 =  1.347E-06

      iter #   3 total cpu time :  2527.6 secs   av.it.:   7.7
      thresh= 1.160E-04 alpha_mix =  0.700 |ddv_scf|^2 =  1.024E-08

      iter #   4 total cpu time :  2539.7 secs   av.it.:   8.6
      thresh= 1.012E-05 alpha_mix =  0.700 |ddv_scf|^2 =  6.489E-11

      iter #   5 total cpu time :  2550.7 secs   av.it.:   7.7
      thresh= 8.055E-07 alpha_mix =  0.700 |ddv_scf|^2 =  7.666E-14

      iter #   6 total cpu time :  2562.5 secs   av.it.:   8.1
      thresh= 2.769E-08 alpha_mix =  0.700 |ddv_scf|^2 =  4.015E-15

      iter #   7 total cpu time :  2573.8 secs   av.it.:   8.1
      thresh= 6.337E-09 alpha_mix =  0.700 |ddv_scf|^2 =  8.727E-18

     End of self-consistent calculation

     Convergence has been achieved 

     Number of q in the star =    8
     List of q in the star:
          1  -0.333333333   0.666666667  -0.333333333
          2   0.333333333  -0.666666667   0.333333333
          3  -0.333333333  -0.666666667   0.333333333
          4  -0.333333333  -0.666666667  -0.333333333
          5  -0.333333333   0.666666667   0.333333333
          6   0.333333333   0.666666667  -0.333333333
          7  -0.666666667   0.333333333  -0.333333333
          8   0.333333333   0.666666667   0.333333333

     Diagonalizing the dynamical matrix

     q = (   -0.333333333   0.666666667  -0.333333333 ) 

 **************************************************************************
     freq (    1) =       2.558737 [THz] =      85.350267 [cm-1]
     freq (    2) =       5.734975 [THz] =     191.298165 [cm-1]
     freq (    3) =       5.734975 [THz] =     191.298165 [cm-1]
 **************************************************************************

     Mode symmetry, C_3v (3m)   point group:

     freq (  1 -  1) =         85.4  [cm-1]   --> A_1  L_1           
     freq (  2 -  3) =        191.3  [cm-1]   --> E    L_3           

     Calculation of q =    0.0000000   0.0000000   0.3333333

   Info: using nr1, nr2, nr3 values from input

   Info: using nr1, nr2, nr3 values from input

     Parallelization info
     --------------------
     sticks:   dense  smooth     PW     G-vecs:    dense   smooth      PW
     Min          52      25      9                  978      339      72
     Max          53      26     11                  982      343      73
     Sum         841     415    151                15683     5473    1157



     bravais-lattice index     =            3
     lattice parameter (alat)  =       6.8800  a.u.
     unit-cell volume          =     162.8303 (a.u.)^3
     number of atoms/cell      =            1
     number of atomic types    =            1
     number of electrons       =         9.00
     number of Kohn-Sham states=            9
     kinetic-energy cutoff     =      40.0000  Ry
     charge density cutoff     =     320.0000  Ry
     Exchange-correlation      = SLA  PW   PBE  PBE ( 1  4  3  4 0 0)

     celldm(1)=   6.880000  celldm(2)=   0.000000  celldm(3)=   0.000000
     celldm(4)=   0.000000  celldm(5)=   0.000000  celldm(6)=   0.000000

     crystal axes: (cart. coord. in units of alat)
               a(1) = (   0.500000   0.500000   0.500000 )  
[...]

     PseudoPot. # 1 for Na read from file:
     /home/s1333534/quantum_espresso/qe-6.1/pseudo/Na_pbe_v1.uspp.F.UPF
     MD5 check sum: 76a99c7e9422403d3e93cbc85ab7bccb
     Pseudo is Ultrasoft, Zval =  9.0
     Generated by new atomic code, or converted to UPF format
     Using radial grid of  819 points,  5 beta functions with: 
                l(1) =   0
                l(2) =   0
                l(3) =   1
                l(4) =   1
                l(5) =   2
     Q(r) pseudized with  8 coefficients,  rinner =    1.250   1.250   1.250
                                                       1.250   1.250

     Mode symmetry, C_2v (mm2)  point group:


     Atomic displacements:
     There are   3 irreducible representations

     Representation     1      1 modes -A_1  D_1  S_1  To be done

     Representation     2      1 modes -B_1  D_3  S_3  To be done

     Representation     3      1 modes -B_2  D_4  S_4  To be done



     Alpha used in Ewald sum =   2.8000
     PHONON       :     1h11m CPU        1h18m WALL



     Representation #  1 mode #   1

     Self-consistent Calculation

      iter #   1 total cpu time :  4714.1 secs   av.it.:   5.7
      thresh= 1.000E-02 alpha_mix =  0.700 |ddv_scf|^2 =  2.745E-05

      iter #   2 total cpu time :  4722.6 secs   av.it.:   7.7
      thresh= 5.239E-04 alpha_mix =  0.700 |ddv_scf|^2 =  1.053E-06

      iter #   3 total cpu time :  4730.5 secs   av.it.:   7.7
      thresh= 1.026E-04 alpha_mix =  0.700 |ddv_scf|^2 =  2.356E-08

      iter #   4 total cpu time :  4739.0 secs   av.it.:   8.2
      thresh= 1.535E-05 alpha_mix =  0.700 |ddv_scf|^2 =  1.584E-09

      iter #   5 total cpu time :  4747.2 secs   av.it.:   8.0
      thresh= 3.980E-06 alpha_mix =  0.700 |ddv_scf|^2 =  1.341E-10

      iter #   6 total cpu time :  4755.2 secs   av.it.:   7.9
      thresh= 1.158E-06 alpha_mix =  0.700 |ddv_scf|^2 =  4.470E-13

      iter #   7 total cpu time :  4763.3 secs   av.it.:   7.7
      thresh= 6.686E-08 alpha_mix =  0.700 |ddv_scf|^2 =  3.110E-14

      iter #   8 total cpu time :  4771.1 secs   av.it.:   7.8
      thresh= 1.764E-08 alpha_mix =  0.700 |ddv_scf|^2 =  2.650E-16

      iter #   9 total cpu time :  4779.3 secs   av.it.:   7.9
      thresh= 1.628E-09 alpha_mix =  0.700 |ddv_scf|^2 =  5.202E-18

     End of self-consistent calculation

     Convergence has been achieved 


     Representation #  2 mode #   2

     Self-consistent Calculation

      iter #   1 total cpu time :  4786.9 secs   av.it.:   5.6
      thresh= 1.000E-02 alpha_mix =  0.700 |ddv_scf|^2 =  2.345E-05

      iter #   2 total cpu time :  4794.8 secs   av.it.:   7.6
      thresh= 4.842E-04 alpha_mix =  0.700 |ddv_scf|^2 =  2.254E-07

      iter #   3 total cpu time :  4802.6 secs   av.it.:   7.7
      thresh= 4.747E-05 alpha_mix =  0.700 |ddv_scf|^2 =  2.071E-08

      iter #   4 total cpu time :  4810.6 secs   av.it.:   7.7
      thresh= 1.439E-05 alpha_mix =  0.700 |ddv_scf|^2 =  9.569E-11

      iter #   5 total cpu time :  4818.8 secs   av.it.:   7.6
      thresh= 9.782E-07 alpha_mix =  0.700 |ddv_scf|^2 =  3.557E-14

      iter #   6 total cpu time :  4826.0 secs   av.it.:   7.0
      thresh= 1.886E-08 alpha_mix =  0.700 |ddv_scf|^2 =  2.454E-15

      iter #   7 total cpu time :  4833.6 secs   av.it.:   7.4
      thresh= 4.954E-09 alpha_mix =  0.700 |ddv_scf|^2 =  2.772E-18

     End of self-consistent calculation

     Convergence has been achieved 


     Representation #  3 mode #   3

     Self-consistent Calculation

      iter #   1 total cpu time :  4841.0 secs   av.it.:   5.7
      thresh= 1.000E-02 alpha_mix =  0.700 |ddv_scf|^2 =  4.107E-05

      iter #   2 total cpu time :  4849.2 secs   av.it.:   7.5
      thresh= 6.409E-04 alpha_mix =  0.700 |ddv_scf|^2 =  2.643E-06

      iter #   3 total cpu time :  4856.7 secs   av.it.:   7.4
      thresh= 1.626E-04 alpha_mix =  0.700 |ddv_scf|^2 =  3.347E-08

      iter #   4 total cpu time :  4864.8 secs   av.it.:   7.9
      thresh= 1.830E-05 alpha_mix =  0.700 |ddv_scf|^2 =  9.579E-10

      iter #   5 total cpu time :  4872.5 secs   av.it.:   7.4
      thresh= 3.095E-06 alpha_mix =  0.700 |ddv_scf|^2 =  1.939E-12

      iter #   6 total cpu time :  4881.2 secs   av.it.:   7.9
      thresh= 1.393E-07 alpha_mix =  0.700 |ddv_scf|^2 =  1.194E-14

      iter #   7 total cpu time :  4889.1 secs   av.it.:   7.7
      thresh= 1.093E-08 alpha_mix =  0.700 |ddv_scf|^2 =  1.924E-16

      iter #   8 total cpu time :  4896.6 secs   av.it.:   7.5
      thresh= 1.387E-09 alpha_mix =  0.700 |ddv_scf|^2 =  5.042E-19

     End of self-consistent calculation

     Convergence has been achieved 

     Number of q in the star =   12
     List of q in the star:
          1   0.000000000   0.833333333  -0.166666667
          2   0.000000000  -0.833333333  -0.166666667
          3   0.833333333   0.000000000  -0.166666667
          4  -0.833333333   0.000000000  -0.166666667
          5  -0.166666667  -0.833333333   0.000000000
          6   0.166666667  -0.833333333   0.000000000
          7  -0.166666667   0.833333333   0.000000000
          8   0.166666667   0.833333333   0.000000000
          9   0.833333333   0.000000000   0.166666667
         10   0.000000000   0.166666667  -0.833333333
         11   0.000000000  -0.166666667  -0.833333333
         12   0.166666667   0.000000000  -0.833333333

     Diagonalizing the dynamical matrix

     q = (    0.000000000   0.833333333  -0.166666667 ) 

 **************************************************************************
     freq (    1) =       4.864115 [THz] =     162.249405 [cm-1]
     freq (    2) =       5.200167 [THz] =     173.458916 [cm-1]
     freq (    3) =       5.944812 [THz] =     198.297575 [cm-1]
 **************************************************************************

     Mode symmetry, C_2v (mm2)  point group:

     freq (  1 -  1) =        162.2  [cm-1]   --> A_1  D_1  S_1      
     freq (  2 -  2) =        173.5  [cm-1]   --> B_1  D_3  S_3      
     freq (  3 -  3) =        198.3  [cm-1]   --> B_2  D_4  S_4      

     Calculation of q =    0.0000000   0.0000000  -1.0000000

   Info: using nr1, nr2, nr3 values from input

   Info: using nr1, nr2, nr3 values from input

     Parallelization info
     --------------------
     sticks:   dense  smooth     PW     G-vecs:    dense   smooth      PW
     Min          52      25     10                  978      339      80
     Max          53      26     11                  982      343      81
     Sum         841     415    165                15683     5473    1289



     bravais-lattice index     =            3
     lattice parameter (alat)  =       6.8800  a.u.
     unit-cell volume          =     162.8303 (a.u.)^3
     number of atoms/cell      =            1
     number of atomic types    =            1
     number of electrons       =         9.00
     number of Kohn-Sham states=            9
     kinetic-energy cutoff     =      40.0000  Ry
     charge density cutoff     =     320.0000  Ry
     Exchange-correlation      = SLA  PW   PBE  PBE ( 1  4  3  4 0 0)

     celldm(1)=   6.880000  celldm(2)=   0.000000  celldm(3)=   0.000000
     celldm(4)=   0.000000  celldm(5)=   0.000000  celldm(6)=   0.000000

     crystal axes: (cart. coord. in units of alat)
               a(1) = (   0.500000   0.500000   0.500000 )  
               a(2) = (  -0.500000   0.500000   0.500000 )  
               a(3) = (  -0.500000  -0.500000   0.500000 )  

     reciprocal axes: (cart. coord. in units 2 pi/alat)
               b(1) = (  1.000000  0.000000  1.000000 )  
               b(2) = ( -1.000000  1.000000  0.000000 )  
               b(3) = (  0.000000 -1.000000  1.000000 )  


     PseudoPot. # 1 for Na read from file:
     /home/s1333534/quantum_espresso/qe-6.1/pseudo/Na_pbe_v1.uspp.F.UPF
     MD5 check sum: 76a99c7e9422403d3e93cbc85ab7bccb
     Pseudo is Ultrasoft, Zval =  9.0
     Generated by new atomic code, or converted to UPF format
     Using radial grid of  819 points,  5 beta functions with: 
                l(1) =   0
                l(2) =   0
                l(3) =   1
                l(4) =   1
                l(5) =   2
     Q(r) pseudized with  8 coefficients,  rinner =    1.250   1.250   1.250
                                                       1.250   1.250

     atomic species   valence    mass     pseudopotential
        Na             9.00    22.99000     Na( 1.00)

     48 Sym. Ops., with inversion, found



   Cartesian axes

     site n.     atom                  positions (alat units)
         1           Na  tau(   1) = (   0.0000000   0.0000000   0.0000000  )

     number of k points=   500  Marzari-Vanderbilt smearing, width (Ry)=  0.0200

     Number of k-points >= 100: set verbosity='high' to print them.

     Dense  grid:    15683 G-vectors     FFT dimensions: (  36,  36,  36)

     Smooth grid:     5473 G-vectors     FFT dimensions: (  24,  24,  24)

     Estimated max dynamical RAM per process >       0.54MB

     Estimated total allocated dynamical RAM >      34.46MB

     The potential is recalculated from file :
     ./_ph0/na.bcc.save/charge-density.dat

     Starting wfc are    5 atomic +    4 random wfc

     Band Structure Calculation
     Davidson diagonalization with overlap

     ethr =  1.11E-10,  avg # of iterations = 18.4

     total cpu time spent up to now is     1186.5 secs

     End of band structure calculation

     Number of k-points >= 100: set verbosity='high' to print the bands.

     the Fermi energy is     3.8798 ev

     Writing output data file na.bcc.save

                                                                                

     bravais-lattice index     =            3
     lattice parameter (alat)  =       6.8800  a.u.
     unit-cell volume          =     162.8303 (a.u.)^3
     number of atoms/cell      =            1
     number of atomic types    =            1
     kinetic-energy cut-off    =      40.0000  Ry
     charge density cut-off    =     320.0000  Ry
     convergence threshold     =      1.0E-16
     beta                      =       0.7000
     number of iterations used =            4
     Exchange-correlation      = SLA  PW   PBE  PBE ( 1  4  3  4 0 0)


     celldm(1)=    6.88000  celldm(2)=    0.00000  celldm(3)=    0.00000
     celldm(4)=    0.00000  celldm(5)=    0.00000  celldm(6)=    0.00000

     crystal axes: (cart. coord. in units of alat)
               a(1) = (  0.5000  0.5000  0.5000 )  
               a(2) = ( -0.5000  0.5000  0.5000 )  
               a(3) = ( -0.5000 -0.5000  0.5000 )  

     reciprocal axes: (cart. coord. in units 2 pi/alat)
               b(1) = (  1.0000  0.0000  1.0000 )  
               b(2) = ( -1.0000  1.0000  0.0000 )  
               b(3) = (  0.0000 -1.0000  1.0000 )  


     Atoms inside the unit cell: 

     Cartesian axes

     site n.  atom      mass           positions (alat units)
        1     Na  22.9900   tau(    1) = (    0.00000    0.00000    0.00000  )

     Computing dynamical matrix for 
                    q = (   0.0000000   0.0000000  -1.0000000 )

     49 Sym.Ops. (with q -> -q+G )


     G cutoff =  383.6782  (    979 G-vectors)     FFT grid: ( 36, 36, 36)
     G cutoff =  191.8391  (    343 G-vectors)  smooth grid: ( 24, 24, 24)

     number of k points=   500  Marzari-Vanderbilt smearing, width (Ry)=  0.0200

     PseudoPot. # 1 for Na read from file:
     /home/s1333534/quantum_espresso/qe-6.1/pseudo/Na_pbe_v1.uspp.F.UPF
     MD5 check sum: 76a99c7e9422403d3e93cbc85ab7bccb
     Pseudo is Ultrasoft, Zval =  9.0
     Generated by new atomic code, or converted to UPF format
     Using radial grid of  819 points,  5 beta functions with: 
                l(1) =   0
                l(2) =   0
                l(3) =   1
                l(4) =   1
                l(5) =   2
     Q(r) pseudized with  8 coefficients,  rinner =    1.250   1.250   1.250
                                                       1.250   1.250

     Mode symmetry, O_h (m-3m)  point group:


     Atomic displacements:
     There are   1 irreducible representations

     Representation     1      3 modes -T_1u G_15  G_4-  To be done



     Alpha used in Ewald sum =   2.8000
     PHONON       :     1h14m CPU        1h21m WALL



     Representation #  1 modes #   1  2  3

     Self-consistent Calculation

      iter #   1 total cpu time :  4908.9 secs   av.it.:   5.7
      thresh= 1.000E-02 alpha_mix =  0.700 |ddv_scf|^2 =  2.922E-06

      iter #   2 total cpu time :  4912.5 secs   av.it.:   8.5
      thresh= 1.709E-04 alpha_mix =  0.700 |ddv_scf|^2 =  3.105E-08

      iter #   3 total cpu time :  4916.1 secs   av.it.:   8.5
      thresh= 1.762E-05 alpha_mix =  0.700 |ddv_scf|^2 =  2.675E-09

      iter #   4 total cpu time :  4919.7 secs   av.it.:   8.6
      thresh= 5.172E-06 alpha_mix =  0.700 |ddv_scf|^2 =  1.178E-11

      iter #   5 total cpu time :  4923.2 secs   av.it.:   8.4
      thresh= 3.433E-07 alpha_mix =  0.700 |ddv_scf|^2 =  3.313E-15

      iter #   6 total cpu time :  4926.5 secs   av.it.:   7.4
      thresh= 5.756E-09 alpha_mix =  0.700 |ddv_scf|^2 =  2.376E-16

      iter #   7 total cpu time :  4930.0 secs   av.it.:   8.0
      thresh= 1.541E-09 alpha_mix =  0.700 |ddv_scf|^2 =  9.182E-20

     End of self-consistent calculation

     Convergence has been achieved 

     Number of q in the star =    1
     List of q in the star:
          1   0.000000000   0.000000000  -1.000000000

     Diagonalizing the dynamical matrix

     q = (    0.000000000   0.000000000  -1.000000000 ) 

 **************************************************************************
     freq (    1) =       5.640590 [THz] =     188.149831 [cm-1]
     freq (    2) =       5.640590 [THz] =     188.149831 [cm-1]
     freq (    3) =       5.640590 [THz] =     188.149831 [cm-1]
 **************************************************************************

     Mode symmetry, O_h (m-3m)  point group:

     freq (  1 -  3) =        188.1  [cm-1]   --> T_1u G_15  G_4-    

     init_run     :      1.91s CPU      2.05s WALL (      15 calls)
     electrons    :    893.47s CPU    957.25s WALL (      15 calls)

     Called by init_run:
     wfcinit      :      0.00s CPU      0.00s WALL (      15 calls)
     potinit      :      0.28s CPU      0.30s WALL (      15 calls)

     Called by electrons:
     c_bands      :    893.15s CPU    956.92s WALL (      15 calls)
     v_of_rho     :      0.13s CPU      0.13s WALL (      16 calls)
     newd         :      0.10s CPU      0.11s WALL (      16 calls)

     Called by c_bands:
     init_us_2    :     18.28s CPU     20.20s WALL (  335989 calls)
     cegterg      :    697.44s CPU    753.54s WALL (   22675 calls)

     Called by sum_band:

     Called by *egterg:
     h_psi        :   2445.41s CPU   2694.45s WALL ( 3074933 calls)
     s_psi        :     77.79s CPU     87.57s WALL ( 6022614 calls)
     g_psi        :      2.19s CPU      2.39s WALL (  347082 calls)
     cdiaghg      :    224.57s CPU    241.60s WALL (  366344 calls)

     Called by h_psi:
     h_psi:pot    :   2425.13s CPU   2671.66s WALL ( 3074933 calls)
     h_psi:calbec :    177.65s CPU    194.62s WALL ( 3074933 calls)
     vloc_psi     :   2172.61s CPU   2394.32s WALL ( 3074933 calls)
     add_vuspsi   :     42.52s CPU     47.60s WALL ( 3074933 calls)

     General routines
     calbec       :    321.78s CPU    354.40s WALL ( 6565318 calls)
     fft          :      3.04s CPU      3.35s WALL (    6346 calls)
     ffts         :      3.19s CPU      3.53s WALL (   30428 calls)
     fftw         :   2379.25s CPU   2638.61s WALL (29546685 calls)
     interpolate  :      0.54s CPU      0.64s WALL (     870 calls)
     davcio       :     28.38s CPU     61.59s WALL ( 1366953 calls)

     Parallel routines
     fft_scatter  :   1208.11s CPU   1340.05s WALL (29583459 calls)

     PHONON       :     1h14m CPU        1h22m WALL

     INITIALIZATION: 
     phq_setup    :      0.47s CPU      0.50s WALL (      16 calls)
     phq_init     :     49.74s CPU     53.66s WALL (      16 calls)

     phq_init     :     49.74s CPU     53.66s WALL (      16 calls)
     init_vloc    :      0.09s CPU      0.09s WALL (      16 calls)
     init_us_1    :      1.01s CPU      1.12s WALL (      16 calls)
     newd         :      0.10s CPU      0.11s WALL (      16 calls)
     dvanqq       :      0.43s CPU      0.44s WALL (      16 calls)
     drho         :     37.22s CPU     40.41s WALL (      16 calls)

     DYNAMICAL MATRIX:
     dynmat0      :      8.17s CPU      8.53s WALL (      16 calls)
     phqscf       :   3290.72s CPU   3684.50s WALL (      16 calls)
     dynmatrix    :      0.10s CPU      0.11s WALL (      16 calls)

     phqscf       :   3290.72s CPU   3684.50s WALL (      16 calls)
     solve_linter :   3279.02s CPU   3671.66s WALL (      40 calls)
     drhodv       :     11.50s CPU     12.31s WALL (      40 calls)

     dynmat0      :      8.17s CPU      8.53s WALL (      16 calls)
     dynmat_us    :      8.12s CPU      8.48s WALL (      16 calls)
     d2ionq       :      0.01s CPU      0.01s WALL (      16 calls)

     dynmat_us    :      8.12s CPU      8.48s WALL (      16 calls)
     addusdynmat  :      0.00s CPU      0.00s WALL (      16 calls)

     phqscf       :   3290.72s CPU   3684.50s WALL (      16 calls)
     solve_linter :   3279.02s CPU   3671.66s WALL (      40 calls)

     solve_linter :   3279.02s CPU   3671.66s WALL (      40 calls)
     dvqpsi_us    :     63.12s CPU     68.57s WALL (   29082 calls)
     ortho        :     46.58s CPU     50.77s WALL (  261767 calls)
     cgsolve      :   2592.53s CPU   2872.74s WALL (  261767 calls)
     incdrhoscf   :    241.91s CPU    283.94s WALL (  261767 calls)
     addusddens   :      3.27s CPU      3.36s WALL (     381 calls)
     vpsifft      :    192.95s CPU    214.37s WALL (  232685 calls)
     dv_of_drho   :      2.20s CPU      2.40s WALL (     395 calls)
     mix_pot      :      0.60s CPU      2.56s WALL (     341 calls)
     ef_shift     :      0.02s CPU      0.04s WALL (       7 calls)
     localdos     :      0.06s CPU      0.06s WALL (       1 calls)
     psymdvscf    :     20.65s CPU     21.11s WALL (     310 calls)
     newdq        :      3.26s CPU      3.29s WALL (     341 calls)
     adddvscf     :     13.02s CPU     14.26s WALL (  232685 calls)
     drhodvus     :      0.01s CPU      0.02s WALL (      40 calls)

     dvqpsi_us    :     63.12s CPU     68.57s WALL (   29082 calls)
     dvqpsi_us_on :     13.03s CPU     13.86s WALL (   29082 calls)

     cgsolve      :   2592.53s CPU   2872.74s WALL (  261767 calls)
     ch_psi       :   2418.69s CPU   2679.06s WALL ( 2685914 calls)

     ch_psi       :   2418.69s CPU   2679.06s WALL ( 2685914 calls)
     h_psi        :   2445.41s CPU   2694.45s WALL ( 3074933 calls)
     last         :    293.54s CPU    325.76s WALL ( 2685914 calls)

     h_psi        :   2445.41s CPU   2694.45s WALL ( 3074933 calls)
     add_vuspsi   :     42.52s CPU     47.60s WALL ( 3074933 calls)

     incdrhoscf   :    241.91s CPU    283.94s WALL (  261767 calls)
     addusdbec    :     23.68s CPU     26.25s WALL (  290849 calls)

     drhodvus     :      0.01s CPU      0.02s WALL (      40 calls)

      General routines
     calbec       :    321.78s CPU    354.40s WALL ( 6565318 calls)
     fft          :      3.04s CPU      3.35s WALL (    6346 calls)
     ffts         :      3.19s CPU      3.53s WALL (   30428 calls)
     fftw         :   2379.25s CPU   2638.61s WALL (29546685 calls)
     davcio       :     28.38s CPU     61.59s WALL ( 1366953 calls)
     write_rec    :      1.39s CPU      4.24s WALL (     381 calls)


     PHONON       :     1h14m CPU        1h22m WALL


   This run was terminated on:  20:23:53  31Jan2018            

=------------------------------------------------------------------------------=
   JOB DONE.
=------------------------------------------------------------------------------=
