
     Program PHONON v.6.1 (svn rev. 13369) starts on  1Feb2018 at  5:25:57 

     This program is part of the open-source Quantum ESPRESSO suite
     for quantum simulation of materials; please cite
         "P. Giannozzi et al., J. Phys.:Condens. Matter 21 395502 (2009);
          URL http://www.quantum-espresso.org", 
     in publications or presentations arising from this work. More details at
     http://www.quantum-espresso.org/quote

     Parallel version (MPI), running on    64 processors
     K-points division:     npool     =       4
     R & G space division:  proc/nbgrp/npool/nimage =      16

     Reading data from directory:
     ./na.bcc.save

   Info: using nr1, nr2, nr3 values from input

   Info: using nr1, nr2, nr3 values from input

     IMPORTANT: XC functional enforced from input :
     Exchange-correlation      = SLA  PW   PBE  PBE ( 1  4  3  4 0 0)
     Any further DFT definition will be discarded
     Please, verify this is what you really want


     Parallelization info
     --------------------
     sticks:   dense  smooth     PW     G-vecs:    dense   smooth      PW
     Min          79      39     12                 1791      624     108
     Max          80      40     13                 1793      626     110
     Sum        1267     627    201                28675    10005    1745



     Dynamical matrices for ( 6, 6, 6)  uniform grid of q-points
     (  16q-points):
       N         xq(1)         xq(2)         xq(3) 
       1   0.000000000   0.000000000   0.000000000
       2   0.000000000  -0.166666667   0.166666667
       3   0.000000000  -0.333333333   0.333333333
       4   0.000000000   0.500000000  -0.500000000
       5  -0.166666667  -0.166666667   0.333333333
       6  -0.166666667   0.666666667  -0.500000000
       7  -0.333333333   0.666666667  -0.333333333
       8   0.000000000   0.000000000   0.333333333
       9   0.000000000  -0.166666667   0.500000000
      10   0.000000000   0.666666667  -0.333333333
      11  -0.166666667   0.833333333  -0.333333333
      12   0.666666667  -0.666666667   0.333333333
      13   0.500000000  -0.500000000   0.333333333
      14   0.000000000   0.000000000   0.666666667
      15   0.000000000   0.833333333  -0.166666667
      16   0.000000000   0.000000000  -1.000000000

     Calculation of q =    0.0000000   0.0000000   0.0000000

                                                                                

     bravais-lattice index     =            3
     lattice parameter (alat)  =       8.4000  a.u.
     unit-cell volume          =     296.3520 (a.u.)^3
     number of atoms/cell      =            1
     number of atomic types    =            1
     kinetic-energy cut-off    =      40.0000  Ry
     charge density cut-off    =     320.0000  Ry
     convergence threshold     =      1.0E-16
     beta                      =       0.7000
     number of iterations used =            4
     Exchange-correlation      = SLA  PW   PBE  PBE ( 1  4  3  4 0 0)


     celldm(1)=    8.40000  celldm(2)=    0.00000  celldm(3)=    0.00000
     celldm(4)=    0.00000  celldm(5)=    0.00000  celldm(6)=    0.00000

     crystal axes: (cart. coord. in units of alat)
               a(1) = (  0.5000  0.5000  0.5000 )  
               a(2) = ( -0.5000  0.5000  0.5000 )  
               a(3) = ( -0.5000 -0.5000  0.5000 )  

     reciprocal axes: (cart. coord. in units 2 pi/alat)
               b(1) = (  1.0000  0.0000  1.0000 )  
               b(2) = ( -1.0000  1.0000  0.0000 )  
               b(3) = (  0.0000 -1.0000  1.0000 )  


     Atoms inside the unit cell: 

     Cartesian axes

     site n.  atom      mass           positions (alat units)
        1     Na  22.9900   tau(    1) = (    0.00000    0.00000    0.00000  )

     Computing dynamical matrix for 
                    q = (   0.0000000   0.0000000   0.0000000 )

     49 Sym.Ops. (with q -> -q+G )


     G cutoff =  571.9378  (   1792 G-vectors)     FFT grid: ( 45, 45, 45)
     G cutoff =  285.9689  (    626 G-vectors)  smooth grid: ( 30, 30, 30)

     number of k points=   250  Marzari-Vanderbilt smearing, width (Ry)=  0.0200

     PseudoPot. # 1 for Na read from file:
     /home/s1333534/quantum_espresso/qe-6.1/pseudo/Na_pbe_v1.uspp.F.UPF
     MD5 check sum: 76a99c7e9422403d3e93cbc85ab7bccb
     Pseudo is Ultrasoft, Zval =  9.0
     Generated by new atomic code, or converted to UPF format
     Using radial grid of  819 points,  5 beta functions with: 
                l(1) =   0
                l(2) =   0
                l(3) =   1
                l(4) =   1
                l(5) =   2
     Q(r) pseudized with  8 coefficients,  rinner =    1.250   1.250   1.250
                                                       1.250   1.250

     Mode symmetry, O_h (m-3m)  point group:


     Atomic displacements:
     There are   1 irreducible representations

     Representation     1      3 modes -T_1u G_15  G_4-  To be done



     Alpha used in Ewald sum =   2.8000
     PHONON       :     3.17s CPU         3.40s WALL



     Representation #  1 modes #   1  2  3

     Self-consistent Calculation

     Pert. #  1: Fermi energy shift (Ry) =     1.1417E-25    -1.0188E-37
     Pert. #  2: Fermi energy shift (Ry) =     1.1848E-26    -2.8604E-37
     Pert. #  3: Fermi energy shift (Ry) =     1.2278E-25    -1.0971E-37

      iter #   1 total cpu time :     8.1 secs   av.it.:   5.4
      thresh= 1.000E-02 alpha_mix =  0.700 |ddv_scf|^2 =  7.737E-07

     Pert. #  1: Fermi energy shift (Ry) =     1.6371E-25    -1.1020E-39
     Pert. #  2: Fermi energy shift (Ry) =    -2.3695E-26     7.0407E-39
     Pert. #  3: Fermi energy shift (Ry) =    -6.4623E-27    -6.1224E-39

      iter #   2 total cpu time :    13.8 secs   av.it.:   8.5
      thresh= 8.796E-05 alpha_mix =  0.700 |ddv_scf|^2 =  1.444E-08

     Pert. #  1: Fermi energy shift (Ry) =     9.9089E-26     8.5713E-40
     Pert. #  2: Fermi energy shift (Ry) =    -5.6007E-26     2.0204E-39
     Pert. #  3: Fermi energy shift (Ry) =     1.2925E-26     3.3673E-40

      iter #   3 total cpu time :    19.3 secs   av.it.:   8.6
      thresh= 1.202E-05 alpha_mix =  0.700 |ddv_scf|^2 =  3.713E-10

     Pert. #  1: Fermi energy shift (Ry) =     1.3463E-26     1.5306E-41
     Pert. #  2: Fermi energy shift (Ry) =    -2.6926E-26    -3.0612E-41
     Pert. #  3: Fermi energy shift (Ry) =     5.3853E-28    -3.8265E-41

      iter #   4 total cpu time :    24.7 secs   av.it.:   8.1
      thresh= 1.927E-06 alpha_mix =  0.700 |ddv_scf|^2 =  1.455E-12

     Pert. #  1: Fermi energy shift (Ry) =    -5.4930E-26     1.9132E-42
     Pert. #  2: Fermi energy shift (Ry) =    -3.0158E-26     1.4110E-41
     Pert. #  3: Fermi energy shift (Ry) =     1.8310E-26     5.7397E-42

      iter #   5 total cpu time :    30.4 secs   av.it.:   8.5
      thresh= 1.206E-07 alpha_mix =  0.700 |ddv_scf|^2 =  2.478E-15

     Pert. #  1: Fermi energy shift (Ry) =    -2.3695E-26    -7.1746E-43
     Pert. #  2: Fermi energy shift (Ry) =     1.2278E-25     4.7831E-43
     Pert. #  3: Fermi energy shift (Ry) =     4.6313E-26     2.7503E-42

      iter #   6 total cpu time :    35.7 secs   av.it.:   7.5
      thresh= 4.978E-09 alpha_mix =  0.700 |ddv_scf|^2 =  8.978E-17

     End of self-consistent calculation

     Convergence has been achieved 

     Number of q in the star =    1
     List of q in the star:
          1   0.000000000   0.000000000   0.000000000

     Diagonalizing the dynamical matrix

     q = (    0.000000000   0.000000000   0.000000000 ) 

 **************************************************************************
     freq (    1) =      -0.447903 [THz] =     -14.940422 [cm-1]
     freq (    2) =      -0.447903 [THz] =     -14.940422 [cm-1]
     freq (    3) =      -0.447903 [THz] =     -14.940422 [cm-1]
 **************************************************************************

     Mode symmetry, O_h (m-3m)  point group:

     freq (  1 -  3) =        -14.9  [cm-1]   --> T_1u G_15  G_4- I  

     Calculation of q =    0.0000000  -0.1666667   0.1666667

   Info: using nr1, nr2, nr3 values from input

   Info: using nr1, nr2, nr3 values from input

     Parallelization info
     --------------------
     sticks:   dense  smooth     PW     G-vecs:    dense   smooth      PW
     Min          79      39     12                 1791      624     115
     Max          80      40     13                 1793      626     118
     Sum        1267     627    205                28675    10005    1865



     bravais-lattice index     =            3
     lattice parameter (alat)  =       8.4000  a.u.
     unit-cell volume          =     296.3520 (a.u.)^3
     number of atoms/cell      =            1
     number of atomic types    =            1
     number of electrons       =         9.00
     number of Kohn-Sham states=            9
     kinetic-energy cutoff     =      40.0000  Ry
     charge density cutoff     =     320.0000  Ry
     Exchange-correlation      = SLA  PW   PBE  PBE ( 1  4  3  4 0 0)

     celldm(1)=   8.400000  celldm(2)=   0.000000  celldm(3)=   0.000000
     celldm(4)=   0.000000  celldm(5)=   0.000000  celldm(6)=   0.000000

     crystal axes: (cart. coord. in units of alat)
               a(1) = (   0.500000   0.500000   0.500000 )  
               a(2) = (  -0.500000   0.500000   0.500000 )  
               a(3) = (  -0.500000  -0.500000   0.500000 )  

     reciprocal axes: (cart. coord. in units 2 pi/alat)
               b(1) = (  1.000000  0.000000  1.000000 )  
               b(2) = ( -1.000000  1.000000  0.000000 )  
               b(3) = (  0.000000 -1.000000  1.000000 )  


     PseudoPot. # 1 for Na read from file:
     /home/s1333534/quantum_espresso/qe-6.1/pseudo/Na_pbe_v1.uspp.F.UPF
     MD5 check sum: 76a99c7e9422403d3e93cbc85ab7bccb
     Pseudo is Ultrasoft, Zval =  9.0
     Generated by new atomic code, or converted to UPF format
     Using radial grid of  819 points,  5 beta functions with: 
                l(1) =   0
                l(2) =   0
                l(3) =   1
                l(4) =   1
                l(5) =   2
     Q(r) pseudized with  8 coefficients,  rinner =    1.250   1.250   1.250
                                                       1.250   1.250

     atomic species   valence    mass     pseudopotential
        Na             9.00    22.99000     Na( 1.00)

     48 Sym. Ops., with inversion, found



   Cartesian axes

     site n.     atom                  positions (alat units)
         1           Na  tau(   1) = (   0.0000000   0.0000000   0.0000000  )

     number of k points=  4400  Marzari-Vanderbilt smearing, width (Ry)=  0.0200

     Number of k-points >= 100: set verbosity='high' to print them.

     Dense  grid:    28675 G-vectors     FFT dimensions: (  45,  45,  45)

     Smooth grid:    10005 G-vectors     FFT dimensions: (  30,  30,  30)

     Estimated max dynamical RAM per process >       0.98MB

     Estimated total allocated dynamical RAM >      63.01MB

     The potential is recalculated from file :
     ./_ph0/na.bcc.save/charge-density.dat

     Starting wfc are    5 atomic +    4 random wfc

     Band Structure Calculation
     Davidson diagonalization with overlap

     ethr =  1.11E-10,  avg # of iterations = 24.3

     total cpu time spent up to now is       86.3 secs

     End of band structure calculation

     Number of k-points >= 100: set verbosity='high' to print the bands.

     the Fermi energy is     0.9627 ev

     Writing output data file na.bcc.save

                                                                                

     bravais-lattice index     =            3
     lattice parameter (alat)  =       8.4000  a.u.
     unit-cell volume          =     296.3520 (a.u.)^3
     number of atoms/cell      =            1
     number of atomic types    =            1
     kinetic-energy cut-off    =      40.0000  Ry
     charge density cut-off    =     320.0000  Ry
     convergence threshold     =      1.0E-16
     beta                      =       0.7000
     number of iterations used =            4
     Exchange-correlation      = SLA  PW   PBE  PBE ( 1  4  3  4 0 0)


     celldm(1)=    8.40000  celldm(2)=    0.00000  celldm(3)=    0.00000
     celldm(4)=    0.00000  celldm(5)=    0.00000  celldm(6)=    0.00000

     crystal axes: (cart. coord. in units of alat)
               a(1) = (  0.5000  0.5000  0.5000 )  
               a(2) = ( -0.5000  0.5000  0.5000 )  
               a(3) = ( -0.5000 -0.5000  0.5000 )  

     reciprocal axes: (cart. coord. in units 2 pi/alat)
               b(1) = (  1.0000  0.0000  1.0000 )  
               b(2) = ( -1.0000  1.0000  0.0000 )  
               b(3) = (  0.0000 -1.0000  1.0000 )  


     Atoms inside the unit cell: 

     Cartesian axes

     site n.  atom      mass           positions (alat units)
        1     Na  22.9900   tau(    1) = (    0.00000    0.00000    0.00000  )

     Computing dynamical matrix for 
                    q = (   0.0000000  -0.1666667   0.1666667 )

      4 Sym.Ops. (no q -> -q+G )


     G cutoff =  571.9378  (   1792 G-vectors)     FFT grid: ( 45, 45, 45)
     G cutoff =  285.9689  (    626 G-vectors)  smooth grid: ( 30, 30, 30)

     number of k points=  4400  Marzari-Vanderbilt smearing, width (Ry)=  0.0200

     PseudoPot. # 1 for Na read from file:
     /home/s1333534/quantum_espresso/qe-6.1/pseudo/Na_pbe_v1.uspp.F.UPF
     MD5 check sum: 76a99c7e9422403d3e93cbc85ab7bccb
     Pseudo is Ultrasoft, Zval =  9.0
     Generated by new atomic code, or converted to UPF format
     Using radial grid of  819 points,  5 beta functions with: 
                l(1) =   0
                l(2) =   0
                l(3) =   1
                l(4) =   1
                l(5) =   2
     Q(r) pseudized with  8 coefficients,  rinner =    1.250   1.250   1.250
                                                       1.250   1.250

     Mode symmetry, C_2v (mm2)  point group:


     Atomic displacements:
     There are   3 irreducible representations

     Representation     1      1 modes -A_1  D_1  S_1  To be done

     Representation     2      1 modes -B_1  D_3  S_3  To be done

     Representation     3      1 modes -B_2  D_4  S_4  To be done



     Alpha used in Ewald sum =   2.8000
     PHONON       :  2m11.32s CPU     2m18.75s WALL



     Representation #  1 mode #   1

     Self-consistent Calculation

      iter #   1 total cpu time :   148.5 secs   av.it.:   5.6
      thresh= 1.000E-02 alpha_mix =  0.700 |ddv_scf|^2 =  1.729E-02

      iter #   2 total cpu time :   158.0 secs   av.it.:   6.2
      thresh= 1.000E-02 alpha_mix =  0.700 |ddv_scf|^2 =  2.779E+00

      iter #   3 total cpu time :   167.2 secs   av.it.:   6.2
      thresh= 1.000E-02 alpha_mix =  0.700 |ddv_scf|^2 =  1.120E-07

      iter #   4 total cpu time :   178.4 secs   av.it.:   8.3
      thresh= 3.347E-05 alpha_mix =  0.700 |ddv_scf|^2 =  2.988E-08

      iter #   5 total cpu time :   188.9 secs   av.it.:   7.6
      thresh= 1.728E-05 alpha_mix =  0.700 |ddv_scf|^2 =  2.403E-09

      iter #   6 total cpu time :   199.3 secs   av.it.:   7.6
      thresh= 4.902E-06 alpha_mix =  0.700 |ddv_scf|^2 =  6.663E-09

      iter #   7 total cpu time :   206.7 secs   av.it.:   4.4
      thresh= 8.163E-06 alpha_mix =  0.700 |ddv_scf|^2 =  5.464E-10

      iter #   8 total cpu time :   217.3 secs   av.it.:   7.4
      thresh= 2.338E-06 alpha_mix =  0.700 |ddv_scf|^2 =  1.355E-11

      iter #   9 total cpu time :   227.7 secs   av.it.:   7.6
      thresh= 3.681E-07 alpha_mix =  0.700 |ddv_scf|^2 =  1.180E-12

      iter #  10 total cpu time :   237.8 secs   av.it.:   7.2
      thresh= 1.086E-07 alpha_mix =  0.700 |ddv_scf|^2 =  1.229E-13

      iter #  11 total cpu time :   247.8 secs   av.it.:   7.3
      thresh= 3.506E-08 alpha_mix =  0.700 |ddv_scf|^2 =  3.771E-16

      iter #  12 total cpu time :   258.5 secs   av.it.:   7.9
      thresh= 1.942E-09 alpha_mix =  0.700 |ddv_scf|^2 =  1.822E-16

      iter #  13 total cpu time :   268.7 secs   av.it.:   7.2
      thresh= 1.350E-09 alpha_mix =  0.700 |ddv_scf|^2 =  7.032E-15

      iter #  14 total cpu time :   277.1 secs   av.it.:   5.6
      thresh= 8.386E-09 alpha_mix =  0.700 |ddv_scf|^2 =  1.810E-18

     End of self-consistent calculation

     Convergence has been achieved 


     Representation #  2 mode #   2

     Self-consistent Calculation

      iter #   1 total cpu time :   286.4 secs   av.it.:   5.4
      thresh= 1.000E-02 alpha_mix =  0.700 |ddv_scf|^2 =  7.031E-06

      iter #   2 total cpu time :   296.8 secs   av.it.:   7.7
      thresh= 2.652E-04 alpha_mix =  0.700 |ddv_scf|^2 =  1.288E-07

      iter #   3 total cpu time :   307.3 secs   av.it.:   7.8
      thresh= 3.589E-05 alpha_mix =  0.700 |ddv_scf|^2 =  3.553E-09

      iter #   4 total cpu time :   318.0 secs   av.it.:   7.5
      thresh= 5.961E-06 alpha_mix =  0.700 |ddv_scf|^2 =  1.377E-11

      iter #   5 total cpu time :   328.9 secs   av.it.:   7.8
      thresh= 3.711E-07 alpha_mix =  0.700 |ddv_scf|^2 =  2.174E-14

      iter #   6 total cpu time :   338.4 secs   av.it.:   6.7
      thresh= 1.474E-08 alpha_mix =  0.700 |ddv_scf|^2 =  8.393E-16

      iter #   7 total cpu time :   349.0 secs   av.it.:   7.8
      thresh= 2.897E-09 alpha_mix =  0.700 |ddv_scf|^2 =  7.134E-19

     End of self-consistent calculation

     Convergence has been achieved 


     Representation #  3 mode #   3

     Self-consistent Calculation

      iter #   1 total cpu time :   358.5 secs   av.it.:   5.4
      thresh= 1.000E-02 alpha_mix =  0.700 |ddv_scf|^2 =  7.257E-06

      iter #   2 total cpu time :   369.1 secs   av.it.:   7.6
      thresh= 2.694E-04 alpha_mix =  0.700 |ddv_scf|^2 =  1.280E-07

      iter #   3 total cpu time :   380.1 secs   av.it.:   7.8
      thresh= 3.577E-05 alpha_mix =  0.700 |ddv_scf|^2 =  4.343E-09

      iter #   4 total cpu time :   390.8 secs   av.it.:   7.6
      thresh= 6.590E-06 alpha_mix =  0.700 |ddv_scf|^2 =  1.691E-11

      iter #   5 total cpu time :   401.4 secs   av.it.:   7.8
      thresh= 4.112E-07 alpha_mix =  0.700 |ddv_scf|^2 =  2.317E-14

      iter #   6 total cpu time :   411.2 secs   av.it.:   6.8
      thresh= 1.522E-08 alpha_mix =  0.700 |ddv_scf|^2 =  1.121E-15

      iter #   7 total cpu time :   421.9 secs   av.it.:   7.9
      thresh= 3.349E-09 alpha_mix =  0.700 |ddv_scf|^2 =  7.536E-19

     End of self-consistent calculation

     Convergence has been achieved 

     Number of q in the star =   12
     List of q in the star:
          1   0.000000000  -0.166666667   0.166666667
          2  -0.166666667   0.000000000   0.166666667
          3   0.166666667   0.000000000   0.166666667
          4   0.000000000   0.166666667   0.166666667
          5   0.166666667   0.166666667   0.000000000
          6  -0.166666667   0.166666667   0.000000000
          7   0.166666667  -0.166666667   0.000000000
          8  -0.166666667  -0.166666667   0.000000000
          9  -0.166666667   0.000000000  -0.166666667
         10   0.000000000  -0.166666667  -0.166666667
         11   0.000000000   0.166666667  -0.166666667
         12   0.166666667   0.000000000  -0.166666667

     Diagonalizing the dynamical matrix

     q = (    0.000000000  -0.166666667   0.166666667 ) 

 **************************************************************************
     freq (    1) =       0.429195 [THz] =      14.316397 [cm-1]
     freq (    2) =       1.158058 [THz] =      38.628664 [cm-1]
     freq (    3) =       1.566937 [THz] =      52.267392 [cm-1]
 **************************************************************************

     Mode symmetry, C_2v (mm2)  point group:

     freq (  1 -  1) =         14.3  [cm-1]   --> B_1  D_3  S_3      
     freq (  2 -  2) =         38.6  [cm-1]   --> B_2  D_4  S_4      
     freq (  3 -  3) =         52.3  [cm-1]   --> A_1  D_1  S_1      

     Calculation of q =    0.0000000  -0.3333333   0.3333333

   Info: using nr1, nr2, nr3 values from input

   Info: using nr1, nr2, nr3 values from input

     Parallelization info
     --------------------
     sticks:   dense  smooth     PW     G-vecs:    dense   smooth      PW
     Min          79      39     13                 1791      624     123
     Max          80      40     14                 1793      626     125
     Sum        1267     627    217                28675    10005    1985



     bravais-lattice index     =            3
     lattice parameter (alat)  =       8.4000  a.u.
     unit-cell volume          =     296.3520 (a.u.)^3
     number of atoms/cell      =            1
     number of atomic types    =            1
     number of electrons       =         9.00
     number of Kohn-Sham states=            9
     kinetic-energy cutoff     =      40.0000  Ry
     charge density cutoff     =     320.0000  Ry
     Exchange-correlation      = SLA  PW   PBE  PBE ( 1  4  3  4 0 0)

     celldm(1)=   8.400000  celldm(2)=   0.000000  celldm(3)=   0.000000
     celldm(4)=   0.000000  celldm(5)=   0.000000  celldm(6)=   0.000000

     crystal axes: (cart. coord. in units of alat)
               a(1) = (   0.500000   0.500000   0.500000 )  
               a(2) = (  -0.500000   0.500000   0.500000 )  
               a(3) = (  -0.500000  -0.500000   0.500000 )  

     reciprocal axes: (cart. coord. in units 2 pi/alat)
               b(1) = (  1.000000  0.000000  1.000000 )  
               b(2) = ( -1.000000  1.000000  0.000000 )  
               b(3) = (  0.000000 -1.000000  1.000000 )  


     PseudoPot. # 1 for Na read from file:
     /home/s1333534/quantum_espresso/qe-6.1/pseudo/Na_pbe_v1.uspp.F.UPF
     MD5 check sum: 76a99c7e9422403d3e93cbc85ab7bccb
     Pseudo is Ultrasoft, Zval =  9.0
     Generated by new atomic code, or converted to UPF format
     Using radial grid of  819 points,  5 beta functions with: 
                l(1) =   0
                l(2) =   0
                l(3) =   1
                l(4) =   1
                l(5) =   2
     Q(r) pseudized with  8 coefficients,  rinner =    1.250   1.250   1.250
                                                       1.250   1.250

     atomic species   valence    mass     pseudopotential
        Na             9.00    22.99000     Na( 1.00)

     48 Sym. Ops., with inversion, found



   Cartesian axes

     site n.     atom                  positions (alat units)
         1           Na  tau(   1) = (   0.0000000   0.0000000   0.0000000  )

     number of k points=  4400  Marzari-Vanderbilt smearing, width (Ry)=  0.0200

     Number of k-points >= 100: set verbosity='high' to print them.

     Dense  grid:    28675 G-vectors     FFT dimensions: (  45,  45,  45)

     Smooth grid:    10005 G-vectors     FFT dimensions: (  30,  30,  30)

     Estimated max dynamical RAM per process >       0.98MB

     Estimated total allocated dynamical RAM >      63.01MB

     The potential is recalculated from file :
     ./_ph0/na.bcc.save/charge-density.dat

     Starting wfc are    5 atomic +    4 random wfc

     Band Structure Calculation
     Davidson diagonalization with overlap

     ethr =  1.11E-10,  avg # of iterations = 24.2

     total cpu time spent up to now is      184.2 secs

     End of band structure calculation

     Number of k-points >= 100: set verbosity='high' to print the bands.

     the Fermi energy is     0.9627 ev

     Writing output data file na.bcc.save

                                                                                

     bravais-lattice index     =            3
     lattice parameter (alat)  =       8.4000  a.u.
     unit-cell volume          =     296.3520 (a.u.)^3
     number of atoms/cell      =            1
     number of atomic types    =            1
     kinetic-energy cut-off    =      40.0000  Ry
     charge density cut-off    =     320.0000  Ry
     convergence threshold     =      1.0E-16
     beta                      =       0.7000
     number of iterations used =            4
     Exchange-correlation      = SLA  PW   PBE  PBE ( 1  4  3  4 0 0)


     celldm(1)=    8.40000  celldm(2)=    0.00000  celldm(3)=    0.00000
     celldm(4)=    0.00000  celldm(5)=    0.00000  celldm(6)=    0.00000

     crystal axes: (cart. coord. in units of alat)
               a(1) = (  0.5000  0.5000  0.5000 )  
               a(2) = ( -0.5000  0.5000  0.5000 )  
               a(3) = ( -0.5000 -0.5000  0.5000 )  

     reciprocal axes: (cart. coord. in units 2 pi/alat)
               b(1) = (  1.0000  0.0000  1.0000 )  
               b(2) = ( -1.0000  1.0000  0.0000 )  
               b(3) = (  0.0000 -1.0000  1.0000 )  


     Atoms inside the unit cell: 

     Cartesian axes

     site n.  atom      mass           positions (alat units)
        1     Na  22.9900   tau(    1) = (    0.00000    0.00000    0.00000  )

     Computing dynamical matrix for 
                    q = (   0.0000000  -0.3333333   0.3333333 )

      4 Sym.Ops. (no q -> -q+G )


     G cutoff =  571.9378  (   1792 G-vectors)     FFT grid: ( 45, 45, 45)
     G cutoff =  285.9689  (    626 G-vectors)  smooth grid: ( 30, 30, 30)

     number of k points=  4400  Marzari-Vanderbilt smearing, width (Ry)=  0.0200

     PseudoPot. # 1 for Na read from file:
     /home/s1333534/quantum_espresso/qe-6.1/pseudo/Na_pbe_v1.uspp.F.UPF
     MD5 check sum: 76a99c7e9422403d3e93cbc85ab7bccb
     Pseudo is Ultrasoft, Zval =  9.0
     Generated by new atomic code, or converted to UPF format
     Using radial grid of  819 points,  5 beta functions with: 
                l(1) =   0
                l(2) =   0
                l(3) =   1
                l(4) =   1
                l(5) =   2
     Q(r) pseudized with  8 coefficients,  rinner =    1.250   1.250   1.250
                                                       1.250   1.250

     Mode symmetry, C_2v (mm2)  point group:


     Atomic displacements:
     There are   3 irreducible representations

     Representation     1      1 modes -A_1  D_1  S_1  To be done

     Representation     2      1 modes -B_1  D_3  S_3  To be done

     Representation     3      1 modes -B_2  D_4  S_4  To be done



     Alpha used in Ewald sum =   2.8000
     PHONON       :  8m10.14s CPU     8m44.34s WALL



     Representation #  1 mode #   1

     Self-consistent Calculation

      iter #   1 total cpu time :   534.0 secs   av.it.:   5.6
      thresh= 1.000E-02 alpha_mix =  0.700 |ddv_scf|^2 =  2.916E-04

      iter #   2 total cpu time :   543.7 secs   av.it.:   6.7
      thresh= 1.708E-03 alpha_mix =  0.700 |ddv_scf|^2 =  1.832E-03

      iter #   3 total cpu time :   552.4 secs   av.it.:   5.7
      thresh= 4.280E-03 alpha_mix =  0.700 |ddv_scf|^2 =  2.989E-07

      iter #   4 total cpu time :   563.4 secs   av.it.:   8.0
      thresh= 5.467E-05 alpha_mix =  0.700 |ddv_scf|^2 =  6.098E-09

      iter #   5 total cpu time :   575.0 secs   av.it.:   8.4
      thresh= 7.809E-06 alpha_mix =  0.700 |ddv_scf|^2 =  2.376E-10

      iter #   6 total cpu time :   586.1 secs   av.it.:   8.4
      thresh= 1.541E-06 alpha_mix =  0.700 |ddv_scf|^2 =  1.256E-11

      iter #   7 total cpu time :   597.2 secs   av.it.:   8.0
      thresh= 3.543E-07 alpha_mix =  0.700 |ddv_scf|^2 =  1.619E-13

      iter #   8 total cpu time :   608.2 secs   av.it.:   8.2
      thresh= 4.023E-08 alpha_mix =  0.700 |ddv_scf|^2 =  2.722E-13

      iter #   9 total cpu time :   617.9 secs   av.it.:   6.8
      thresh= 5.218E-08 alpha_mix =  0.700 |ddv_scf|^2 =  1.047E-13

      iter #  10 total cpu time :   628.2 secs   av.it.:   7.0
      thresh= 3.236E-08 alpha_mix =  0.700 |ddv_scf|^2 =  2.071E-15

      iter #  11 total cpu time :   639.3 secs   av.it.:   8.0
      thresh= 4.551E-09 alpha_mix =  0.700 |ddv_scf|^2 =  5.011E-17

     End of self-consistent calculation

     Convergence has been achieved 


     Representation #  2 mode #   2

     Self-consistent Calculation

      iter #   1 total cpu time :   648.8 secs   av.it.:   5.5
      thresh= 1.000E-02 alpha_mix =  0.700 |ddv_scf|^2 =  7.208E-06

      iter #   2 total cpu time :   659.5 secs   av.it.:   7.7
      thresh= 2.685E-04 alpha_mix =  0.700 |ddv_scf|^2 =  1.254E-07

      iter #   3 total cpu time :   670.2 secs   av.it.:   7.8
      thresh= 3.541E-05 alpha_mix =  0.700 |ddv_scf|^2 =  4.209E-09

      iter #   4 total cpu time :   680.7 secs   av.it.:   7.5
      thresh= 6.488E-06 alpha_mix =  0.700 |ddv_scf|^2 =  1.567E-11

      iter #   5 total cpu time :   691.8 secs   av.it.:   7.8
      thresh= 3.959E-07 alpha_mix =  0.700 |ddv_scf|^2 =  1.944E-14

      iter #   6 total cpu time :   701.6 secs   av.it.:   6.8
      thresh= 1.394E-08 alpha_mix =  0.700 |ddv_scf|^2 =  8.750E-16

      iter #   7 total cpu time :   712.5 secs   av.it.:   7.8
      thresh= 2.958E-09 alpha_mix =  0.700 |ddv_scf|^2 =  9.749E-19

     End of self-consistent calculation

     Convergence has been achieved 


     Representation #  3 mode #   3

     Self-consistent Calculation

      iter #   1 total cpu time :   722.1 secs   av.it.:   5.5
      thresh= 1.000E-02 alpha_mix =  0.700 |ddv_scf|^2 =  7.917E-06

      iter #   2 total cpu time :   732.8 secs   av.it.:   7.7
      thresh= 2.814E-04 alpha_mix =  0.700 |ddv_scf|^2 =  1.243E-07

      iter #   3 total cpu time :   743.7 secs   av.it.:   7.8
      thresh= 3.526E-05 alpha_mix =  0.700 |ddv_scf|^2 =  6.967E-09

      iter #   4 total cpu time :   754.5 secs   av.it.:   7.6
      thresh= 8.347E-06 alpha_mix =  0.700 |ddv_scf|^2 =  2.708E-11

      iter #   5 total cpu time :   765.1 secs   av.it.:   7.8
      thresh= 5.204E-07 alpha_mix =  0.700 |ddv_scf|^2 =  2.739E-14

      iter #   6 total cpu time :   775.2 secs   av.it.:   7.3
      thresh= 1.655E-08 alpha_mix =  0.700 |ddv_scf|^2 =  1.740E-15

      iter #   7 total cpu time :   786.0 secs   av.it.:   7.8
      thresh= 4.172E-09 alpha_mix =  0.700 |ddv_scf|^2 =  1.148E-18

     End of self-consistent calculation

     Convergence has been achieved 

     Number of q in the star =   12
     List of q in the star:
          1   0.000000000  -0.333333333   0.333333333
          2  -0.333333333   0.000000000   0.333333333
          3   0.333333333   0.000000000   0.333333333
          4   0.000000000   0.333333333   0.333333333
          5   0.333333333   0.333333333   0.000000000
          6  -0.333333333   0.333333333   0.000000000
          7   0.333333333  -0.333333333   0.000000000
          8  -0.333333333  -0.333333333   0.000000000
          9  -0.333333333   0.000000000  -0.333333333
         10   0.000000000  -0.333333333  -0.333333333
         11   0.000000000   0.333333333  -0.333333333
         12   0.333333333   0.000000000  -0.333333333

     Diagonalizing the dynamical matrix

     q = (    0.000000000  -0.333333333   0.333333333 ) 

 **************************************************************************
     freq (    1) =       0.646249 [THz] =      21.556536 [cm-1]
     freq (    2) =       1.975150 [THz] =      65.883927 [cm-1]
     freq (    3) =       2.582794 [THz] =      86.152725 [cm-1]
 **************************************************************************

     Mode symmetry, C_2v (mm2)  point group:

     freq (  1 -  1) =         21.6  [cm-1]   --> B_1  D_3  S_3      
     freq (  2 -  2) =         65.9  [cm-1]   --> B_2  D_4  S_4      
     freq (  3 -  3) =         86.2  [cm-1]   --> A_1  D_1  S_1      

     Calculation of q =    0.0000000   0.5000000  -0.5000000

   Info: using nr1, nr2, nr3 values from input

   Info: using nr1, nr2, nr3 values from input

     Parallelization info
     --------------------
     sticks:   dense  smooth     PW     G-vecs:    dense   smooth      PW
     Min          79      39     14                 1791      624     135
     Max          80      40     15                 1793      626     136
     Sum        1267     627    229                28675    10005    2171



     bravais-lattice index     =            3
     lattice parameter (alat)  =       8.4000  a.u.
     unit-cell volume          =     296.3520 (a.u.)^3
     number of atoms/cell      =            1
     number of atomic types    =            1
     number of electrons       =         9.00
     number of Kohn-Sham states=            9
     kinetic-energy cutoff     =      40.0000  Ry
     charge density cutoff     =     320.0000  Ry
     Exchange-correlation      = SLA  PW   PBE  PBE ( 1  4  3  4 0 0)

     celldm(1)=   8.400000  celldm(2)=   0.000000  celldm(3)=   0.000000
     celldm(4)=   0.000000  celldm(5)=   0.000000  celldm(6)=   0.000000

     crystal axes: (cart. coord. in units of alat)
               a(1) = (   0.500000   0.500000   0.500000 )  
               a(2) = (  -0.500000   0.500000   0.500000 )  
               a(3) = (  -0.500000  -0.500000   0.500000 )  

     reciprocal axes: (cart. coord. in units 2 pi/alat)
               b(1) = (  1.000000  0.000000  1.000000 )  
               b(2) = ( -1.000000  1.000000  0.000000 )  
               b(3) = (  0.000000 -1.000000  1.000000 )  


     PseudoPot. # 1 for Na read from file:
     /home/s1333534/quantum_espresso/qe-6.1/pseudo/Na_pbe_v1.uspp.F.UPF
     MD5 check sum: 76a99c7e9422403d3e93cbc85ab7bccb
     Pseudo is Ultrasoft, Zval =  9.0
     Generated by new atomic code, or converted to UPF format
     Using radial grid of  819 points,  5 beta functions with: 
                l(1) =   0
                l(2) =   0
                l(3) =   1
                l(4) =   1
                l(5) =   2
     Q(r) pseudized with  8 coefficients,  rinner =    1.250   1.250   1.250
                                                       1.250   1.250

     atomic species   valence    mass     pseudopotential
        Na             9.00    22.99000     Na( 1.00)

     48 Sym. Ops., with inversion, found



   Cartesian axes

     site n.     atom                  positions (alat units)
         1           Na  tau(   1) = (   0.0000000   0.0000000   0.0000000  )

     number of k points=  2310  Marzari-Vanderbilt smearing, width (Ry)=  0.0200

     Number of k-points >= 100: set verbosity='high' to print them.

     Dense  grid:    28675 G-vectors     FFT dimensions: (  45,  45,  45)

     Smooth grid:    10005 G-vectors     FFT dimensions: (  30,  30,  30)

     Estimated max dynamical RAM per process >       0.98MB

     Estimated total allocated dynamical RAM >      63.01MB

     The potential is recalculated from file :
     ./_ph0/na.bcc.save/charge-density.dat

     Starting wfc are    5 atomic +    4 random wfc

     Band Structure Calculation
     Davidson diagonalization with overlap

     ethr =  1.11E-10,  avg # of iterations = 24.2

     total cpu time spent up to now is      242.1 secs

     End of band structure calculation

     Number of k-points >= 100: set verbosity='high' to print the bands.

     the Fermi energy is     0.9627 ev

     Writing output data file na.bcc.save

                                                                                

     bravais-lattice index     =            3
     lattice parameter (alat)  =       8.4000  a.u.
     unit-cell volume          =     296.3520 (a.u.)^3
     number of atoms/cell      =            1
     number of atomic types    =            1
     kinetic-energy cut-off    =      40.0000  Ry
     charge density cut-off    =     320.0000  Ry
     convergence threshold     =      1.0E-16
     beta                      =       0.7000
     number of iterations used =            4
     Exchange-correlation      = SLA  PW   PBE  PBE ( 1  4  3  4 0 0)


     celldm(1)=    8.40000  celldm(2)=    0.00000  celldm(3)=    0.00000
     celldm(4)=    0.00000  celldm(5)=    0.00000  celldm(6)=    0.00000

     crystal axes: (cart. coord. in units of alat)
               a(1) = (  0.5000  0.5000  0.5000 )  
               a(2) = ( -0.5000  0.5000  0.5000 )  
               a(3) = ( -0.5000 -0.5000  0.5000 )  

     reciprocal axes: (cart. coord. in units 2 pi/alat)
               b(1) = (  1.0000  0.0000  1.0000 )  
               b(2) = ( -1.0000  1.0000  0.0000 )  
               b(3) = (  0.0000 -1.0000  1.0000 )  


     Atoms inside the unit cell: 

     Cartesian axes

     site n.  atom      mass           positions (alat units)
        1     Na  22.9900   tau(    1) = (    0.00000    0.00000    0.00000  )

     Computing dynamical matrix for 
                    q = (   0.0000000   0.5000000  -0.5000000 )

      9 Sym.Ops. (with q -> -q+G )


     G cutoff =  571.9378  (   1792 G-vectors)     FFT grid: ( 45, 45, 45)
     G cutoff =  285.9689  (    626 G-vectors)  smooth grid: ( 30, 30, 30)

     number of k points=  2310  Marzari-Vanderbilt smearing, width (Ry)=  0.0200

     PseudoPot. # 1 for Na read from file:
     /home/s1333534/quantum_espresso/qe-6.1/pseudo/Na_pbe_v1.uspp.F.UPF
     MD5 check sum: 76a99c7e9422403d3e93cbc85ab7bccb
     Pseudo is Ultrasoft, Zval =  9.0
     Generated by new atomic code, or converted to UPF format
     Using radial grid of  819 points,  5 beta functions with: 
                l(1) =   0
                l(2) =   0
                l(3) =   1
                l(4) =   1
                l(5) =   2
     Q(r) pseudized with  8 coefficients,  rinner =    1.250   1.250   1.250
                                                       1.250   1.250

     Mode symmetry, D_2h (mmm)  point group:


     Atomic displacements:
     There are   3 irreducible representations

     Representation     1      1 modes -B_1u  To be done

     Representation     2      1 modes -B_2u  To be done

     Representation     3      1 modes -B_3u  To be done



     Alpha used in Ewald sum =   2.8000
     PHONON       : 13m 4.86s CPU    14m 1.12s WALL



     Representation #  1 mode #   1

     Self-consistent Calculation

      iter #   1 total cpu time :   847.5 secs   av.it.:   5.5
      thresh= 1.000E-02 alpha_mix =  0.700 |ddv_scf|^2 =  8.284E-06

      iter #   2 total cpu time :   855.7 secs   av.it.:   7.6
      thresh= 2.878E-04 alpha_mix =  0.700 |ddv_scf|^2 =  1.230E-07

      iter #   3 total cpu time :   863.2 secs   av.it.:   7.7
      thresh= 3.507E-05 alpha_mix =  0.700 |ddv_scf|^2 =  8.506E-09

      iter #   4 total cpu time :   869.1 secs   av.it.:   7.4
      thresh= 9.223E-06 alpha_mix =  0.700 |ddv_scf|^2 =  3.311E-11

      iter #   5 total cpu time :   874.9 secs   av.it.:   7.7
      thresh= 5.755E-07 alpha_mix =  0.700 |ddv_scf|^2 =  3.026E-14

      iter #   6 total cpu time :   880.3 secs   av.it.:   7.2
      thresh= 1.740E-08 alpha_mix =  0.700 |ddv_scf|^2 =  2.002E-15

      iter #   7 total cpu time :   886.0 secs   av.it.:   7.6
      thresh= 4.475E-09 alpha_mix =  0.700 |ddv_scf|^2 =  1.203E-18

     End of self-consistent calculation

     Convergence has been achieved 


     Representation #  2 mode #   2

     Self-consistent Calculation

      iter #   1 total cpu time :   891.2 secs   av.it.:   5.5
      thresh= 1.000E-02 alpha_mix =  0.700 |ddv_scf|^2 =  7.316E-06

      iter #   2 total cpu time :   896.9 secs   av.it.:   7.7
      thresh= 2.705E-04 alpha_mix =  0.700 |ddv_scf|^2 =  1.231E-07

      iter #   3 total cpu time :   902.7 secs   av.it.:   7.8
      thresh= 3.509E-05 alpha_mix =  0.700 |ddv_scf|^2 =  4.603E-09

      iter #   4 total cpu time :   908.2 secs   av.it.:   7.4
      thresh= 6.785E-06 alpha_mix =  0.700 |ddv_scf|^2 =  1.663E-11

      iter #   5 total cpu time :   914.1 secs   av.it.:   7.7
      thresh= 4.078E-07 alpha_mix =  0.700 |ddv_scf|^2 =  1.753E-14

      iter #   6 total cpu time :   919.3 secs   av.it.:   6.7
      thresh= 1.324E-08 alpha_mix =  0.700 |ddv_scf|^2 =  8.179E-16

      iter #   7 total cpu time :   925.7 secs   av.it.:   7.7
      thresh= 2.860E-09 alpha_mix =  0.700 |ddv_scf|^2 =  6.641E-19

     End of self-consistent calculation

     Convergence has been achieved 


     Representation #  3 mode #   3

     Self-consistent Calculation

      iter #   1 total cpu time :   931.2 secs   av.it.:   5.6
      thresh= 1.000E-02 alpha_mix =  0.700 |ddv_scf|^2 =  5.824E-05

      iter #   2 total cpu time :   936.6 secs   av.it.:   7.0
      thresh= 7.632E-04 alpha_mix =  0.700 |ddv_scf|^2 =  3.092E-05

      iter #   3 total cpu time :   941.9 secs   av.it.:   6.6
      thresh= 5.560E-04 alpha_mix =  0.700 |ddv_scf|^2 =  4.848E-08

      iter #   4 total cpu time :   947.8 secs   av.it.:   7.8
      thresh= 2.202E-05 alpha_mix =  0.700 |ddv_scf|^2 =  2.116E-10

      iter #   5 total cpu time :   953.1 secs   av.it.:   6.9
      thresh= 1.455E-06 alpha_mix =  0.700 |ddv_scf|^2 =  2.781E-12

      iter #   6 total cpu time :   958.4 secs   av.it.:   6.9
      thresh= 1.668E-07 alpha_mix =  0.700 |ddv_scf|^2 =  1.625E-14

      iter #   7 total cpu time :   964.1 secs   av.it.:   7.5
      thresh= 1.275E-08 alpha_mix =  0.700 |ddv_scf|^2 =  5.076E-17

     End of self-consistent calculation

     Convergence has been achieved 

     Number of q in the star =    6
     List of q in the star:
          1   0.000000000   0.500000000  -0.500000000
          2  -0.500000000  -0.500000000   0.000000000
          3   0.500000000  -0.500000000   0.000000000
          4   0.500000000   0.000000000   0.500000000
          5   0.000000000  -0.500000000  -0.500000000
          6   0.500000000   0.000000000  -0.500000000

     Diagonalizing the dynamical matrix

     q = (    0.000000000   0.500000000  -0.500000000 ) 

 **************************************************************************
     freq (    1) =       0.739407 [THz] =      24.663964 [cm-1]
     freq (    2) =       2.279861 [THz] =      76.047975 [cm-1]
     freq (    3) =       2.941207 [THz] =      98.108106 [cm-1]
 **************************************************************************

     Mode symmetry, D_2h (mmm)  point group:

     freq (  1 -  1) =         24.7  [cm-1]   --> B_2u               
     freq (  2 -  2) =         76.0  [cm-1]   --> B_1u               
     freq (  3 -  3) =         98.1  [cm-1]   --> B_3u               

     Calculation of q =   -0.1666667  -0.1666667   0.3333333

   Info: using nr1, nr2, nr3 values from input

   Info: using nr1, nr2, nr3 values from input

     Parallelization info
     --------------------
     sticks:   dense  smooth     PW     G-vecs:    dense   smooth      PW
     Min          79      39     13                 1791      624     123
     Max          80      40     14                 1793      626     125
     Sum        1267     627    217                28675    10005    1985



     bravais-lattice index     =            3
     lattice parameter (alat)  =       8.4000  a.u.
     unit-cell volume          =     296.3520 (a.u.)^3
     number of atoms/cell      =            1
     number of atomic types    =            1
     number of electrons       =         9.00
     number of Kohn-Sham states=            9
     kinetic-energy cutoff     =      40.0000  Ry
     charge density cutoff     =     320.0000  Ry
     Exchange-correlation      = SLA  PW   PBE  PBE ( 1  4  3  4 0 0)

     celldm(1)=   8.400000  celldm(2)=   0.000000  celldm(3)=   0.000000
     celldm(4)=   0.000000  celldm(5)=   0.000000  celldm(6)=   0.000000

     crystal axes: (cart. coord. in units of alat)
               a(1) = (   0.500000   0.500000   0.500000 )  
               a(2) = (  -0.500000   0.500000   0.500000 )  
               a(3) = (  -0.500000  -0.500000   0.500000 )  

     reciprocal axes: (cart. coord. in units 2 pi/alat)
               b(1) = (  1.000000  0.000000  1.000000 )  
               b(2) = ( -1.000000  1.000000  0.000000 )  
               b(3) = (  0.000000 -1.000000  1.000000 )  


     PseudoPot. # 1 for Na read from file:
     /home/s1333534/quantum_espresso/qe-6.1/pseudo/Na_pbe_v1.uspp.F.UPF
     MD5 check sum: 76a99c7e9422403d3e93cbc85ab7bccb
     Pseudo is Ultrasoft, Zval =  9.0
     Generated by new atomic code, or converted to UPF format
     Using radial grid of  819 points,  5 beta functions with: 
                l(1) =   0
                l(2) =   0
                l(3) =   1
                l(4) =   1
                l(5) =   2
     Q(r) pseudized with  8 coefficients,  rinner =    1.250   1.250   1.250
                                                       1.250   1.250

     atomic species   valence    mass     pseudopotential
        Na             9.00    22.99000     Na( 1.00)

     48 Sym. Ops., with inversion, found



   Cartesian axes

     site n.     atom                  positions (alat units)
         1           Na  tau(   1) = (   0.0000000   0.0000000   0.0000000  )

     number of k points=  8400  Marzari-Vanderbilt smearing, width (Ry)=  0.0200

     Number of k-points >= 100: set verbosity='high' to print them.

     Dense  grid:    28675 G-vectors     FFT dimensions: (  45,  45,  45)

     Smooth grid:    10005 G-vectors     FFT dimensions: (  30,  30,  30)

     Estimated max dynamical RAM per process >       0.98MB

     Estimated total allocated dynamical RAM >      63.01MB

     The potential is recalculated from file :
     ./_ph0/na.bcc.save/charge-density.dat

     Starting wfc are    5 atomic +    4 random wfc

     Band Structure Calculation
     Davidson diagonalization with overlap

     ethr =  1.11E-10,  avg # of iterations = 24.3

     total cpu time spent up to now is      412.6 secs

     End of band structure calculation

     Number of k-points >= 100: set verbosity='high' to print the bands.

     the Fermi energy is     0.9627 ev

     Writing output data file na.bcc.save

                                                                                

     bravais-lattice index     =            3
     lattice parameter (alat)  =       8.4000  a.u.
     unit-cell volume          =     296.3520 (a.u.)^3
     number of atoms/cell      =            1
     number of atomic types    =            1
     kinetic-energy cut-off    =      40.0000  Ry
     charge density cut-off    =     320.0000  Ry
     convergence threshold     =      1.0E-16
     beta                      =       0.7000
     number of iterations used =            4
     Exchange-correlation      = SLA  PW   PBE  PBE ( 1  4  3  4 0 0)


     celldm(1)=    8.40000  celldm(2)=    0.00000  celldm(3)=    0.00000
     celldm(4)=    0.00000  celldm(5)=    0.00000  celldm(6)=    0.00000

     crystal axes: (cart. coord. in units of alat)
               a(1) = (  0.5000  0.5000  0.5000 )  
               a(2) = ( -0.5000  0.5000  0.5000 )  
               a(3) = ( -0.5000 -0.5000  0.5000 )  

     reciprocal axes: (cart. coord. in units 2 pi/alat)
               b(1) = (  1.0000  0.0000  1.0000 )  
               b(2) = ( -1.0000  1.0000  0.0000 )  
               b(3) = (  0.0000 -1.0000  1.0000 )  


     Atoms inside the unit cell: 

     Cartesian axes

     site n.  atom      mass           positions (alat units)
        1     Na  22.9900   tau(    1) = (    0.00000    0.00000    0.00000  )

     Computing dynamical matrix for 
                    q = (  -0.1666667  -0.1666667   0.3333333 )

      2 Sym.Ops. (no q -> -q+G )


     G cutoff =  571.9378  (   1792 G-vectors)     FFT grid: ( 45, 45, 45)
     G cutoff =  285.9689  (    626 G-vectors)  smooth grid: ( 30, 30, 30)

     number of k points=  8400  Marzari-Vanderbilt smearing, width (Ry)=  0.0200

     PseudoPot. # 1 for Na read from file:
     /home/s1333534/quantum_espresso/qe-6.1/pseudo/Na_pbe_v1.uspp.F.UPF
     MD5 check sum: 76a99c7e9422403d3e93cbc85ab7bccb
     Pseudo is Ultrasoft, Zval =  9.0
     Generated by new atomic code, or converted to UPF format
     Using radial grid of  819 points,  5 beta functions with: 
                l(1) =   0
                l(2) =   0
                l(3) =   1
                l(4) =   1
                l(5) =   2
     Q(r) pseudized with  8 coefficients,  rinner =    1.250   1.250   1.250
                                                       1.250   1.250

     Mode symmetry, C_s (m)     point group:


     Atomic displacements:
     There are   3 irreducible representations

     Representation     1      1 modes -A'  To be done

     Representation     2      1 modes -A'  To be done

     Representation     3      1 modes -A''  To be done



     Alpha used in Ewald sum =   2.8000
     PHONON       : 18m 4.61s CPU    19m20.06s WALL



     Representation #  1 mode #   1

     Self-consistent Calculation

      iter #   1 total cpu time :  1178.2 secs   av.it.:   5.6
      thresh= 1.000E-02 alpha_mix =  0.700 |ddv_scf|^2 =  7.322E-05

      iter #   2 total cpu time :  1197.7 secs   av.it.:   7.4
      thresh= 8.557E-04 alpha_mix =  0.700 |ddv_scf|^2 =  8.791E-04

      iter #   3 total cpu time :  1213.8 secs   av.it.:   5.4
      thresh= 2.965E-03 alpha_mix =  0.700 |ddv_scf|^2 =  1.247E-07

      iter #   4 total cpu time :  1235.1 secs   av.it.:   8.3
      thresh= 3.531E-05 alpha_mix =  0.700 |ddv_scf|^2 =  5.010E-09

      iter #   5 total cpu time :  1255.7 secs   av.it.:   8.0
      thresh= 7.078E-06 alpha_mix =  0.700 |ddv_scf|^2 =  1.236E-10

      iter #   6 total cpu time :  1277.2 secs   av.it.:   8.3
      thresh= 1.112E-06 alpha_mix =  0.700 |ddv_scf|^2 =  1.288E-11

      iter #   7 total cpu time :  1298.2 secs   av.it.:   8.2
      thresh= 3.589E-07 alpha_mix =  0.700 |ddv_scf|^2 =  2.172E-11

      iter #   8 total cpu time :  1317.5 secs   av.it.:   7.3
      thresh= 4.660E-07 alpha_mix =  0.700 |ddv_scf|^2 =  1.781E-11

      iter #   9 total cpu time :  1336.6 secs   av.it.:   7.1
      thresh= 4.220E-07 alpha_mix =  0.700 |ddv_scf|^2 =  1.053E-12

      iter #  10 total cpu time :  1355.6 secs   av.it.:   7.0
      thresh= 1.026E-07 alpha_mix =  0.700 |ddv_scf|^2 =  2.941E-15

      iter #  11 total cpu time :  1377.4 secs   av.it.:   8.5
      thresh= 5.423E-09 alpha_mix =  0.700 |ddv_scf|^2 =  1.536E-16

      iter #  12 total cpu time :  1398.0 secs   av.it.:   7.8
      thresh= 1.239E-09 alpha_mix =  0.700 |ddv_scf|^2 =  9.452E-18

     End of self-consistent calculation

     Convergence has been achieved 


     Representation #  2 mode #   2

     Self-consistent Calculation

      iter #   1 total cpu time :  1417.3 secs   av.it.:   5.7
      thresh= 1.000E-02 alpha_mix =  0.700 |ddv_scf|^2 =  5.976E-04

      iter #   2 total cpu time :  1436.1 secs   av.it.:   6.7
      thresh= 2.445E-03 alpha_mix =  0.700 |ddv_scf|^2 =  7.871E-03

      iter #   3 total cpu time :  1451.8 secs   av.it.:   5.4
      thresh= 8.872E-03 alpha_mix =  0.700 |ddv_scf|^2 =  5.681E-07

      iter #   4 total cpu time :  1472.4 secs   av.it.:   7.8
      thresh= 7.537E-05 alpha_mix =  0.700 |ddv_scf|^2 =  5.529E-09

      iter #   5 total cpu time :  1493.7 secs   av.it.:   8.3
      thresh= 7.436E-06 alpha_mix =  0.700 |ddv_scf|^2 =  3.467E-10

      iter #   6 total cpu time :  1515.2 secs   av.it.:   8.4
      thresh= 1.862E-06 alpha_mix =  0.700 |ddv_scf|^2 =  3.265E-11

      iter #   7 total cpu time :  1536.8 secs   av.it.:   8.1
      thresh= 5.714E-07 alpha_mix =  0.700 |ddv_scf|^2 =  1.239E-10

      iter #   8 total cpu time :  1554.6 secs   av.it.:   6.5
      thresh= 1.113E-06 alpha_mix =  0.700 |ddv_scf|^2 =  1.281E-12

      iter #   9 total cpu time :  1574.7 secs   av.it.:   7.7
      thresh= 1.132E-07 alpha_mix =  0.700 |ddv_scf|^2 =  1.664E-12

      iter #  10 total cpu time :  1593.4 secs   av.it.:   6.9
      thresh= 1.290E-07 alpha_mix =  0.700 |ddv_scf|^2 =  7.833E-15

      iter #  11 total cpu time :  1614.7 secs   av.it.:   8.5
      thresh= 8.850E-09 alpha_mix =  0.700 |ddv_scf|^2 =  1.962E-16

      iter #  12 total cpu time :  1635.5 secs   av.it.:   7.9
      thresh= 1.401E-09 alpha_mix =  0.700 |ddv_scf|^2 =  8.925E-18

     End of self-consistent calculation

     Convergence has been achieved 


     Representation #  3 mode #   3

     Self-consistent Calculation

      iter #   1 total cpu time :  1654.1 secs   av.it.:   5.5
      thresh= 1.000E-02 alpha_mix =  0.700 |ddv_scf|^2 =  8.296E-06

      iter #   2 total cpu time :  1675.2 secs   av.it.:   7.8
      thresh= 2.880E-04 alpha_mix =  0.700 |ddv_scf|^2 =  1.197E-07

      iter #   3 total cpu time :  1696.0 secs   av.it.:   8.0
      thresh= 3.459E-05 alpha_mix =  0.700 |ddv_scf|^2 =  7.036E-09

      iter #   4 total cpu time :  1716.5 secs   av.it.:   7.8
      thresh= 8.388E-06 alpha_mix =  0.700 |ddv_scf|^2 =  5.595E-11

      iter #   5 total cpu time :  1736.8 secs   av.it.:   7.7
      thresh= 7.480E-07 alpha_mix =  0.700 |ddv_scf|^2 =  6.093E-14

      iter #   6 total cpu time :  1756.5 secs   av.it.:   7.4
      thresh= 2.468E-08 alpha_mix =  0.700 |ddv_scf|^2 =  2.745E-15

      iter #   7 total cpu time :  1776.2 secs   av.it.:   7.3
      thresh= 5.239E-09 alpha_mix =  0.700 |ddv_scf|^2 =  8.079E-18

     End of self-consistent calculation

     Convergence has been achieved 

     Number of q in the star =   24
     List of q in the star:
          1  -0.166666667  -0.166666667   0.333333333
          2  -0.166666667  -0.333333333   0.166666667
          3   0.166666667  -0.333333333   0.166666667
          4  -0.166666667   0.333333333  -0.166666667
          5   0.166666667   0.333333333  -0.166666667
          6   0.166666667   0.166666667  -0.333333333
          7  -0.166666667   0.166666667  -0.333333333
          8   0.333333333   0.166666667  -0.166666667
          9  -0.333333333   0.166666667   0.166666667
         10   0.333333333  -0.166666667   0.166666667
         11  -0.333333333  -0.166666667  -0.166666667
         12  -0.166666667  -0.166666667  -0.333333333
         13  -0.166666667   0.333333333   0.166666667
         14  -0.166666667  -0.333333333  -0.166666667
         15  -0.166666667   0.166666667   0.333333333
         16   0.166666667  -0.166666667   0.333333333
         17   0.166666667  -0.333333333  -0.166666667
         18  -0.333333333   0.166666667  -0.166666667
         19   0.333333333   0.166666667   0.166666667
         20  -0.333333333  -0.166666667   0.166666667
         21   0.333333333  -0.166666667  -0.166666667
         22   0.166666667  -0.166666667  -0.333333333
         23   0.166666667   0.166666667   0.333333333
         24   0.166666667   0.333333333   0.166666667

     Diagonalizing the dynamical matrix

     q = (   -0.166666667  -0.166666667   0.333333333 ) 

 **************************************************************************
     freq (    1) =       1.035208 [THz] =      34.530839 [cm-1]
     freq (    2) =       1.623634 [THz] =      54.158614 [cm-1]
     freq (    3) =       2.387939 [THz] =      79.653063 [cm-1]
 **************************************************************************

     Mode symmetry, C_s (m)     point group:

     freq (  1 -  1) =         34.5  [cm-1]   --> A'                 
     freq (  2 -  2) =         54.2  [cm-1]   --> A''                
     freq (  3 -  3) =         79.7  [cm-1]   --> A'                 

     Calculation of q =   -0.1666667   0.6666667  -0.5000000

   Info: using nr1, nr2, nr3 values from input

   Info: using nr1, nr2, nr3 values from input

     Parallelization info
     --------------------
     sticks:   dense  smooth     PW     G-vecs:    dense   smooth      PW
     Min          79      39     14                 1791      624     139
     Max          80      40     15                 1793      626     142
     Sum        1267     627    229                28675    10005    2243



     bravais-lattice index     =            3
     lattice parameter (alat)  =       8.4000  a.u.
     unit-cell volume          =     296.3520 (a.u.)^3
     number of atoms/cell      =            1
     number of atomic types    =            1
     number of electrons       =         9.00
     number of Kohn-Sham states=            9
     kinetic-energy cutoff     =      40.0000  Ry
     charge density cutoff     =     320.0000  Ry
     Exchange-correlation      = SLA  PW   PBE  PBE ( 1  4  3  4 0 0)

     celldm(1)=   8.400000  celldm(2)=   0.000000  celldm(3)=   0.000000
     celldm(4)=   0.000000  celldm(5)=   0.000000  celldm(6)=   0.000000

     crystal axes: (cart. coord. in units of alat)
               a(1) = (   0.500000   0.500000   0.500000 )  
               a(2) = (  -0.500000   0.500000   0.500000 )  
               a(3) = (  -0.500000  -0.500000   0.500000 )  

     reciprocal axes: (cart. coord. in units 2 pi/alat)
               b(1) = (  1.000000  0.000000  1.000000 )  
               b(2) = ( -1.000000  1.000000  0.000000 )  
               b(3) = (  0.000000 -1.000000  1.000000 )  


     PseudoPot. # 1 for Na read from file:
     /home/s1333534/quantum_espresso/qe-6.1/pseudo/Na_pbe_v1.uspp.F.UPF
     MD5 check sum: 76a99c7e9422403d3e93cbc85ab7bccb
     Pseudo is Ultrasoft, Zval =  9.0
     Generated by new atomic code, or converted to UPF format
     Using radial grid of  819 points,  5 beta functions with: 
                l(1) =   0
                l(2) =   0
                l(3) =   1
                l(4) =   1
                l(5) =   2
     Q(r) pseudized with  8 coefficients,  rinner =    1.250   1.250   1.250
                                                       1.250   1.250

     atomic species   valence    mass     pseudopotential
        Na             9.00    22.99000     Na( 1.00)

     48 Sym. Ops., with inversion, found



   Cartesian axes

     site n.     atom                  positions (alat units)
         1           Na  tau(   1) = (   0.0000000   0.0000000   0.0000000  )

     number of k points= 16000  Marzari-Vanderbilt smearing, width (Ry)=  0.0200

     Number of k-points >= 100: set verbosity='high' to print them.

     Dense  grid:    28675 G-vectors     FFT dimensions: (  45,  45,  45)

     Smooth grid:    10005 G-vectors     FFT dimensions: (  30,  30,  30)

     Estimated max dynamical RAM per process >       0.98MB

     Estimated total allocated dynamical RAM >      63.01MB

     The potential is recalculated from file :
     ./_ph0/na.bcc.save/charge-density.dat

     Starting wfc are    5 atomic +    4 random wfc

     Band Structure Calculation
     Davidson diagonalization with overlap

     ethr =  1.11E-10,  avg # of iterations = 24.2

     total cpu time spent up to now is      745.6 secs

     End of band structure calculation

     Number of k-points >= 100: set verbosity='high' to print the bands.

     the Fermi energy is     0.9627 ev

     Writing output data file na.bcc.save

                                                                                

     bravais-lattice index     =            3
     lattice parameter (alat)  =       8.4000  a.u.
     unit-cell volume          =     296.3520 (a.u.)^3
     number of atoms/cell      =            1
     number of atomic types    =            1
     kinetic-energy cut-off    =      40.0000  Ry
     charge density cut-off    =     320.0000  Ry
     convergence threshold     =      1.0E-16
     beta                      =       0.7000
     number of iterations used =            4
     Exchange-correlation      = SLA  PW   PBE  PBE ( 1  4  3  4 0 0)


     celldm(1)=    8.40000  celldm(2)=    0.00000  celldm(3)=    0.00000
     celldm(4)=    0.00000  celldm(5)=    0.00000  celldm(6)=    0.00000

     crystal axes: (cart. coord. in units of alat)
               a(1) = (  0.5000  0.5000  0.5000 )  
               a(2) = ( -0.5000  0.5000  0.5000 )  
               a(3) = ( -0.5000 -0.5000  0.5000 )  

     reciprocal axes: (cart. coord. in units 2 pi/alat)
               b(1) = (  1.0000  0.0000  1.0000 )  
               b(2) = ( -1.0000  1.0000  0.0000 )  
               b(3) = (  0.0000 -1.0000  1.0000 )  


     Atoms inside the unit cell: 

     Cartesian axes

     site n.  atom      mass           positions (alat units)
        1     Na  22.9900   tau(    1) = (    0.00000    0.00000    0.00000  )

     Computing dynamical matrix for 
                    q = (  -0.1666667   0.6666667  -0.5000000 )

     No symmetry!

     G cutoff =  571.9378  (   1792 G-vectors)     FFT grid: ( 45, 45, 45)
     G cutoff =  285.9689  (    626 G-vectors)  smooth grid: ( 30, 30, 30)

     number of k points= 16000  Marzari-Vanderbilt smearing, width (Ry)=  0.0200

     PseudoPot. # 1 for Na read from file:
     /home/s1333534/quantum_espresso/qe-6.1/pseudo/Na_pbe_v1.uspp.F.UPF
     MD5 check sum: 76a99c7e9422403d3e93cbc85ab7bccb
     Pseudo is Ultrasoft, Zval =  9.0
     Generated by new atomic code, or converted to UPF format
     Using radial grid of  819 points,  5 beta functions with: 
                l(1) =   0
                l(2) =   0
                l(3) =   1
                l(4) =   1
                l(5) =   2
     Q(r) pseudized with  8 coefficients,  rinner =    1.250   1.250   1.250
                                                       1.250   1.250

     Mode symmetry, C_1 (1)     point group:


     Atomic displacements:
     There are   3 irreducible representations

     Representation     1      1 modes -A  To be done

     Representation     2      1 modes -A  To be done

     Representation     3      1 modes -A  To be done



     Alpha used in Ewald sum =   2.8000
     PHONON       : 33m25.59s CPU    35m47.02s WALL



     Representation #  1 mode #   1

     Self-consistent Calculation

      iter #   1 total cpu time :  2181.9 secs   av.it.:   5.7
      thresh= 1.000E-02 alpha_mix =  0.700 |ddv_scf|^2 =  9.012E-06

      iter #   2 total cpu time :  2223.3 secs   av.it.:   8.1
      thresh= 3.002E-04 alpha_mix =  0.700 |ddv_scf|^2 =  1.109E-06

      iter #   3 total cpu time :  2262.9 secs   av.it.:   7.7
      thresh= 1.053E-04 alpha_mix =  0.700 |ddv_scf|^2 =  5.984E-07

      iter #   4 total cpu time :  2300.1 secs   av.it.:   7.3
      thresh= 7.736E-05 alpha_mix =  0.700 |ddv_scf|^2 =  4.110E-09

      iter #   5 total cpu time :  2340.8 secs   av.it.:   8.0
      thresh= 6.411E-06 alpha_mix =  0.700 |ddv_scf|^2 =  3.413E-10

      iter #   6 total cpu time :  2382.8 secs   av.it.:   8.0
      thresh= 1.847E-06 alpha_mix =  0.700 |ddv_scf|^2 =  3.772E-12

      iter #   7 total cpu time :  2424.7 secs   av.it.:   8.4
      thresh= 1.942E-07 alpha_mix =  0.700 |ddv_scf|^2 =  2.266E-13

      iter #   8 total cpu time :  2467.1 secs   av.it.:   8.7
      thresh= 4.760E-08 alpha_mix =  0.700 |ddv_scf|^2 =  1.222E-14

      iter #   9 total cpu time :  2509.9 secs   av.it.:   8.7
      thresh= 1.105E-08 alpha_mix =  0.700 |ddv_scf|^2 =  1.694E-16

      iter #  10 total cpu time :  2550.6 secs   av.it.:   8.1
      thresh= 1.302E-09 alpha_mix =  0.700 |ddv_scf|^2 =  1.007E-16

      iter #  11 total cpu time :  2587.5 secs   av.it.:   7.2
      thresh= 1.004E-09 alpha_mix =  0.700 |ddv_scf|^2 =  2.897E-18

     End of self-consistent calculation

     Convergence has been achieved 


     Representation #  2 mode #   2

     Self-consistent Calculation

      iter #   1 total cpu time :  2623.8 secs   av.it.:   5.7
      thresh= 1.000E-02 alpha_mix =  0.700 |ddv_scf|^2 =  3.626E-05

      iter #   2 total cpu time :  2663.2 secs   av.it.:   7.8
      thresh= 6.022E-04 alpha_mix =  0.700 |ddv_scf|^2 =  3.534E-05

      iter #   3 total cpu time :  2699.2 secs   av.it.:   6.9
      thresh= 5.945E-04 alpha_mix =  0.700 |ddv_scf|^2 =  9.091E-08

      iter #   4 total cpu time :  2740.2 secs   av.it.:   8.3
      thresh= 3.015E-05 alpha_mix =  0.700 |ddv_scf|^2 =  3.427E-09

      iter #   5 total cpu time :  2781.9 secs   av.it.:   8.4
      thresh= 5.854E-06 alpha_mix =  0.700 |ddv_scf|^2 =  2.721E-10

      iter #   6 total cpu time :  2823.0 secs   av.it.:   8.3
      thresh= 1.650E-06 alpha_mix =  0.700 |ddv_scf|^2 =  8.766E-12

      iter #   7 total cpu time :  2864.4 secs   av.it.:   8.3
      thresh= 2.961E-07 alpha_mix =  0.700 |ddv_scf|^2 =  3.685E-13

      iter #   8 total cpu time :  2904.5 secs   av.it.:   7.8
      thresh= 6.071E-08 alpha_mix =  0.700 |ddv_scf|^2 =  4.433E-15

      iter #   9 total cpu time :  2946.8 secs   av.it.:   8.4
      thresh= 6.658E-09 alpha_mix =  0.700 |ddv_scf|^2 =  1.128E-15

      iter #  10 total cpu time :  2984.8 secs   av.it.:   7.4
      thresh= 3.358E-09 alpha_mix =  0.700 |ddv_scf|^2 =  9.912E-17

     End of self-consistent calculation

     Convergence has been achieved 


     Representation #  3 mode #   3

     Self-consistent Calculation

      iter #   1 total cpu time :  3021.5 secs   av.it.:   5.7
      thresh= 1.000E-02 alpha_mix =  0.700 |ddv_scf|^2 =  4.040E-05

      iter #   2 total cpu time :  3061.3 secs   av.it.:   7.8
      thresh= 6.356E-04 alpha_mix =  0.700 |ddv_scf|^2 =  3.533E-05

      iter #   3 total cpu time :  3097.7 secs   av.it.:   6.9
      thresh= 5.944E-04 alpha_mix =  0.700 |ddv_scf|^2 =  2.941E-07

      iter #   4 total cpu time :  3138.0 secs   av.it.:   7.8
      thresh= 5.423E-05 alpha_mix =  0.700 |ddv_scf|^2 =  6.337E-09

      iter #   5 total cpu time :  3178.8 secs   av.it.:   8.4
      thresh= 7.960E-06 alpha_mix =  0.700 |ddv_scf|^2 =  1.875E-10

      iter #   6 total cpu time :  3219.6 secs   av.it.:   8.3
      thresh= 1.369E-06 alpha_mix =  0.700 |ddv_scf|^2 =  1.167E-11

      iter #   7 total cpu time :  3261.7 secs   av.it.:   8.5
      thresh= 3.416E-07 alpha_mix =  0.700 |ddv_scf|^2 =  7.206E-13

      iter #   8 total cpu time :  3303.9 secs   av.it.:   8.7
      thresh= 8.489E-08 alpha_mix =  0.700 |ddv_scf|^2 =  4.946E-14

      iter #   9 total cpu time :  3343.2 secs   av.it.:   7.7
      thresh= 2.224E-08 alpha_mix =  0.700 |ddv_scf|^2 =  4.814E-15

      iter #  10 total cpu time :  3382.6 secs   av.it.:   7.7
      thresh= 6.938E-09 alpha_mix =  0.700 |ddv_scf|^2 =  8.017E-17

     End of self-consistent calculation

     Convergence has been achieved 

     Number of q in the star =   48
     List of q in the star:
          1  -0.166666667   0.666666667  -0.500000000
          2   0.666666667  -0.166666667  -0.500000000
          3  -0.166666667   0.500000000  -0.666666667
          4   0.166666667   0.500000000  -0.666666667
          5  -0.166666667  -0.500000000   0.666666667
          6   0.166666667  -0.500000000   0.666666667
          7   0.166666667  -0.666666667   0.500000000
          8  -0.166666667  -0.666666667   0.500000000
          9  -0.500000000  -0.666666667  -0.166666667
         10   0.500000000  -0.666666667   0.166666667
         11  -0.500000000   0.666666667   0.166666667
         12   0.500000000   0.666666667  -0.166666667
         13   0.666666667  -0.166666667   0.500000000
         14   0.666666667  -0.500000000  -0.166666667
         15  -0.166666667  -0.500000000  -0.666666667
         16  -0.166666667   0.500000000   0.666666667
         17   0.666666667   0.166666667  -0.500000000
         18   0.166666667   0.666666667  -0.500000000
         19   0.666666667   0.500000000   0.166666667
         20  -0.666666667   0.500000000  -0.166666667
         21   0.500000000   0.166666667   0.666666667
         22  -0.500000000   0.166666667  -0.666666667
         23   0.500000000   0.666666667   0.166666667
         24   0.500000000  -0.166666667  -0.666666667
         25  -0.666666667   0.166666667   0.500000000
         26  -0.166666667   0.666666667   0.500000000
         27  -0.500000000  -0.166666667   0.666666667
         28   0.166666667   0.666666667   0.500000000
         29  -0.500000000   0.666666667  -0.166666667
         30  -0.666666667  -0.166666667  -0.500000000
         31  -0.666666667  -0.166666667   0.500000000
         32   0.666666667   0.166666667   0.500000000
         33   0.166666667  -0.666666667  -0.500000000
         34  -0.666666667   0.166666667  -0.500000000
         35   0.500000000  -0.666666667  -0.166666667
         36  -0.500000000  -0.666666667   0.166666667
         37  -0.166666667  -0.666666667  -0.500000000
         38  -0.666666667  -0.500000000   0.166666667
         39   0.166666667   0.500000000   0.666666667
         40   0.166666667  -0.500000000  -0.666666667
         41  -0.666666667   0.500000000   0.166666667
         42   0.666666667   0.500000000  -0.166666667
         43  -0.666666667  -0.500000000  -0.166666667
         44   0.666666667  -0.500000000   0.166666667
         45   0.500000000   0.166666667  -0.666666667
         46   0.500000000  -0.166666667   0.666666667
         47  -0.500000000  -0.166666667  -0.666666667
         48  -0.500000000   0.166666667   0.666666667

     Diagonalizing the dynamical matrix

     q = (   -0.166666667   0.666666667  -0.500000000 ) 

 **************************************************************************
     freq (    1) =       1.226015 [THz] =      40.895452 [cm-1]
     freq (    2) =       2.257853 [THz] =      75.313885 [cm-1]
     freq (    3) =       2.841343 [THz] =      94.777003 [cm-1]
 **************************************************************************

     Mode symmetry, C_1 (1)     point group:

     freq (  1 -  1) =         40.9  [cm-1]   --> A                  
     freq (  2 -  2) =         75.3  [cm-1]   --> A                  
     freq (  3 -  3) =         94.8  [cm-1]   --> A                  

     Calculation of q =   -0.3333333   0.6666667  -0.3333333

   Info: using nr1, nr2, nr3 values from input

   Info: using nr1, nr2, nr3 values from input

     Parallelization info
     --------------------
     sticks:   dense  smooth     PW     G-vecs:    dense   smooth      PW
     Min          79      39     14                 1791      624     139
     Max          80      40     15                 1793      626     142
     Sum        1267     627    229                28675    10005    2243



     bravais-lattice index     =            3
     lattice parameter (alat)  =       8.4000  a.u.
     unit-cell volume          =     296.3520 (a.u.)^3
     number of atoms/cell      =            1
     number of atomic types    =            1
     number of electrons       =         9.00
     number of Kohn-Sham states=            9
     kinetic-energy cutoff     =      40.0000  Ry
     charge density cutoff     =     320.0000  Ry
     Exchange-correlation      = SLA  PW   PBE  PBE ( 1  4  3  4 0 0)

     celldm(1)=   8.400000  celldm(2)=   0.000000  celldm(3)=   0.000000
     celldm(4)=   0.000000  celldm(5)=   0.000000  celldm(6)=   0.000000

     crystal axes: (cart. coord. in units of alat)
               a(1) = (   0.500000   0.500000   0.500000 )  
               a(2) = (  -0.500000   0.500000   0.500000 )  
               a(3) = (  -0.500000  -0.500000   0.500000 )  

     reciprocal axes: (cart. coord. in units 2 pi/alat)
               b(1) = (  1.000000  0.000000  1.000000 )  
               b(2) = ( -1.000000  1.000000  0.000000 )  
               b(3) = (  0.000000 -1.000000  1.000000 )  


     PseudoPot. # 1 for Na read from file:
     /home/s1333534/quantum_espresso/qe-6.1/pseudo/Na_pbe_v1.uspp.F.UPF
     MD5 check sum: 76a99c7e9422403d3e93cbc85ab7bccb
     Pseudo is Ultrasoft, Zval =  9.0
     Generated by new atomic code, or converted to UPF format
     Using radial grid of  819 points,  5 beta functions with: 
                l(1) =   0
                l(2) =   0
                l(3) =   1
                l(4) =   1
                l(5) =   2
     Q(r) pseudized with  8 coefficients,  rinner =    1.250   1.250   1.250
                                                       1.250   1.250

     atomic species   valence    mass     pseudopotential
        Na             9.00    22.99000     Na( 1.00)

     48 Sym. Ops., with inversion, found



   Cartesian axes

     site n.     atom                  positions (alat units)
         1           Na  tau(   1) = (   0.0000000   0.0000000   0.0000000  )

     number of k points=  3080  Marzari-Vanderbilt smearing, width (Ry)=  0.0200

     Number of k-points >= 100: set verbosity='high' to print them.

     Dense  grid:    28675 G-vectors     FFT dimensions: (  45,  45,  45)

     Smooth grid:    10005 G-vectors     FFT dimensions: (  30,  30,  30)

     Estimated max dynamical RAM per process >       0.98MB

     Estimated total allocated dynamical RAM >      63.01MB

     The potential is recalculated from file :
     ./_ph0/na.bcc.save/charge-density.dat

     Starting wfc are    5 atomic +    4 random wfc

     Band Structure Calculation
     Davidson diagonalization with overlap

     ethr =  1.11E-10,  avg # of iterations = 24.6

     total cpu time spent up to now is      853.6 secs

     End of band structure calculation

     Number of k-points >= 100: set verbosity='high' to print the bands.

     the Fermi energy is     0.9627 ev

     Writing output data file na.bcc.save

                                                                                

     bravais-lattice index     =            3
     lattice parameter (alat)  =       8.4000  a.u.
     unit-cell volume          =     296.3520 (a.u.)^3
     number of atoms/cell      =            1
     number of atomic types    =            1
     kinetic-energy cut-off    =      40.0000  Ry
     charge density cut-off    =     320.0000  Ry
     convergence threshold     =      1.0E-16
     beta                      =       0.7000
     number of iterations used =            4
     Exchange-correlation      = SLA  PW   PBE  PBE ( 1  4  3  4 0 0)


     celldm(1)=    8.40000  celldm(2)=    0.00000  celldm(3)=    0.00000
     celldm(4)=    0.00000  celldm(5)=    0.00000  celldm(6)=    0.00000

     crystal axes: (cart. coord. in units of alat)
               a(1) = (  0.5000  0.5000  0.5000 )  
               a(2) = ( -0.5000  0.5000  0.5000 )  
               a(3) = ( -0.5000 -0.5000  0.5000 )  

     reciprocal axes: (cart. coord. in units 2 pi/alat)
               b(1) = (  1.0000  0.0000  1.0000 )  
               b(2) = ( -1.0000  1.0000  0.0000 )  
               b(3) = (  0.0000 -1.0000  1.0000 )  


     Atoms inside the unit cell: 

     Cartesian axes

     site n.  atom      mass           positions (alat units)
        1     Na  22.9900   tau(    1) = (    0.00000    0.00000    0.00000  )

     Computing dynamical matrix for 
                    q = (  -0.3333333   0.6666667  -0.3333333 )

      6 Sym.Ops. (no q -> -q+G )


     G cutoff =  571.9378  (   1792 G-vectors)     FFT grid: ( 45, 45, 45)
     G cutoff =  285.9689  (    626 G-vectors)  smooth grid: ( 30, 30, 30)

     number of k points=  3080  Marzari-Vanderbilt smearing, width (Ry)=  0.0200

     PseudoPot. # 1 for Na read from file:
     /home/s1333534/quantum_espresso/qe-6.1/pseudo/Na_pbe_v1.uspp.F.UPF
     MD5 check sum: 76a99c7e9422403d3e93cbc85ab7bccb
     Pseudo is Ultrasoft, Zval =  9.0
     Generated by new atomic code, or converted to UPF format
     Using radial grid of  819 points,  5 beta functions with: 
                l(1) =   0
                l(2) =   0
                l(3) =   1
                l(4) =   1
                l(5) =   2
     Q(r) pseudized with  8 coefficients,  rinner =    1.250   1.250   1.250
                                                       1.250   1.250

     Mode symmetry, C_3v (3m)   point group:


     Atomic displacements:
     There are   2 irreducible representations

     Representation     1      1 modes -A_1  L_1  To be done

     Representation     2      2 modes -E    L_3  To be done



     Alpha used in Ewald sum =   2.8000
     PHONON       : 53m30.10s CPU    57m36.88s WALL



     Representation #  1 mode #   1

     Self-consistent Calculation

      iter #   1 total cpu time :  3463.4 secs   av.it.:   5.4
      thresh= 1.000E-02 alpha_mix =  0.700 |ddv_scf|^2 =  7.799E-06

      iter #   2 total cpu time :  3470.9 secs   av.it.:   7.8
      thresh= 2.793E-04 alpha_mix =  0.700 |ddv_scf|^2 =  1.221E-07

      iter #   3 total cpu time :  3479.1 secs   av.it.:   8.1
      thresh= 3.494E-05 alpha_mix =  0.700 |ddv_scf|^2 =  6.313E-09

      iter #   4 total cpu time :  3486.7 secs   av.it.:   7.8
      thresh= 7.945E-06 alpha_mix =  0.700 |ddv_scf|^2 =  4.370E-11

      iter #   5 total cpu time :  3494.5 secs   av.it.:   8.0
      thresh= 6.611E-07 alpha_mix =  0.700 |ddv_scf|^2 =  2.844E-12

      iter #   6 total cpu time :  3502.3 secs   av.it.:   8.2
      thresh= 1.686E-07 alpha_mix =  0.700 |ddv_scf|^2 =  1.140E-13

      iter #   7 total cpu time :  3510.4 secs   av.it.:   8.4
      thresh= 3.376E-08 alpha_mix =  0.700 |ddv_scf|^2 =  9.906E-15

      iter #   8 total cpu time :  3518.2 secs   av.it.:   8.1
      thresh= 9.953E-09 alpha_mix =  0.700 |ddv_scf|^2 =  1.041E-16

      iter #   9 total cpu time :  3525.7 secs   av.it.:   7.8
      thresh= 1.020E-09 alpha_mix =  0.700 |ddv_scf|^2 =  3.075E-18

     End of self-consistent calculation

     Convergence has been achieved 


     Representation #  2 modes #   2  3

     Self-consistent Calculation

      iter #   1 total cpu time :  3539.3 secs   av.it.:   5.6
      thresh= 1.000E-02 alpha_mix =  0.700 |ddv_scf|^2 =  5.723E-06

      iter #   2 total cpu time :  3555.2 secs   av.it.:   8.2
      thresh= 2.392E-04 alpha_mix =  0.700 |ddv_scf|^2 =  7.136E-07

      iter #   3 total cpu time :  3570.6 secs   av.it.:   7.8
      thresh= 8.448E-05 alpha_mix =  0.700 |ddv_scf|^2 =  5.880E-09

      iter #   4 total cpu time :  3587.0 secs   av.it.:   8.7
      thresh= 7.668E-06 alpha_mix =  0.700 |ddv_scf|^2 =  5.784E-11

      iter #   5 total cpu time :  3602.5 secs   av.it.:   8.1
      thresh= 7.605E-07 alpha_mix =  0.700 |ddv_scf|^2 =  7.056E-14

      iter #   6 total cpu time :  3618.2 secs   av.it.:   8.3
      thresh= 2.656E-08 alpha_mix =  0.700 |ddv_scf|^2 =  4.579E-15

      iter #   7 total cpu time :  3634.2 secs   av.it.:   8.3
      thresh= 6.767E-09 alpha_mix =  0.700 |ddv_scf|^2 =  1.465E-17

     End of self-consistent calculation

     Convergence has been achieved 

     Number of q in the star =    8
     List of q in the star:
          1  -0.333333333   0.666666667  -0.333333333
          2   0.333333333  -0.666666667   0.333333333
          3  -0.333333333  -0.666666667   0.333333333
          4  -0.333333333  -0.666666667  -0.333333333
          5  -0.333333333   0.666666667   0.333333333
          6   0.333333333   0.666666667  -0.333333333
          7  -0.666666667   0.333333333  -0.333333333
          8   0.333333333   0.666666667   0.333333333

     Diagonalizing the dynamical matrix

     q = (   -0.333333333   0.666666667  -0.333333333 ) 

 **************************************************************************
     freq (    1) =       1.536055 [THz] =      51.237289 [cm-1]
     freq (    2) =       2.649215 [THz] =      88.368310 [cm-1]
     freq (    3) =       2.649215 [THz] =      88.368310 [cm-1]
 **************************************************************************

     Mode symmetry, C_3v (3m)   point group:

     freq (  1 -  1) =         51.2  [cm-1]   --> A_1  L_1           
     freq (  2 -  3) =         88.4  [cm-1]   --> E    L_3           

     Calculation of q =    0.0000000   0.0000000   0.3333333

   Info: using nr1, nr2, nr3 values from input

   Info: using nr1, nr2, nr3 values from input

     Parallelization info
     --------------------
     sticks:   dense  smooth     PW     G-vecs:    dense   smooth      PW
     Min          79      39     13                 1791      624     122
     Max          80      40     14                 1793      626     124
     Sum        1267     627    213                28675    10005    1961



     bravais-lattice index     =            3
     lattice parameter (alat)  =       8.4000  a.u.
     unit-cell volume          =     296.3520 (a.u.)^3
     number of atoms/cell      =            1
     number of atomic types    =            1
     number of electrons       =         9.00
     number of Kohn-Sham states=            9
     kinetic-energy cutoff     =      40.0000  Ry
     charge density cutoff     =     320.0000  Ry
     Exchange-correlation      = SLA  PW   PBE  PBE ( 1  4  3  4 0 0)

     celldm(1)=   8.400000  celldm(2)=   0.000000  celldm(3)=   0.000000
     celldm(4)=   0.000000  celldm(5)=   0.000000  celldm(6)=   0.000000

[...]

     PseudoPot. # 1 for Na read from file:
     /home/s1333534/quantum_espresso/qe-6.1/pseudo/Na_pbe_v1.uspp.F.UPF
     MD5 check sum: 76a99c7e9422403d3e93cbc85ab7bccb
     Pseudo is Ultrasoft, Zval =  9.0
     Generated by new atomic code, or converted to UPF format
     Using radial grid of  819 points,  5 beta functions with: 
                l(1) =   0
                l(2) =   0
                l(3) =   1
                l(4) =   1
                l(5) =   2
     Q(r) pseudized with  8 coefficients,  rinner =    1.250   1.250   1.250
                                                       1.250   1.250

     Mode symmetry, C_2v (mm2)  point group:


     Atomic displacements:
     There are   3 irreducible representations

     Representation     1      1 modes -A_1  D_1  S_1  To be done

     Representation     2      1 modes -B_1  D_3  S_3  To be done

     Representation     3      1 modes -B_2  D_4  S_4  To be done



     Alpha used in Ewald sum =   2.8000
     PHONON       :     1h42m CPU        1h50m WALL



     Representation #  1 mode #   1

     Self-consistent Calculation

      iter #   1 total cpu time :  6627.0 secs   av.it.:   5.6
      thresh= 1.000E-02 alpha_mix =  0.700 |ddv_scf|^2 =  1.336E-05

      iter #   2 total cpu time :  6638.4 secs   av.it.:   7.9
      thresh= 3.655E-04 alpha_mix =  0.700 |ddv_scf|^2 =  7.049E-07

      iter #   3 total cpu time :  6649.5 secs   av.it.:   7.7
      thresh= 8.396E-05 alpha_mix =  0.700 |ddv_scf|^2 =  1.618E-08

      iter #   4 total cpu time :  6660.7 secs   av.it.:   8.2
      thresh= 1.272E-05 alpha_mix =  0.700 |ddv_scf|^2 =  1.128E-09

      iter #   5 total cpu time :  6672.0 secs   av.it.:   8.2
      thresh= 3.358E-06 alpha_mix =  0.700 |ddv_scf|^2 =  7.338E-11

      iter #   6 total cpu time :  6683.2 secs   av.it.:   8.1
      thresh= 8.566E-07 alpha_mix =  0.700 |ddv_scf|^2 =  1.232E-12

      iter #   7 total cpu time :  6694.8 secs   av.it.:   8.2
      thresh= 1.110E-07 alpha_mix =  0.700 |ddv_scf|^2 =  6.762E-14

      iter #   8 total cpu time :  6706.1 secs   av.it.:   8.2
      thresh= 2.600E-08 alpha_mix =  0.700 |ddv_scf|^2 =  2.213E-16

      iter #   9 total cpu time :  6717.0 secs   av.it.:   7.7
      thresh= 1.488E-09 alpha_mix =  0.700 |ddv_scf|^2 =  1.982E-17

     End of self-consistent calculation

     Convergence has been achieved 


     Representation #  2 mode #   2

     Self-consistent Calculation

      iter #   1 total cpu time :  6726.7 secs   av.it.:   5.5
      thresh= 1.000E-02 alpha_mix =  0.700 |ddv_scf|^2 =  1.157E-05

      iter #   2 total cpu time :  6737.5 secs   av.it.:   7.7
      thresh= 3.401E-04 alpha_mix =  0.700 |ddv_scf|^2 =  1.616E-07

      iter #   3 total cpu time :  6748.5 secs   av.it.:   7.7
      thresh= 4.020E-05 alpha_mix =  0.700 |ddv_scf|^2 =  1.478E-08

      iter #   4 total cpu time :  6760.0 secs   av.it.:   7.7
      thresh= 1.216E-05 alpha_mix =  0.700 |ddv_scf|^2 =  6.935E-11

      iter #   5 total cpu time :  6771.2 secs   av.it.:   7.8
      thresh= 8.328E-07 alpha_mix =  0.700 |ddv_scf|^2 =  4.092E-14

      iter #   6 total cpu time :  6781.4 secs   av.it.:   7.1
      thresh= 2.023E-08 alpha_mix =  0.700 |ddv_scf|^2 =  2.830E-15

      iter #   7 total cpu time :  6792.0 secs   av.it.:   7.4
      thresh= 5.319E-09 alpha_mix =  0.700 |ddv_scf|^2 =  5.529E-18

     End of self-consistent calculation

     Convergence has been achieved 


     Representation #  3 mode #   3

     Self-consistent Calculation

      iter #   1 total cpu time :  6802.2 secs   av.it.:   5.6
      thresh= 1.000E-02 alpha_mix =  0.700 |ddv_scf|^2 =  1.916E-05

      iter #   2 total cpu time :  6813.6 secs   av.it.:   7.7
      thresh= 4.377E-04 alpha_mix =  0.700 |ddv_scf|^2 =  1.474E-06

      iter #   3 total cpu time :  6824.1 secs   av.it.:   7.3
      thresh= 1.214E-04 alpha_mix =  0.700 |ddv_scf|^2 =  2.096E-08

      iter #   4 total cpu time :  6835.3 secs   av.it.:   7.8
      thresh= 1.448E-05 alpha_mix =  0.700 |ddv_scf|^2 =  5.733E-10

      iter #   5 total cpu time :  6845.8 secs   av.it.:   7.4
      thresh= 2.394E-06 alpha_mix =  0.700 |ddv_scf|^2 =  1.112E-12

      iter #   6 total cpu time :  6857.0 secs   av.it.:   8.0
      thresh= 1.055E-07 alpha_mix =  0.700 |ddv_scf|^2 =  8.402E-15

      iter #   7 total cpu time :  6868.1 secs   av.it.:   7.9
      thresh= 9.166E-09 alpha_mix =  0.700 |ddv_scf|^2 =  1.420E-16

      iter #   8 total cpu time :  6879.2 secs   av.it.:   7.8
      thresh= 1.192E-09 alpha_mix =  0.700 |ddv_scf|^2 =  2.335E-19

     End of self-consistent calculation

     Convergence has been achieved 

     Number of q in the star =   12
     List of q in the star:
          1   0.000000000   0.833333333  -0.166666667
          2   0.000000000  -0.833333333  -0.166666667
          3   0.833333333   0.000000000  -0.166666667
          4  -0.833333333   0.000000000  -0.166666667
          5  -0.166666667  -0.833333333   0.000000000
          6   0.166666667  -0.833333333   0.000000000
          7  -0.166666667   0.833333333   0.000000000
          8   0.166666667   0.833333333   0.000000000
          9   0.833333333   0.000000000   0.166666667
         10   0.000000000   0.166666667  -0.833333333
         11   0.000000000  -0.166666667  -0.833333333
         12   0.166666667   0.000000000  -0.833333333

     Diagonalizing the dynamical matrix

     q = (    0.000000000   0.833333333  -0.166666667 ) 

 **************************************************************************
     freq (    1) =       2.621054 [THz] =      87.428954 [cm-1]
     freq (    2) =       2.865263 [THz] =      95.574884 [cm-1]
     freq (    3) =       3.028812 [THz] =     101.030305 [cm-1]
 **************************************************************************

     Mode symmetry, C_2v (mm2)  point group:

     freq (  1 -  1) =         87.4  [cm-1]   --> A_1  D_1  S_1      
     freq (  2 -  2) =         95.6  [cm-1]   --> B_1  D_3  S_3      
     freq (  3 -  3) =        101.0  [cm-1]   --> B_2  D_4  S_4      

     Calculation of q =    0.0000000   0.0000000  -1.0000000

   Info: using nr1, nr2, nr3 values from input

   Info: using nr1, nr2, nr3 values from input

     Parallelization info
     --------------------
     sticks:   dense  smooth     PW     G-vecs:    dense   smooth      PW
     Min          79      39     14                 1791      624     135
     Max          80      40     15                 1793      626     136
     Sum        1267     627    229                28675    10005    2171



     bravais-lattice index     =            3
     lattice parameter (alat)  =       8.4000  a.u.
     unit-cell volume          =     296.3520 (a.u.)^3
     number of atoms/cell      =            1
     number of atomic types    =            1
     number of electrons       =         9.00
     number of Kohn-Sham states=            9
     kinetic-energy cutoff     =      40.0000  Ry
     charge density cutoff     =     320.0000  Ry
     Exchange-correlation      = SLA  PW   PBE  PBE ( 1  4  3  4 0 0)

     celldm(1)=   8.400000  celldm(2)=   0.000000  celldm(3)=   0.000000
     celldm(4)=   0.000000  celldm(5)=   0.000000  celldm(6)=   0.000000

     crystal axes: (cart. coord. in units of alat)
               a(1) = (   0.500000   0.500000   0.500000 )  
               a(2) = (  -0.500000   0.500000   0.500000 )  
               a(3) = (  -0.500000  -0.500000   0.500000 )  

     reciprocal axes: (cart. coord. in units 2 pi/alat)
               b(1) = (  1.000000  0.000000  1.000000 )  
               b(2) = ( -1.000000  1.000000  0.000000 )  
               b(3) = (  0.000000 -1.000000  1.000000 )  


     PseudoPot. # 1 for Na read from file:
     /home/s1333534/quantum_espresso/qe-6.1/pseudo/Na_pbe_v1.uspp.F.UPF
     MD5 check sum: 76a99c7e9422403d3e93cbc85ab7bccb
     Pseudo is Ultrasoft, Zval =  9.0
     Generated by new atomic code, or converted to UPF format
     Using radial grid of  819 points,  5 beta functions with: 
                l(1) =   0
                l(2) =   0
                l(3) =   1
                l(4) =   1
                l(5) =   2
     Q(r) pseudized with  8 coefficients,  rinner =    1.250   1.250   1.250
                                                       1.250   1.250

     atomic species   valence    mass     pseudopotential
        Na             9.00    22.99000     Na( 1.00)

     48 Sym. Ops., with inversion, found



   Cartesian axes

     site n.     atom                  positions (alat units)
         1           Na  tau(   1) = (   0.0000000   0.0000000   0.0000000  )

     number of k points=   500  Marzari-Vanderbilt smearing, width (Ry)=  0.0200

     Number of k-points >= 100: set verbosity='high' to print them.

     Dense  grid:    28675 G-vectors     FFT dimensions: (  45,  45,  45)

     Smooth grid:    10005 G-vectors     FFT dimensions: (  30,  30,  30)

     Estimated max dynamical RAM per process >       0.98MB

     Estimated total allocated dynamical RAM >      63.01MB

     The potential is recalculated from file :
     ./_ph0/na.bcc.save/charge-density.dat

     Starting wfc are    5 atomic +    4 random wfc

     Band Structure Calculation
     Davidson diagonalization with overlap

     ethr =  1.11E-10,  avg # of iterations = 24.5

     total cpu time spent up to now is     1725.6 secs

     End of band structure calculation

     Number of k-points >= 100: set verbosity='high' to print the bands.

     the Fermi energy is     0.9627 ev

     Writing output data file na.bcc.save

                                                                                

     bravais-lattice index     =            3
     lattice parameter (alat)  =       8.4000  a.u.
     unit-cell volume          =     296.3520 (a.u.)^3
     number of atoms/cell      =            1
     number of atomic types    =            1
     kinetic-energy cut-off    =      40.0000  Ry
     charge density cut-off    =     320.0000  Ry
     convergence threshold     =      1.0E-16
     beta                      =       0.7000
     number of iterations used =            4
     Exchange-correlation      = SLA  PW   PBE  PBE ( 1  4  3  4 0 0)


     celldm(1)=    8.40000  celldm(2)=    0.00000  celldm(3)=    0.00000
     celldm(4)=    0.00000  celldm(5)=    0.00000  celldm(6)=    0.00000

     crystal axes: (cart. coord. in units of alat)
               a(1) = (  0.5000  0.5000  0.5000 )  
               a(2) = ( -0.5000  0.5000  0.5000 )  
               a(3) = ( -0.5000 -0.5000  0.5000 )  

     reciprocal axes: (cart. coord. in units 2 pi/alat)
               b(1) = (  1.0000  0.0000  1.0000 )  
               b(2) = ( -1.0000  1.0000  0.0000 )  
               b(3) = (  0.0000 -1.0000  1.0000 )  


     Atoms inside the unit cell: 

     Cartesian axes

     site n.  atom      mass           positions (alat units)
        1     Na  22.9900   tau(    1) = (    0.00000    0.00000    0.00000  )

     Computing dynamical matrix for 
                    q = (   0.0000000   0.0000000  -1.0000000 )

     49 Sym.Ops. (with q -> -q+G )


     G cutoff =  571.9378  (   1792 G-vectors)     FFT grid: ( 45, 45, 45)
     G cutoff =  285.9689  (    626 G-vectors)  smooth grid: ( 30, 30, 30)

     number of k points=   500  Marzari-Vanderbilt smearing, width (Ry)=  0.0200

     PseudoPot. # 1 for Na read from file:
     /home/s1333534/quantum_espresso/qe-6.1/pseudo/Na_pbe_v1.uspp.F.UPF
     MD5 check sum: 76a99c7e9422403d3e93cbc85ab7bccb
     Pseudo is Ultrasoft, Zval =  9.0
     Generated by new atomic code, or converted to UPF format
     Using radial grid of  819 points,  5 beta functions with: 
                l(1) =   0
                l(2) =   0
                l(3) =   1
                l(4) =   1
                l(5) =   2
     Q(r) pseudized with  8 coefficients,  rinner =    1.250   1.250   1.250
                                                       1.250   1.250

     Mode symmetry, O_h (m-3m)  point group:


     Atomic displacements:
     There are   1 irreducible representations

     Representation     1      3 modes -T_1u G_15  G_4-  To be done



     Alpha used in Ewald sum =   2.8000
     PHONON       :     1h46m CPU        1h54m WALL



     Representation #  1 modes #   1  2  3

     Self-consistent Calculation

      iter #   1 total cpu time :  6896.9 secs   av.it.:   5.7
      thresh= 1.000E-02 alpha_mix =  0.700 |ddv_scf|^2 =  1.431E-06

      iter #   2 total cpu time :  6902.6 secs   av.it.:   8.5
      thresh= 1.196E-04 alpha_mix =  0.700 |ddv_scf|^2 =  2.371E-08

      iter #   3 total cpu time :  6908.1 secs   av.it.:   8.4
      thresh= 1.540E-05 alpha_mix =  0.700 |ddv_scf|^2 =  1.853E-09

      iter #   4 total cpu time :  6913.8 secs   av.it.:   8.5
      thresh= 4.305E-06 alpha_mix =  0.700 |ddv_scf|^2 =  8.020E-12

      iter #   5 total cpu time :  6919.3 secs   av.it.:   8.4
      thresh= 2.832E-07 alpha_mix =  0.700 |ddv_scf|^2 =  3.084E-15

      iter #   6 total cpu time :  6924.3 secs   av.it.:   7.0
      thresh= 5.553E-09 alpha_mix =  0.700 |ddv_scf|^2 =  2.440E-16

      iter #   7 total cpu time :  6929.9 secs   av.it.:   7.9
      thresh= 1.562E-09 alpha_mix =  0.700 |ddv_scf|^2 =  3.350E-19

     End of self-consistent calculation

     Convergence has been achieved 

     Number of q in the star =    1
     List of q in the star:
          1   0.000000000   0.000000000  -1.000000000

     Diagonalizing the dynamical matrix

     q = (    0.000000000   0.000000000  -1.000000000 ) 

 **************************************************************************
     freq (    1) =       3.063063 [THz] =     102.172777 [cm-1]
     freq (    2) =       3.063063 [THz] =     102.172777 [cm-1]
     freq (    3) =       3.063063 [THz] =     102.172777 [cm-1]
 **************************************************************************

     Mode symmetry, O_h (m-3m)  point group:

     freq (  1 -  3) =        102.2  [cm-1]   --> T_1u G_15  G_4-    

     init_run     :      2.71s CPU      2.86s WALL (      15 calls)
     electrons    :   1421.23s CPU   1496.53s WALL (      15 calls)

     Called by init_run:
     wfcinit      :      0.00s CPU      0.00s WALL (      15 calls)
     potinit      :      0.50s CPU      0.51s WALL (      15 calls)

     Called by electrons:
     c_bands      :   1420.89s CPU   1496.18s WALL (      15 calls)
     v_of_rho     :      0.22s CPU      0.22s WALL (      16 calls)
     newd         :      0.20s CPU      0.21s WALL (      16 calls)

     Called by c_bands:
     init_us_2    :     30.79s CPU     33.18s WALL (  334962 calls)
     cegterg      :   1101.48s CPU   1169.62s WALL (   31961 calls)

     Called by sum_band:

     Called by *egterg:
     h_psi        :   3759.67s CPU   4038.20s WALL ( 3200186 calls)
     s_psi        :    112.82s CPU    122.87s WALL ( 6143146 calls)
     g_psi        :      3.90s CPU      4.21s WALL (  466743 calls)
     cdiaghg      :    281.56s CPU    299.01s WALL (  486005 calls)

     Called by h_psi:
     h_psi:pot    :   3733.50s CPU   4009.06s WALL ( 3200186 calls)
     h_psi:calbec :    210.62s CPU    224.88s WALL ( 3200186 calls)
     vloc_psi     :   3425.19s CPU   3679.18s WALL ( 3200186 calls)
     add_vuspsi   :     61.76s CPU     67.16s WALL ( 3200186 calls)

     General routines
     calbec       :    395.19s CPU    423.80s WALL ( 6684823 calls)
     fft          :      6.90s CPU      7.15s WALL (    6361 calls)
     ffts         :      7.19s CPU      7.86s WALL (   30432 calls)
     fftw         :   3730.12s CPU   4023.24s WALL (30731843 calls)
     interpolate  :      1.62s CPU      1.92s WALL (     872 calls)
     davcio       :     37.09s CPU     59.84s WALL ( 1361831 calls)

     Parallel routines
     fft_scatter  :   1590.62s CPU   1714.47s WALL (30768636 calls)

     PHONON       :     1h47m CPU        1h55m WALL

     INITIALIZATION: 
     phq_setup    :      0.76s CPU      0.80s WALL (      16 calls)
     phq_init     :     68.09s CPU     71.48s WALL (      16 calls)

     phq_init     :     68.09s CPU     71.48s WALL (      16 calls)
     init_vloc    :      0.14s CPU      0.14s WALL (      16 calls)
     init_us_1    :      1.22s CPU      1.33s WALL (      16 calls)
     newd         :      0.20s CPU      0.21s WALL (      16 calls)
     dvanqq       :      0.78s CPU      0.79s WALL (      16 calls)
     drho         :     51.60s CPU     54.18s WALL (      16 calls)

     DYNAMICAL MATRIX:
     dynmat0      :      9.97s CPU     10.37s WALL (      16 calls)
     phqscf       :   4721.75s CPU   5127.10s WALL (      16 calls)
     dynmatrix    :      0.10s CPU      0.11s WALL (      16 calls)

     phqscf       :   4721.75s CPU   5127.10s WALL (      16 calls)
     solve_linter :   4706.46s CPU   5110.80s WALL (      40 calls)
     drhodv       :     15.10s CPU     15.97s WALL (      40 calls)

     dynmat0      :      9.97s CPU     10.37s WALL (      16 calls)
     dynmat_us    :      9.89s CPU     10.28s WALL (      16 calls)
     d2ionq       :      0.02s CPU      0.02s WALL (      16 calls)

     dynmat_us    :      9.89s CPU     10.28s WALL (      16 calls)
     addusdynmat  :      0.00s CPU      0.00s WALL (      16 calls)

     phqscf       :   4721.75s CPU   5127.10s WALL (      16 calls)
     solve_linter :   4706.46s CPU   5110.80s WALL (      40 calls)

     solve_linter :   4706.46s CPU   5110.80s WALL (      40 calls)
     dvqpsi_us    :     91.05s CPU     96.33s WALL (   29082 calls)
     ortho        :     61.33s CPU     65.55s WALL (  260740 calls)
     cgsolve      :   3687.04s CPU   3981.25s WALL (  260740 calls)
     incdrhoscf   :    355.90s CPU    403.78s WALL (  260740 calls)
     addusddens   :      6.06s CPU      6.09s WALL (     382 calls)
     vpsifft      :    292.77s CPU    315.65s WALL (  231658 calls)
     dv_of_drho   :      4.86s CPU      4.95s WALL (     396 calls)
     mix_pot      :      0.80s CPU      3.20s WALL (     342 calls)
     ef_shift     :      0.03s CPU      0.06s WALL (       7 calls)
     localdos     :      0.10s CPU      0.11s WALL (       1 calls)
     psymdvscf    :     43.09s CPU     44.05s WALL (     311 calls)
     newdq        :      5.91s CPU      5.98s WALL (     342 calls)
     adddvscf     :     15.79s CPU     16.85s WALL (  231658 calls)
     drhodvus     :      0.01s CPU      0.02s WALL (      40 calls)

     dvqpsi_us    :     91.05s CPU     96.33s WALL (   29082 calls)
     dvqpsi_us_on :     14.70s CPU     15.31s WALL (   29082 calls)

     cgsolve      :   3687.04s CPU   3981.25s WALL (  260740 calls)
     ch_psi       :   3504.76s CPU   3781.66s WALL ( 2682220 calls)

     ch_psi       :   3504.76s CPU   3781.66s WALL ( 2682220 calls)
     h_psi        :   3759.67s CPU   4038.20s WALL ( 3200186 calls)
     last         :    352.42s CPU    382.09s WALL ( 2682220 calls)

     h_psi        :   3759.67s CPU   4038.20s WALL ( 3200186 calls)
     add_vuspsi   :     61.76s CPU     67.16s WALL ( 3200186 calls)

     incdrhoscf   :    355.90s CPU    403.78s WALL (  260740 calls)
     addusdbec    :     31.06s CPU     32.87s WALL (  289822 calls)

     drhodvus     :      0.01s CPU      0.02s WALL (      40 calls)

      General routines
     calbec       :    395.19s CPU    423.80s WALL ( 6684823 calls)
     fft          :      6.90s CPU      7.15s WALL (    6361 calls)
     ffts         :      7.19s CPU      7.86s WALL (   30432 calls)
     fftw         :   3730.12s CPU   4023.24s WALL (30731843 calls)
     davcio       :     37.09s CPU     59.84s WALL ( 1361831 calls)
     write_rec    :      1.55s CPU      3.09s WALL (     382 calls)


     PHONON       :     1h47m CPU        1h55m WALL


   This run was terminated on:   7:21:27   1Feb2018            

=------------------------------------------------------------------------------=
   JOB DONE.
=------------------------------------------------------------------------------=
