
     Program PHONON v.6.1 (svn rev. 13369) starts on 26Jan2018 at 20:49:58 

     This program is part of the open-source Quantum ESPRESSO suite
     for quantum simulation of materials; please cite
         "P. Giannozzi et al., J. Phys.:Condens. Matter 21 395502 (2009);
          URL http://www.quantum-espresso.org", 
     in publications or presentations arising from this work. More details at
     http://www.quantum-espresso.org/quote

     Parallel version (MPI), running on     4 processors
     R & G space division:  proc/nbgrp/npool/nimage =       4

     Reading data from directory:
     ./na.fcc.save

   Info: using nr1, nr2, nr3 values from input

   Info: using nr1, nr2, nr3 values from input

     IMPORTANT: XC functional enforced from input :
     Exchange-correlation      = SLA  PW   PBE  PBE ( 1  4  3  4 0 0)
     Any further DFT definition will be discarded
     Please, verify this is what you really want


     Parallelization info
     --------------------
     sticks:   dense  smooth     PW     G-vecs:    dense   smooth      PW
     Min         267     136     46                 5821     2072     397
     Max         268     137     47                 5825     2073     398
     Sum        1069     547    187                23289     8291    1591



     Dynamical matrices for ( 8, 8, 8)  uniform grid of q-points
     (  29q-points):
       N         xq(1)         xq(2)         xq(3) 
       1   0.000000000   0.000000000   0.000000000
       2  -0.125000000   0.125000000  -0.125000000
       3  -0.250000000   0.250000000  -0.250000000
       4  -0.375000000   0.375000000  -0.375000000
       5   0.500000000  -0.500000000   0.500000000
       6   0.000000000   0.250000000   0.000000000
       7  -0.125000000   0.375000000  -0.125000000
       8  -0.250000000   0.500000000  -0.250000000
       9   0.625000000  -0.375000000   0.625000000
      10   0.500000000  -0.250000000   0.500000000
      11   0.375000000  -0.125000000   0.375000000
      12   0.250000000   0.000000000   0.250000000
      13   0.000000000   0.500000000   0.000000000
      14  -0.125000000   0.625000000  -0.125000000
      15   0.750000000  -0.250000000   0.750000000
      16   0.625000000  -0.125000000   0.625000000
      17   0.500000000   0.000000000   0.500000000
      18   0.000000000   0.750000000   0.000000000
      19   0.875000000  -0.125000000   0.875000000
      20   0.750000000   0.000000000   0.750000000
      21   0.000000000  -1.000000000   0.000000000
      22  -0.250000000   0.500000000   0.000000000
      23   0.625000000  -0.375000000   0.875000000
      24   0.500000000  -0.250000000   0.750000000
      25   0.750000000  -0.250000000   1.000000000
      26   0.625000000  -0.125000000   0.875000000
      27   0.500000000   0.000000000   0.750000000
      28  -0.250000000  -1.000000000   0.000000000
      29  -0.500000000  -1.000000000   0.000000000

     Calculation of q =    0.0000000   0.0000000   0.0000000

                                                                                

     bravais-lattice index     =            2
     lattice parameter (alat)  =       9.8825  a.u.
     unit-cell volume          =     241.2875 (a.u.)^3
     number of atoms/cell      =            1
     number of atomic types    =            1
     kinetic-energy cut-off    =      40.0000  Ry
     charge density cut-off    =     320.0000  Ry
     convergence threshold     =      1.0E-12
     beta                      =       0.7000
     number of iterations used =            4
     Exchange-correlation      = SLA  PW   PBE  PBE ( 1  4  3  4 0 0)


     celldm(1)=    9.88246  celldm(2)=    0.00000  celldm(3)=    0.00000
     celldm(4)=    0.00000  celldm(5)=    0.00000  celldm(6)=    0.00000

     crystal axes: (cart. coord. in units of alat)
               a(1) = ( -0.5000  0.0000  0.5000 )  
               a(2) = (  0.0000  0.5000  0.5000 )  
               a(3) = ( -0.5000  0.5000  0.0000 )  

     reciprocal axes: (cart. coord. in units 2 pi/alat)
               b(1) = ( -1.0000 -1.0000  1.0000 )  
               b(2) = (  1.0000  1.0000  1.0000 )  
               b(3) = ( -1.0000  1.0000 -1.0000 )  


     Atoms inside the unit cell: 

     Cartesian axes

     site n.  atom      mass           positions (alat units)
        1     Na  22.9900   tau(    1) = (    0.00000    0.00000    0.00000  )

     Computing dynamical matrix for 
                    q = (   0.0000000   0.0000000   0.0000000 )

     49 Sym.Ops. (with q -> -q+G )


     G cutoff =  791.6262  (   5822 G-vectors)     FFT grid: ( 40, 40, 40)
     G cutoff =  395.8131  (   2073 G-vectors)  smooth grid: ( 30, 30, 30)

     number of k points=   280  Marzari-Vanderbilt smearing, width (Ry)=  0.0200

     PseudoPot. # 1 for Na read from file:
     /home/s1333534/quantum_espresso/qe-6.1/pseudo/Na_pbe_v1.uspp.F.UPF
     MD5 check sum: 76a99c7e9422403d3e93cbc85ab7bccb
     Pseudo is Ultrasoft, Zval =  9.0
     Generated by new atomic code, or converted to UPF format
     Using radial grid of  819 points,  5 beta functions with: 
                l(1) =   0
                l(2) =   0
                l(3) =   1
                l(4) =   1
                l(5) =   2
     Q(r) pseudized with  8 coefficients,  rinner =    1.250   1.250   1.250
                                                       1.250   1.250

     Mode symmetry, O_h (m-3m)  point group:


     Atomic displacements:
     There are   1 irreducible representations

     Representation     1      3 modes -T_1u G_15  G_4-  To be done



     Alpha used in Ewald sum =   2.8000
     PHONON       :     2.54s CPU         2.71s WALL



     Representation #  1 modes #   1  2  3

     Self-consistent Calculation

     Pert. #  1: Fermi energy shift (Ry) =    -1.1848E-26     9.4040E-38
     Pert. #  2: Fermi energy shift (Ry) =    -1.5617E-26     3.1347E-38
     Pert. #  3: Fermi energy shift (Ry) =     4.0659E-26     6.2693E-38

      iter #   1 total cpu time :    12.6 secs   av.it.:   5.4
      thresh= 1.000E-02 alpha_mix =  0.700 |ddv_scf|^2 =  1.457E-06

     Pert. #  1: Fermi energy shift (Ry) =    -5.8161E-26    -1.2245E-40
     Pert. #  2: Fermi energy shift (Ry) =    -2.1541E-26    -3.0612E-41
     Pert. #  3: Fermi energy shift (Ry) =     5.1699E-26     6.1224E-41

      iter #   2 total cpu time :    24.1 secs   av.it.:   8.4
      thresh= 1.207E-04 alpha_mix =  0.700 |ddv_scf|^2 =  2.730E-08

     Pert. #  1: Fermi energy shift (Ry) =     8.6165E-27     2.6785E-41
     Pert. #  2: Fermi energy shift (Ry) =    -6.8932E-26     7.6530E-42
     Pert. #  3: Fermi energy shift (Ry) =     7.9702E-26     3.0612E-41

      iter #   3 total cpu time :    36.4 secs   av.it.:   8.5
      thresh= 1.652E-05 alpha_mix =  0.700 |ddv_scf|^2 =  5.525E-10

     Pert. #  1: Fermi energy shift (Ry) =     5.6007E-26    -1.5306E-41
     Pert. #  2: Fermi energy shift (Ry) =     6.4623E-27     0.0000E+00
     Pert. #  3: Fermi energy shift (Ry) =     2.8004E-26     3.0612E-41

      iter #   4 total cpu time :    47.6 secs   av.it.:   7.9
      thresh= 2.351E-06 alpha_mix =  0.700 |ddv_scf|^2 =  1.861E-12

     Pert. #  1: Fermi energy shift (Ry) =     8.6165E-26     1.4349E-42
     Pert. #  2: Fermi energy shift (Ry) =    -3.8774E-26    -7.1746E-43
     Pert. #  3: Fermi energy shift (Ry) =    -9.6935E-27     9.5662E-43

      iter #   5 total cpu time :    59.2 secs   av.it.:   8.4
      thresh= 1.364E-07 alpha_mix =  0.700 |ddv_scf|^2 =  4.034E-15

     End of self-consistent calculation

     Convergence has been achieved 

     Number of q in the star =    1
     List of q in the star:
          1   0.000000000   0.000000000   0.000000000

     Diagonalizing the dynamical matrix

     q = (    0.000000000   0.000000000   0.000000000 ) 

 **************************************************************************
     freq (    1) =      -0.398669 [THz] =     -13.298153 [cm-1]
     freq (    2) =      -0.398669 [THz] =     -13.298153 [cm-1]
     freq (    3) =      -0.398669 [THz] =     -13.298153 [cm-1]
 **************************************************************************

     Mode symmetry, O_h (m-3m)  point group:

     freq (  1 -  3) =        -13.3  [cm-1]   --> T_1u G_15  G_4- I  

     Calculation of q =   -0.1250000   0.1250000  -0.1250000

   Info: using nr1, nr2, nr3 values from input

   Info: using nr1, nr2, nr3 values from input

     Parallelization info
     --------------------
     sticks:   dense  smooth     PW     G-vecs:    dense   smooth      PW
     Min         267     136     46                 5821     2072     420
     Max         268     137     47                 5825     2073     423
     Sum        1069     547    187                23289     8291    1687



     bravais-lattice index     =            2
     lattice parameter (alat)  =       9.8825  a.u.
     unit-cell volume          =     241.2875 (a.u.)^3
     number of atoms/cell      =            1
     number of atomic types    =            1
     number of electrons       =         9.00
     number of Kohn-Sham states=            9
     kinetic-energy cutoff     =      40.0000  Ry
     charge density cutoff     =     320.0000  Ry
     Exchange-correlation      = SLA  PW   PBE  PBE ( 1  4  3  4 0 0)

     celldm(1)=   9.882457  celldm(2)=   0.000000  celldm(3)=   0.000000
     celldm(4)=   0.000000  celldm(5)=   0.000000  celldm(6)=   0.000000

     crystal axes: (cart. coord. in units of alat)
               a(1) = (  -0.500000   0.000000   0.500000 )  
               a(2) = (   0.000000   0.500000   0.500000 )  
               a(3) = (  -0.500000   0.500000   0.000000 )  

     reciprocal axes: (cart. coord. in units 2 pi/alat)
               b(1) = ( -1.000000 -1.000000  1.000000 )  
               b(2) = (  1.000000  1.000000  1.000000 )  
               b(3) = ( -1.000000  1.000000 -1.000000 )  


     PseudoPot. # 1 for Na read from file:
     /home/s1333534/quantum_espresso/qe-6.1/pseudo/Na_pbe_v1.uspp.F.UPF
     MD5 check sum: 76a99c7e9422403d3e93cbc85ab7bccb
     Pseudo is Ultrasoft, Zval =  9.0
     Generated by new atomic code, or converted to UPF format
     Using radial grid of  819 points,  5 beta functions with: 
                l(1) =   0
                l(2) =   0
                l(3) =   1
                l(4) =   1
                l(5) =   2
     Q(r) pseudized with  8 coefficients,  rinner =    1.250   1.250   1.250
                                                       1.250   1.250

     atomic species   valence    mass     pseudopotential
        Na             9.00    22.99000     Na( 1.00)

     48 Sym. Ops., with inversion, found



   Cartesian axes

     site n.     atom                  positions (alat units)
         1           Na  tau(   1) = (   0.0000000   0.0000000   0.0000000  )

     number of k points=  4060  Marzari-Vanderbilt smearing, width (Ry)=  0.0200

     Number of k-points >= 100: set verbosity='high' to print them.

     Dense  grid:    23289 G-vectors     FFT dimensions: (  40,  40,  40)

     Smooth grid:     8291 G-vectors     FFT dimensions: (  30,  30,  30)

     Estimated max dynamical RAM per process >       2.18MB

     Estimated total allocated dynamical RAM >       8.72MB

     The potential is recalculated from file :
     ./_ph0/na.fcc.save/charge-density.dat

     Starting wfc are    5 atomic +    4 random wfc

     Band Structure Calculation
     Davidson diagonalization with overlap

     ethr =  1.11E-10,  avg # of iterations = 19.8

     total cpu time spent up to now is      135.2 secs

     End of band structure calculation

     Number of k-points >= 100: set verbosity='high' to print the bands.

     the Fermi energy is     1.7561 ev

     Writing output data file na.fcc.save

                                                                                

     bravais-lattice index     =            2
     lattice parameter (alat)  =       9.8825  a.u.
     unit-cell volume          =     241.2875 (a.u.)^3
     number of atoms/cell      =            1
     number of atomic types    =            1
     kinetic-energy cut-off    =      40.0000  Ry
     charge density cut-off    =     320.0000  Ry
     convergence threshold     =      1.0E-12
     beta                      =       0.7000
     number of iterations used =            4
     Exchange-correlation      = SLA  PW   PBE  PBE ( 1  4  3  4 0 0)


     celldm(1)=    9.88246  celldm(2)=    0.00000  celldm(3)=    0.00000
     celldm(4)=    0.00000  celldm(5)=    0.00000  celldm(6)=    0.00000

     crystal axes: (cart. coord. in units of alat)
               a(1) = ( -0.5000  0.0000  0.5000 )  
               a(2) = (  0.0000  0.5000  0.5000 )  
               a(3) = ( -0.5000  0.5000  0.0000 )  

     reciprocal axes: (cart. coord. in units 2 pi/alat)
               b(1) = ( -1.0000 -1.0000  1.0000 )  
               b(2) = (  1.0000  1.0000  1.0000 )  
               b(3) = ( -1.0000  1.0000 -1.0000 )  


     Atoms inside the unit cell: 

     Cartesian axes

     site n.  atom      mass           positions (alat units)
        1     Na  22.9900   tau(    1) = (    0.00000    0.00000    0.00000  )

     Computing dynamical matrix for 
                    q = (  -0.1250000   0.1250000  -0.1250000 )

      6 Sym.Ops. (no q -> -q+G )


     G cutoff =  791.6262  (   5825 G-vectors)     FFT grid: ( 40, 40, 40)
     G cutoff =  395.8131  (   2073 G-vectors)  smooth grid: ( 30, 30, 30)

     number of k points=  4060  Marzari-Vanderbilt smearing, width (Ry)=  0.0200

     PseudoPot. # 1 for Na read from file:
     /home/s1333534/quantum_espresso/qe-6.1/pseudo/Na_pbe_v1.uspp.F.UPF
     MD5 check sum: 76a99c7e9422403d3e93cbc85ab7bccb
     Pseudo is Ultrasoft, Zval =  9.0
     Generated by new atomic code, or converted to UPF format
     Using radial grid of  819 points,  5 beta functions with: 
                l(1) =   0
                l(2) =   0
                l(3) =   1
                l(4) =   1
                l(5) =   2
     Q(r) pseudized with  8 coefficients,  rinner =    1.250   1.250   1.250
                                                       1.250   1.250

     Mode symmetry, C_3v (3m)   point group:


     Atomic displacements:
     There are   2 irreducible representations

     Representation     1      1 modes -A_1  L_1  To be done

     Representation     2      2 modes -E    L_3  To be done



     Alpha used in Ewald sum =   2.8000
     PHONON       :  3m16.09s CPU     3m27.69s WALL



     Representation #  1 mode #   1

     Self-consistent Calculation

      iter #   1 total cpu time :   231.1 secs   av.it.:   5.7
      thresh= 1.000E-02 alpha_mix =  0.700 |ddv_scf|^2 =  2.216E-01

      iter #   2 total cpu time :   257.4 secs   av.it.:   6.9
      thresh= 1.000E-02 alpha_mix =  0.700 |ddv_scf|^2 =  1.219E+02

      iter #   3 total cpu time :   281.6 secs   av.it.:   6.9
      thresh= 1.000E-02 alpha_mix =  0.700 |ddv_scf|^2 =  4.498E-04

      iter #   4 total cpu time :   300.4 secs   av.it.:   5.0
      thresh= 2.121E-03 alpha_mix =  0.700 |ddv_scf|^2 =  1.724E-07

      iter #   5 total cpu time :   325.4 secs   av.it.:   7.3
      thresh= 4.153E-05 alpha_mix =  0.700 |ddv_scf|^2 =  4.934E-08

      iter #   6 total cpu time :   343.2 secs   av.it.:   4.5
      thresh= 2.221E-05 alpha_mix =  0.700 |ddv_scf|^2 =  3.248E-07

      iter #   7 total cpu time :   362.9 secs   av.it.:   5.3
      thresh= 5.699E-05 alpha_mix =  0.700 |ddv_scf|^2 =  6.149E-11

      iter #   8 total cpu time :   389.5 secs   av.it.:   7.8
      thresh= 7.841E-07 alpha_mix =  0.700 |ddv_scf|^2 =  1.149E-12

      iter #   9 total cpu time :   416.5 secs   av.it.:   8.2
      thresh= 1.072E-07 alpha_mix =  0.700 |ddv_scf|^2 =  5.110E-14

     End of self-consistent calculation

     Convergence has been achieved 


     Representation #  2 modes #   2  3

     Self-consistent Calculation

      iter #   1 total cpu time :   463.8 secs   av.it.:   5.5
      thresh= 1.000E-02 alpha_mix =  0.700 |ddv_scf|^2 =  3.310E-06

      iter #   2 total cpu time :   518.0 secs   av.it.:   8.3
      thresh= 1.819E-04 alpha_mix =  0.700 |ddv_scf|^2 =  6.118E-08

      iter #   3 total cpu time :   574.2 secs   av.it.:   8.5
      thresh= 2.473E-05 alpha_mix =  0.700 |ddv_scf|^2 =  1.345E-09

      iter #   4 total cpu time :   627.7 secs   av.it.:   8.1
      thresh= 3.668E-06 alpha_mix =  0.700 |ddv_scf|^2 =  4.517E-12

      iter #   5 total cpu time :   683.2 secs   av.it.:   8.6
      thresh= 2.125E-07 alpha_mix =  0.700 |ddv_scf|^2 =  8.964E-15

     End of self-consistent calculation

     Convergence has been achieved 

     Number of q in the star =    8
     List of q in the star:
          1  -0.125000000   0.125000000  -0.125000000
          2   0.125000000  -0.125000000  -0.125000000
          3   0.125000000  -0.125000000   0.125000000
          4  -0.125000000   0.125000000   0.125000000
          5   0.125000000   0.125000000  -0.125000000
          6  -0.125000000  -0.125000000  -0.125000000
          7  -0.125000000  -0.125000000   0.125000000
          8   0.125000000   0.125000000   0.125000000

     Diagonalizing the dynamical matrix

     q = (   -0.125000000   0.125000000  -0.125000000 ) 

 **************************************************************************
     freq (    1) =       0.230158 [THz] =       7.677260 [cm-1]
     freq (    2) =       0.230158 [THz] =       7.677260 [cm-1]
     freq (    3) =       2.007342 [THz] =      66.957710 [cm-1]
 **************************************************************************

     Mode symmetry, C_3v (3m)   point group:

     freq (  1 -  2) =          7.7  [cm-1]   --> E    L_3           
     freq (  3 -  3) =         67.0  [cm-1]   --> A_1  L_1           

     Calculation of q =   -0.2500000   0.2500000  -0.2500000

   Info: using nr1, nr2, nr3 values from input

   Info: using nr1, nr2, nr3 values from input

     Parallelization info
     --------------------
     sticks:   dense  smooth     PW     G-vecs:    dense   smooth      PW
     Min         267     136     49                 5821     2072     451
     Max         268     137     50                 5825     2073     453
     Sum        1069     547    199                23289     8291    1807



     bravais-lattice index     =            2
     lattice parameter (alat)  =       9.8825  a.u.
     unit-cell volume          =     241.2875 (a.u.)^3
     number of atoms/cell      =            1
     number of atomic types    =            1
     number of electrons       =         9.00
     number of Kohn-Sham states=            9
     kinetic-energy cutoff     =      40.0000  Ry
     charge density cutoff     =     320.0000  Ry
     Exchange-correlation      = SLA  PW   PBE  PBE ( 1  4  3  4 0 0)

     celldm(1)=   9.882457  celldm(2)=   0.000000  celldm(3)=   0.000000
     celldm(4)=   0.000000  celldm(5)=   0.000000  celldm(6)=   0.000000

     crystal axes: (cart. coord. in units of alat)
               a(1) = (  -0.500000   0.000000   0.500000 )  
               a(2) = (   0.000000   0.500000   0.500000 )  
               a(3) = (  -0.500000   0.500000   0.000000 )  

     reciprocal axes: (cart. coord. in units 2 pi/alat)
               b(1) = ( -1.000000 -1.000000  1.000000 )  
               b(2) = (  1.000000  1.000000  1.000000 )  
               b(3) = ( -1.000000  1.000000 -1.000000 )  


     PseudoPot. # 1 for Na read from file:
     /home/s1333534/quantum_espresso/qe-6.1/pseudo/Na_pbe_v1.uspp.F.UPF
     MD5 check sum: 76a99c7e9422403d3e93cbc85ab7bccb
     Pseudo is Ultrasoft, Zval =  9.0
     Generated by new atomic code, or converted to UPF format
     Using radial grid of  819 points,  5 beta functions with: 
                l(1) =   0
                l(2) =   0
                l(3) =   1
                l(4) =   1
                l(5) =   2
     Q(r) pseudized with  8 coefficients,  rinner =    1.250   1.250   1.250
                                                       1.250   1.250

     atomic species   valence    mass     pseudopotential
        Na             9.00    22.99000     Na( 1.00)

     48 Sym. Ops., with inversion, found



   Cartesian axes

     site n.     atom                  positions (alat units)
         1           Na  tau(   1) = (   0.0000000   0.0000000   0.0000000  )

     number of k points=  4060  Marzari-Vanderbilt smearing, width (Ry)=  0.0200

     Number of k-points >= 100: set verbosity='high' to print them.

     Dense  grid:    23289 G-vectors     FFT dimensions: (  40,  40,  40)

     Smooth grid:     8291 G-vectors     FFT dimensions: (  30,  30,  30)

     Estimated max dynamical RAM per process >       2.18MB

     Estimated total allocated dynamical RAM >       8.72MB

     The potential is recalculated from file :
     ./_ph0/na.fcc.save/charge-density.dat

     Starting wfc are    5 atomic +    4 random wfc

     Band Structure Calculation
     Davidson diagonalization with overlap

     ethr =  1.11E-10,  avg # of iterations = 19.7

     total cpu time spent up to now is      273.8 secs

     End of band structure calculation

     Number of k-points >= 100: set verbosity='high' to print the bands.

     the Fermi energy is     1.7561 ev

     Writing output data file na.fcc.save

                                                                                

     bravais-lattice index     =            2
     lattice parameter (alat)  =       9.8825  a.u.
     unit-cell volume          =     241.2875 (a.u.)^3
     number of atoms/cell      =            1
     number of atomic types    =            1
     kinetic-energy cut-off    =      40.0000  Ry
     charge density cut-off    =     320.0000  Ry
     convergence threshold     =      1.0E-12
     beta                      =       0.7000
     number of iterations used =            4
     Exchange-correlation      = SLA  PW   PBE  PBE ( 1  4  3  4 0 0)


     celldm(1)=    9.88246  celldm(2)=    0.00000  celldm(3)=    0.00000
     celldm(4)=    0.00000  celldm(5)=    0.00000  celldm(6)=    0.00000

     crystal axes: (cart. coord. in units of alat)
               a(1) = ( -0.5000  0.0000  0.5000 )  
               a(2) = (  0.0000  0.5000  0.5000 )  
               a(3) = ( -0.5000  0.5000  0.0000 )  

     reciprocal axes: (cart. coord. in units 2 pi/alat)
               b(1) = ( -1.0000 -1.0000  1.0000 )  
               b(2) = (  1.0000  1.0000  1.0000 )  
               b(3) = ( -1.0000  1.0000 -1.0000 )  


     Atoms inside the unit cell: 

     Cartesian axes

     site n.  atom      mass           positions (alat units)
        1     Na  22.9900   tau(    1) = (    0.00000    0.00000    0.00000  )

     Computing dynamical matrix for 
                    q = (  -0.2500000   0.2500000  -0.2500000 )

      6 Sym.Ops. (no q -> -q+G )


     G cutoff =  791.6262  (   5822 G-vectors)     FFT grid: ( 40, 40, 40)
     G cutoff =  395.8131  (   2073 G-vectors)  smooth grid: ( 30, 30, 30)

     number of k points=  4060  Marzari-Vanderbilt smearing, width (Ry)=  0.0200

     PseudoPot. # 1 for Na read from file:
     /home/s1333534/quantum_espresso/qe-6.1/pseudo/Na_pbe_v1.uspp.F.UPF
     MD5 check sum: 76a99c7e9422403d3e93cbc85ab7bccb
     Pseudo is Ultrasoft, Zval =  9.0
     Generated by new atomic code, or converted to UPF format
     Using radial grid of  819 points,  5 beta functions with: 
                l(1) =   0
                l(2) =   0
                l(3) =   1
                l(4) =   1
                l(5) =   2
     Q(r) pseudized with  8 coefficients,  rinner =    1.250   1.250   1.250
                                                       1.250   1.250

     Mode symmetry, C_3v (3m)   point group:


     Atomic displacements:
     There are   2 irreducible representations

     Representation     1      1 modes -A_1  L_1  To be done

     Representation     2      2 modes -E    L_3  To be done



     Alpha used in Ewald sum =   2.8000
     PHONON       : 12m57.66s CPU    13m52.75s WALL



     Representation #  1 mode #   1

     Self-consistent Calculation

      iter #   1 total cpu time :   856.3 secs   av.it.:   5.7
      thresh= 1.000E-02 alpha_mix =  0.700 |ddv_scf|^2 =  3.545E-03

      iter #   2 total cpu time :   879.0 secs   av.it.:   6.1
      thresh= 5.954E-03 alpha_mix =  0.700 |ddv_scf|^2 =  9.598E-02

      iter #   3 total cpu time :   899.9 secs   av.it.:   5.7
      thresh= 1.000E-02 alpha_mix =  0.700 |ddv_scf|^2 =  2.510E-06

      iter #   4 total cpu time :   925.2 secs   av.it.:   7.4
      thresh= 1.584E-04 alpha_mix =  0.700 |ddv_scf|^2 =  1.268E-08

      iter #   5 total cpu time :   952.5 secs   av.it.:   8.1
      thresh= 1.126E-05 alpha_mix =  0.700 |ddv_scf|^2 =  1.173E-09

      iter #   6 total cpu time :   979.4 secs   av.it.:   7.9
      thresh= 3.425E-06 alpha_mix =  0.700 |ddv_scf|^2 =  4.370E-11

      iter #   7 total cpu time :  1006.3 secs   av.it.:   8.0
      thresh= 6.610E-07 alpha_mix =  0.700 |ddv_scf|^2 =  4.053E-10

      iter #   8 total cpu time :  1026.8 secs   av.it.:   5.6
      thresh= 2.013E-06 alpha_mix =  0.700 |ddv_scf|^2 =  4.429E-12

      iter #   9 total cpu time :  1052.1 secs   av.it.:   7.4
      thresh= 2.105E-07 alpha_mix =  0.700 |ddv_scf|^2 =  1.343E-12

      iter #  10 total cpu time :  1075.7 secs   av.it.:   6.7
      thresh= 1.159E-07 alpha_mix =  0.700 |ddv_scf|^2 =  1.938E-13

     End of self-consistent calculation

     Convergence has been achieved 


     Representation #  2 modes #   2  3

     Self-consistent Calculation

      iter #   1 total cpu time :  1123.8 secs   av.it.:   5.6
      thresh= 1.000E-02 alpha_mix =  0.700 |ddv_scf|^2 =  3.385E-06

      iter #   2 total cpu time :  1179.1 secs   av.it.:   8.3
      thresh= 1.840E-04 alpha_mix =  0.700 |ddv_scf|^2 =  6.076E-08

      iter #   3 total cpu time :  1235.2 secs   av.it.:   8.6
      thresh= 2.465E-05 alpha_mix =  0.700 |ddv_scf|^2 =  1.581E-09

      iter #   4 total cpu time :  1289.6 secs   av.it.:   8.1
      thresh= 3.976E-06 alpha_mix =  0.700 |ddv_scf|^2 =  5.285E-12

      iter #   5 total cpu time :  1346.1 secs   av.it.:   8.6
      thresh= 2.299E-07 alpha_mix =  0.700 |ddv_scf|^2 =  9.106E-15

     End of self-consistent calculation

     Convergence has been achieved 

     Number of q in the star =    8
     List of q in the star:
          1  -0.250000000   0.250000000  -0.250000000
          2   0.250000000  -0.250000000  -0.250000000
          3   0.250000000  -0.250000000   0.250000000
          4  -0.250000000   0.250000000   0.250000000
          5   0.250000000   0.250000000  -0.250000000
          6  -0.250000000  -0.250000000  -0.250000000
          7  -0.250000000  -0.250000000   0.250000000
          8   0.250000000   0.250000000   0.250000000

     Diagonalizing the dynamical matrix

     q = (   -0.250000000   0.250000000  -0.250000000 ) 

 **************************************************************************
     freq (    1) =       0.980644 [THz] =      32.710751 [cm-1]
     freq (    2) =       0.980644 [THz] =      32.710751 [cm-1]
     freq (    3) =       3.052252 [THz] =     101.812178 [cm-1]
 **************************************************************************

     Mode symmetry, C_3v (3m)   point group:

     freq (  1 -  2) =         32.7  [cm-1]   --> E    L_3           
     freq (  3 -  3) =        101.8  [cm-1]   --> A_1  L_1           

     Calculation of q =   -0.3750000   0.3750000  -0.3750000

   Info: using nr1, nr2, nr3 values from input

   Info: using nr1, nr2, nr3 values from input

     Parallelization info
     --------------------
     sticks:   dense  smooth     PW     G-vecs:    dense   smooth      PW
     Min         267     136     49                 5821     2072     457
     Max         268     138     50                 5825     2073     460
     Sum        1069     547    199                23289     8291    1837



     bravais-lattice index     =            2
     lattice parameter (alat)  =       9.8825  a.u.
     unit-cell volume          =     241.2875 (a.u.)^3
     number of atoms/cell      =            1
     number of atomic types    =            1
     number of electrons       =         9.00
     number of Kohn-Sham states=            9
     kinetic-energy cutoff     =      40.0000  Ry
     charge density cutoff     =     320.0000  Ry
     Exchange-correlation      = SLA  PW   PBE  PBE ( 1  4  3  4 0 0)

     celldm(1)=   9.882457  celldm(2)=   0.000000  celldm(3)=   0.000000
     celldm(4)=   0.000000  celldm(5)=   0.000000  celldm(6)=   0.000000

     crystal axes: (cart. coord. in units of alat)
               a(1) = (  -0.500000   0.000000   0.500000 )  
               a(2) = (   0.000000   0.500000   0.500000 )  
               a(3) = (  -0.500000   0.500000   0.000000 )  

     reciprocal axes: (cart. coord. in units 2 pi/alat)
               b(1) = ( -1.000000 -1.000000  1.000000 )  
               b(2) = (  1.000000  1.000000  1.000000 )  
               b(3) = ( -1.000000  1.000000 -1.000000 )  


     PseudoPot. # 1 for Na read from file:
     /home/s1333534/quantum_espresso/qe-6.1/pseudo/Na_pbe_v1.uspp.F.UPF
     MD5 check sum: 76a99c7e9422403d3e93cbc85ab7bccb
     Pseudo is Ultrasoft, Zval =  9.0
     Generated by new atomic code, or converted to UPF format
     Using radial grid of  819 points,  5 beta functions with: 
                l(1) =   0
                l(2) =   0
                l(3) =   1
                l(4) =   1
                l(5) =   2
     Q(r) pseudized with  8 coefficients,  rinner =    1.250   1.250   1.250
                                                       1.250   1.250

     atomic species   valence    mass     pseudopotential
        Na             9.00    22.99000     Na( 1.00)

     48 Sym. Ops., with inversion, found



   Cartesian axes

     site n.     atom                  positions (alat units)
         1           Na  tau(   1) = (   0.0000000   0.0000000   0.0000000  )

     number of k points=  4060  Marzari-Vanderbilt smearing, width (Ry)=  0.0200

     Number of k-points >= 100: set verbosity='high' to print them.

     Dense  grid:    23289 G-vectors     FFT dimensions: (  40,  40,  40)

     Smooth grid:     8291 G-vectors     FFT dimensions: (  30,  30,  30)

     Estimated max dynamical RAM per process >       2.18MB

     Estimated total allocated dynamical RAM >       8.72MB

     The potential is recalculated from file :
     ./_ph0/na.fcc.save/charge-density.dat

     Starting wfc are    5 atomic +    4 random wfc

     Band Structure Calculation
     Davidson diagonalization with overlap

     ethr =  1.11E-10,  avg # of iterations = 19.8

     total cpu time spent up to now is      412.4 secs

     End of band structure calculation

     Number of k-points >= 100: set verbosity='high' to print the bands.

     the Fermi energy is     1.7561 ev

     Writing output data file na.fcc.save

                                                                                

     bravais-lattice index     =            2
     lattice parameter (alat)  =       9.8825  a.u.
     unit-cell volume          =     241.2875 (a.u.)^3
     number of atoms/cell      =            1
     number of atomic types    =            1
     kinetic-energy cut-off    =      40.0000  Ry
     charge density cut-off    =     320.0000  Ry
     convergence threshold     =      1.0E-12
     beta                      =       0.7000
     number of iterations used =            4
     Exchange-correlation      = SLA  PW   PBE  PBE ( 1  4  3  4 0 0)


     celldm(1)=    9.88246  celldm(2)=    0.00000  celldm(3)=    0.00000
     celldm(4)=    0.00000  celldm(5)=    0.00000  celldm(6)=    0.00000

     crystal axes: (cart. coord. in units of alat)
               a(1) = ( -0.5000  0.0000  0.5000 )  
               a(2) = (  0.0000  0.5000  0.5000 )  
               a(3) = ( -0.5000  0.5000  0.0000 )  

     reciprocal axes: (cart. coord. in units 2 pi/alat)
               b(1) = ( -1.0000 -1.0000  1.0000 )  
               b(2) = (  1.0000  1.0000  1.0000 )  
               b(3) = ( -1.0000  1.0000 -1.0000 )  


     Atoms inside the unit cell: 

     Cartesian axes

     site n.  atom      mass           positions (alat units)
        1     Na  22.9900   tau(    1) = (    0.00000    0.00000    0.00000  )

     Computing dynamical matrix for 
                    q = (  -0.3750000   0.3750000  -0.3750000 )

      6 Sym.Ops. (no q -> -q+G )


     G cutoff =  791.6262  (   5822 G-vectors)     FFT grid: ( 40, 40, 40)
     G cutoff =  395.8131  (   2073 G-vectors)  smooth grid: ( 30, 30, 30)

     number of k points=  4060  Marzari-Vanderbilt smearing, width (Ry)=  0.0200

     PseudoPot. # 1 for Na read from file:
     /home/s1333534/quantum_espresso/qe-6.1/pseudo/Na_pbe_v1.uspp.F.UPF
     MD5 check sum: 76a99c7e9422403d3e93cbc85ab7bccb
     Pseudo is Ultrasoft, Zval =  9.0
     Generated by new atomic code, or converted to UPF format
     Using radial grid of  819 points,  5 beta functions with: 
                l(1) =   0
                l(2) =   0
                l(3) =   1
                l(4) =   1
                l(5) =   2
     Q(r) pseudized with  8 coefficients,  rinner =    1.250   1.250   1.250
                                                       1.250   1.250

     Mode symmetry, C_3v (3m)   point group:


     Atomic displacements:
     There are   2 irreducible representations

     Representation     1      1 modes -A_1  L_1  To be done

     Representation     2      2 modes -E    L_3  To be done



     Alpha used in Ewald sum =   2.8000
     PHONON       : 23m14.12s CPU    24m55.62s WALL



     Representation #  1 mode #   1

     Self-consistent Calculation

      iter #   1 total cpu time :  1519.3 secs   av.it.:   5.7
      thresh= 1.000E-02 alpha_mix =  0.700 |ddv_scf|^2 =  3.541E-04

      iter #   2 total cpu time :  1543.2 secs   av.it.:   6.6
      thresh= 1.882E-03 alpha_mix =  0.700 |ddv_scf|^2 =  1.202E-03

      iter #   3 total cpu time :  1564.7 secs   av.it.:   6.0
      thresh= 3.467E-03 alpha_mix =  0.700 |ddv_scf|^2 =  5.743E-07

      iter #   4 total cpu time :  1590.6 secs   av.it.:   7.7
      thresh= 7.578E-05 alpha_mix =  0.700 |ddv_scf|^2 =  1.506E-08

      iter #   5 total cpu time :  1617.9 secs   av.it.:   8.1
      thresh= 1.227E-05 alpha_mix =  0.700 |ddv_scf|^2 =  3.671E-10

      iter #   6 total cpu time :  1645.0 secs   av.it.:   8.0
      thresh= 1.916E-06 alpha_mix =  0.700 |ddv_scf|^2 =  2.567E-11

      iter #   7 total cpu time :  1670.8 secs   av.it.:   7.7
      thresh= 5.067E-07 alpha_mix =  0.700 |ddv_scf|^2 =  1.495E-12

      iter #   8 total cpu time :  1697.6 secs   av.it.:   8.1
      thresh= 1.223E-07 alpha_mix =  0.700 |ddv_scf|^2 =  6.497E-14

     End of self-consistent calculation

     Convergence has been achieved 


     Representation #  2 modes #   2  3

     Self-consistent Calculation

      iter #   1 total cpu time :  1746.7 secs   av.it.:   5.6
      thresh= 1.000E-02 alpha_mix =  0.700 |ddv_scf|^2 =  3.456E-06

      iter #   2 total cpu time :  1801.7 secs   av.it.:   8.3
      thresh= 1.859E-04 alpha_mix =  0.700 |ddv_scf|^2 =  6.045E-08

      iter #   3 total cpu time :  1858.5 secs   av.it.:   8.6
      thresh= 2.459E-05 alpha_mix =  0.700 |ddv_scf|^2 =  1.793E-09

      iter #   4 total cpu time :  1912.8 secs   av.it.:   8.1
      thresh= 4.235E-06 alpha_mix =  0.700 |ddv_scf|^2 =  5.949E-12

      iter #   5 total cpu time :  1969.4 secs   av.it.:   8.6
      thresh= 2.439E-07 alpha_mix =  0.700 |ddv_scf|^2 =  9.372E-15

     End of self-consistent calculation

     Convergence has been achieved 

     Number of q in the star =    8
     List of q in the star:
          1  -0.375000000   0.375000000  -0.375000000
          2   0.375000000  -0.375000000  -0.375000000
          3   0.375000000  -0.375000000   0.375000000
          4  -0.375000000   0.375000000   0.375000000
          5   0.375000000   0.375000000  -0.375000000
          6  -0.375000000  -0.375000000  -0.375000000
          7  -0.375000000  -0.375000000   0.375000000
          8   0.375000000   0.375000000   0.375000000

     Diagonalizing the dynamical matrix

     q = (   -0.375000000   0.375000000  -0.375000000 ) 

 **************************************************************************
     freq (    1) =       1.393312 [THz] =      46.475871 [cm-1]
     freq (    2) =       1.393312 [THz] =      46.475871 [cm-1]
     freq (    3) =       3.857549 [THz] =     128.673971 [cm-1]
 **************************************************************************

     Mode symmetry, C_3v (3m)   point group:

     freq (  1 -  2) =         46.5  [cm-1]   --> E    L_3           
     freq (  3 -  3) =        128.7  [cm-1]   --> A_1  L_1           

     Calculation of q =    0.5000000  -0.5000000   0.5000000

   Info: using nr1, nr2, nr3 values from input

   Info: using nr1, nr2, nr3 values from input

     Parallelization info
     --------------------
     sticks:   dense  smooth     PW     G-vecs:    dense   smooth      PW
     Min         267     136     49                 5821     2072     477
     Max         268     137     50                 5825     2073     481
     Sum        1069     547    199                23289     8291    1917



     bravais-lattice index     =            2
     lattice parameter (alat)  =       9.8825  a.u.
     unit-cell volume          =     241.2875 (a.u.)^3
     number of atoms/cell      =            1
     number of atomic types    =            1
     number of electrons       =         9.00
     number of Kohn-Sham states=            9
     kinetic-energy cutoff     =      40.0000  Ry
     charge density cutoff     =     320.0000  Ry
     Exchange-correlation      = SLA  PW   PBE  PBE ( 1  4  3  4 0 0)

     celldm(1)=   9.882457  celldm(2)=   0.000000  celldm(3)=   0.000000
     celldm(4)=   0.000000  celldm(5)=   0.000000  celldm(6)=   0.000000

     crystal axes: (cart. coord. in units of alat)
               a(1) = (  -0.500000   0.000000   0.500000 )  
               a(2) = (   0.000000   0.500000   0.500000 )  
               a(3) = (  -0.500000   0.500000   0.000000 )  

     reciprocal axes: (cart. coord. in units 2 pi/alat)
               b(1) = ( -1.000000 -1.000000  1.000000 )  
               b(2) = (  1.000000  1.000000  1.000000 )  
               b(3) = ( -1.000000  1.000000 -1.000000 )  


     PseudoPot. # 1 for Na read from file:
     /home/s1333534/quantum_espresso/qe-6.1/pseudo/Na_pbe_v1.uspp.F.UPF
     MD5 check sum: 76a99c7e9422403d3e93cbc85ab7bccb
     Pseudo is Ultrasoft, Zval =  9.0
     Generated by new atomic code, or converted to UPF format
     Using radial grid of  819 points,  5 beta functions with: 
                l(1) =   0
                l(2) =   0
                l(3) =   1
                l(4) =   1
                l(5) =   2
     Q(r) pseudized with  8 coefficients,  rinner =    1.250   1.250   1.250
                                                       1.250   1.250

     atomic species   valence    mass     pseudopotential
        Na             9.00    22.99000     Na( 1.00)

     48 Sym. Ops., with inversion, found



   Cartesian axes

     site n.     atom                  positions (alat units)
         1           Na  tau(   1) = (   0.0000000   0.0000000   0.0000000  )

     number of k points=  2030  Marzari-Vanderbilt smearing, width (Ry)=  0.0200

     Number of k-points >= 100: set verbosity='high' to print them.

     Dense  grid:    23289 G-vectors     FFT dimensions: (  40,  40,  40)

     Smooth grid:     8291 G-vectors     FFT dimensions: (  30,  30,  30)

     Estimated max dynamical RAM per process >       2.18MB

     Estimated total allocated dynamical RAM >       8.72MB

     The potential is recalculated from file :
     ./_ph0/na.fcc.save/charge-density.dat

     Starting wfc are    5 atomic +    4 random wfc

     Band Structure Calculation
     Davidson diagonalization with overlap

     ethr =  1.11E-10,  avg # of iterations = 19.8

     total cpu time spent up to now is      483.4 secs

     End of band structure calculation

     Number of k-points >= 100: set verbosity='high' to print the bands.

     the Fermi energy is     1.7561 ev

     Writing output data file na.fcc.save

                                                                                

     bravais-lattice index     =            2
     lattice parameter (alat)  =       9.8825  a.u.
     unit-cell volume          =     241.2875 (a.u.)^3
     number of atoms/cell      =            1
     number of atomic types    =            1
     kinetic-energy cut-off    =      40.0000  Ry
     charge density cut-off    =     320.0000  Ry
     convergence threshold     =      1.0E-12
     beta                      =       0.7000
     number of iterations used =            4
     Exchange-correlation      = SLA  PW   PBE  PBE ( 1  4  3  4 0 0)


     celldm(1)=    9.88246  celldm(2)=    0.00000  celldm(3)=    0.00000
     celldm(4)=    0.00000  celldm(5)=    0.00000  celldm(6)=    0.00000

     crystal axes: (cart. coord. in units of alat)
               a(1) = ( -0.5000  0.0000  0.5000 )  
               a(2) = (  0.0000  0.5000  0.5000 )  
               a(3) = ( -0.5000  0.5000  0.0000 )  

     reciprocal axes: (cart. coord. in units 2 pi/alat)
               b(1) = ( -1.0000 -1.0000  1.0000 )  
               b(2) = (  1.0000  1.0000  1.0000 )  
               b(3) = ( -1.0000  1.0000 -1.0000 )  


     Atoms inside the unit cell: 

     Cartesian axes

     site n.  atom      mass           positions (alat units)
        1     Na  22.9900   tau(    1) = (    0.00000    0.00000    0.00000  )

     Computing dynamical matrix for 
                    q = (   0.5000000  -0.5000000   0.5000000 )

     13 Sym.Ops. (with q -> -q+G )


     G cutoff =  791.6262  (   5822 G-vectors)     FFT grid: ( 40, 40, 40)
     G cutoff =  395.8131  (   2073 G-vectors)  smooth grid: ( 30, 30, 30)

     number of k points=  2030  Marzari-Vanderbilt smearing, width (Ry)=  0.0200

     PseudoPot. # 1 for Na read from file:
     /home/s1333534/quantum_espresso/qe-6.1/pseudo/Na_pbe_v1.uspp.F.UPF
     MD5 check sum: 76a99c7e9422403d3e93cbc85ab7bccb
     Pseudo is Ultrasoft, Zval =  9.0
     Generated by new atomic code, or converted to UPF format
     Using radial grid of  819 points,  5 beta functions with: 
                l(1) =   0
                l(2) =   0
                l(3) =   1
                l(4) =   1
                l(5) =   2
     Q(r) pseudized with  8 coefficients,  rinner =    1.250   1.250   1.250
                                                       1.250   1.250

     Mode symmetry, D_3d (-3m)  point group:


     Atomic displacements:
     There are   2 irreducible representations

     Representation     1      1 modes -A_2u L_2'  To be done

     Representation     2      2 modes -E_u  L_3'  To be done



     Alpha used in Ewald sum =   2.8000
     PHONON       : 31m44.08s CPU    34m 5.04s WALL



     Representation #  1 mode #   1

     Self-consistent Calculation

      iter #   1 total cpu time :  2057.0 secs   av.it.:   5.7
      thresh= 1.000E-02 alpha_mix =  0.700 |ddv_scf|^2 =  1.343E-04

      iter #   2 total cpu time :  2068.8 secs   av.it.:   6.8
      thresh= 1.159E-03 alpha_mix =  0.700 |ddv_scf|^2 =  8.318E-05

      iter #   3 total cpu time :  2080.4 secs   av.it.:   6.5
      thresh= 9.120E-04 alpha_mix =  0.700 |ddv_scf|^2 =  1.020E-07

      iter #   4 total cpu time :  2093.6 secs   av.it.:   7.8
      thresh= 3.193E-05 alpha_mix =  0.700 |ddv_scf|^2 =  4.125E-10

      iter #   5 total cpu time :  2105.6 secs   av.it.:   6.9
      thresh= 2.031E-06 alpha_mix =  0.700 |ddv_scf|^2 =  8.514E-12

      iter #   6 total cpu time :  2117.5 secs   av.it.:   6.5
      thresh= 2.918E-07 alpha_mix =  0.700 |ddv_scf|^2 =  2.342E-14

     End of self-consistent calculation

     Convergence has been achieved 


     Representation #  2 modes #   2  3

     Self-consistent Calculation

      iter #   1 total cpu time :  2140.8 secs   av.it.:   5.4
      thresh= 1.000E-02 alpha_mix =  0.700 |ddv_scf|^2 =  3.484E-06

      iter #   2 total cpu time :  2169.0 secs   av.it.:   8.1
      thresh= 1.867E-04 alpha_mix =  0.700 |ddv_scf|^2 =  6.030E-08

      iter #   3 total cpu time :  2196.8 secs   av.it.:   8.5
      thresh= 2.456E-05 alpha_mix =  0.700 |ddv_scf|^2 =  1.862E-09

      iter #   4 total cpu time :  2223.2 secs   av.it.:   7.7
      thresh= 4.315E-06 alpha_mix =  0.700 |ddv_scf|^2 =  6.244E-12

      iter #   5 total cpu time :  2250.6 secs   av.it.:   8.2
      thresh= 2.499E-07 alpha_mix =  0.700 |ddv_scf|^2 =  9.548E-15

     End of self-consistent calculation

     Convergence has been achieved 

     Number of q in the star =    4
     List of q in the star:
          1   0.500000000  -0.500000000   0.500000000
          2   0.500000000   0.500000000   0.500000000
          3  -0.500000000   0.500000000   0.500000000
          4   0.500000000   0.500000000  -0.500000000

     Diagonalizing the dynamical matrix

     q = (    0.500000000  -0.500000000   0.500000000 ) 

 **************************************************************************
     freq (    1) =       1.595193 [THz] =      53.209908 [cm-1]
     freq (    2) =       1.595193 [THz] =      53.209908 [cm-1]
     freq (    3) =       4.190119 [THz] =     139.767323 [cm-1]
 **************************************************************************

     Mode symmetry, D_3d (-3m)  point group:

     freq (  1 -  2) =         53.2  [cm-1]   --> E_u  L_3'          
     freq (  3 -  3) =        139.8  [cm-1]   --> A_2u L_2'          

     Calculation of q =    0.0000000   0.2500000   0.0000000

   Info: using nr1, nr2, nr3 values from input

   Info: using nr1, nr2, nr3 values from input

     Parallelization info
     --------------------
     sticks:   dense  smooth     PW     G-vecs:    dense   smooth      PW
     Min         267     136     46                 5821     2072     420
     Max         268     137     47                 5825     2073     423
     Sum        1069     547    187                23289     8291    1687



     bravais-lattice index     =            2
     lattice parameter (alat)  =       9.8825  a.u.
     unit-cell volume          =     241.2875 (a.u.)^3
     number of atoms/cell      =            1
     number of atomic types    =            1
     number of electrons       =         9.00
     number of Kohn-Sham states=            9
     kinetic-energy cutoff     =      40.0000  Ry
     charge density cutoff     =     320.0000  Ry
     Exchange-correlation      = SLA  PW   PBE  PBE ( 1  4  3  4 0 0)

     celldm(1)=   9.882457  celldm(2)=   0.000000  celldm(3)=   0.000000
     celldm(4)=   0.000000  celldm(5)=   0.000000  celldm(6)=   0.000000

     crystal axes: (cart. coord. in units of alat)
               a(1) = (  -0.500000   0.000000   0.500000 )  
               a(2) = (   0.000000   0.500000   0.500000 )  
               a(3) = (  -0.500000   0.500000   0.000000 )  

     reciprocal axes: (cart. coord. in units 2 pi/alat)
               b(1) = ( -1.000000 -1.000000  1.000000 )  
               b(2) = (  1.000000  1.000000  1.000000 )  
               b(3) = ( -1.000000  1.000000 -1.000000 )  


     PseudoPot. # 1 for Na read from file:
     /home/s1333534/quantum_espresso/qe-6.1/pseudo/Na_pbe_v1.uspp.F.UPF
     MD5 check sum: 76a99c7e9422403d3e93cbc85ab7bccb
     Pseudo is Ultrasoft, Zval =  9.0
     Generated by new atomic code, or converted to UPF format
     Using radial grid of  819 points,  5 beta functions with: 
                l(1) =   0
                l(2) =   0
                l(3) =   1
                l(4) =   1
                l(5) =   2
     Q(r) pseudized with  8 coefficients,  rinner =    1.250   1.250   1.250
                                                       1.250   1.250

     atomic species   valence    mass     pseudopotential
        Na             9.00    22.99000     Na( 1.00)

     48 Sym. Ops., with inversion, found



   Cartesian axes

     site n.     atom                  positions (alat units)
         1           Na  tau(   1) = (   0.0000000   0.0000000   0.0000000  )

     number of k points=  2940  Marzari-Vanderbilt smearing, width (Ry)=  0.0200

     Number of k-points >= 100: set verbosity='high' to print them.

     Dense  grid:    23289 G-vectors     FFT dimensions: (  40,  40,  40)

     Smooth grid:     8291 G-vectors     FFT dimensions: (  30,  30,  30)

     Estimated max dynamical RAM per process >       2.18MB

     Estimated total allocated dynamical RAM >       8.72MB

     The potential is recalculated from file :
     ./_ph0/na.fcc.save/charge-density.dat

     Starting wfc are    5 atomic +    4 random wfc

     Band Structure Calculation
     Davidson diagonalization with overlap

     ethr =  1.11E-10,  avg # of iterations = 19.7

     total cpu time spent up to now is      583.1 secs

     End of band structure calculation

     Number of k-points >= 100: set verbosity='high' to print the bands.

     the Fermi energy is     1.7561 ev

     Writing output data file na.fcc.save

                                                                                

     bravais-lattice index     =            2
     lattice parameter (alat)  =       9.8825  a.u.
     unit-cell volume          =     241.2875 (a.u.)^3
     number of atoms/cell      =            1
     number of atomic types    =            1
     kinetic-energy cut-off    =      40.0000  Ry
     charge density cut-off    =     320.0000  Ry
     convergence threshold     =      1.0E-12
     beta                      =       0.7000
     number of iterations used =            4
     Exchange-correlation      = SLA  PW   PBE  PBE ( 1  4  3  4 0 0)


     celldm(1)=    9.88246  celldm(2)=    0.00000  celldm(3)=    0.00000
     celldm(4)=    0.00000  celldm(5)=    0.00000  celldm(6)=    0.00000

     crystal axes: (cart. coord. in units of alat)
               a(1) = ( -0.5000  0.0000  0.5000 )  
               a(2) = (  0.0000  0.5000  0.5000 )  
               a(3) = ( -0.5000  0.5000  0.0000 )  

     reciprocal axes: (cart. coord. in units 2 pi/alat)
               b(1) = ( -1.0000 -1.0000  1.0000 )  
               b(2) = (  1.0000  1.0000  1.0000 )  
               b(3) = ( -1.0000  1.0000 -1.0000 )  


     Atoms inside the unit cell: 

     Cartesian axes

     site n.  atom      mass           positions (alat units)
        1     Na  22.9900   tau(    1) = (    0.00000    0.00000    0.00000  )

     Computing dynamical matrix for 
                    q = (   0.0000000   0.2500000   0.0000000 )

      8 Sym.Ops. (no q -> -q+G )


     G cutoff =  791.6262  (   5825 G-vectors)     FFT grid: ( 40, 40, 40)
     G cutoff =  395.8131  (   2073 G-vectors)  smooth grid: ( 30, 30, 30)

     number of k points=  2940  Marzari-Vanderbilt smearing, width (Ry)=  0.0200

     PseudoPot. # 1 for Na read from file:
     /home/s1333534/quantum_espresso/qe-6.1/pseudo/Na_pbe_v1.uspp.F.UPF
     MD5 check sum: 76a99c7e9422403d3e93cbc85ab7bccb
     Pseudo is Ultrasoft, Zval =  9.0
     Generated by new atomic code, or converted to UPF format
     Using radial grid of  819 points,  5 beta functions with: 
                l(1) =   0
                l(2) =   0
                l(3) =   1
                l(4) =   1
                l(5) =   2
     Q(r) pseudized with  8 coefficients,  rinner =    1.250   1.250   1.250
                                                       1.250   1.250

     Mode symmetry, C_4v (4mm)  point group:


     Atomic displacements:
     There are   2 irreducible representations

     Representation     1      1 modes -A_1  G_1 D_1  To be done

     Representation     2      2 modes -E    G_5 D_5  To be done



     Alpha used in Ewald sum =   2.8000
     PHONON       : 36m36.73s CPU    39m18.92s WALL



     Representation #  1 mode #   1

     Self-consistent Calculation

      iter #   1 total cpu time :  2375.8 secs   av.it.:   5.7
      thresh= 1.000E-02 alpha_mix =  0.700 |ddv_scf|^2 =  9.671E-02

      iter #   2 total cpu time :  2392.8 secs   av.it.:   6.8
      thresh= 1.000E-02 alpha_mix =  0.700 |ddv_scf|^2 =  3.021E+01

      iter #   3 total cpu time :  2410.0 secs   av.it.:   6.8
      thresh= 1.000E-02 alpha_mix =  0.700 |ddv_scf|^2 =  3.621E-05

      iter #   4 total cpu time :  2425.9 secs   av.it.:   6.2
      thresh= 6.018E-04 alpha_mix =  0.700 |ddv_scf|^2 =  1.455E-07

      iter #   5 total cpu time :  2444.0 secs   av.it.:   7.2
      thresh= 3.814E-05 alpha_mix =  0.700 |ddv_scf|^2 =  6.384E-09

      iter #   6 total cpu time :  2461.4 secs   av.it.:   6.9
      thresh= 7.990E-06 alpha_mix =  0.700 |ddv_scf|^2 =  3.446E-07

      iter #   7 total cpu time :  2474.8 secs   av.it.:   4.9
      thresh= 5.870E-05 alpha_mix =  0.700 |ddv_scf|^2 =  4.975E-11

      iter #   8 total cpu time :  2494.0 secs   av.it.:   8.0
      thresh= 7.053E-07 alpha_mix =  0.700 |ddv_scf|^2 =  1.419E-12

      iter #   9 total cpu time :  2513.2 secs   av.it.:   8.0
      thresh= 1.191E-07 alpha_mix =  0.700 |ddv_scf|^2 =  2.393E-13

     End of self-consistent calculation

     Convergence has been achieved 


     Representation #  2 modes #   2  3

     Self-consistent Calculation

      iter #   1 total cpu time :  2547.1 secs   av.it.:   5.5
      thresh= 1.000E-02 alpha_mix =  0.700 |ddv_scf|^2 =  3.410E-06

      iter #   2 total cpu time :  2587.0 secs   av.it.:   8.3
      thresh= 1.847E-04 alpha_mix =  0.700 |ddv_scf|^2 =  6.008E-08

      iter #   3 total cpu time :  2627.9 secs   av.it.:   8.5
      thresh= 2.451E-05 alpha_mix =  0.700 |ddv_scf|^2 =  1.719E-09

      iter #   4 total cpu time :  2666.6 secs   av.it.:   8.1
      thresh= 4.146E-06 alpha_mix =  0.700 |ddv_scf|^2 =  5.590E-12

      iter #   5 total cpu time :  2707.4 secs   av.it.:   8.5
      thresh= 2.364E-07 alpha_mix =  0.700 |ddv_scf|^2 =  8.318E-15

     End of self-consistent calculation

     Convergence has been achieved 

     Number of q in the star =    6
     List of q in the star:
          1   0.000000000   0.250000000   0.000000000
          2   0.000000000  -0.250000000   0.000000000
          3   0.250000000   0.000000000   0.000000000
          4   0.000000000   0.000000000   0.250000000
          5   0.000000000   0.000000000  -0.250000000
          6  -0.250000000   0.000000000   0.000000000

     Diagonalizing the dynamical matrix

     q = (    0.000000000   0.250000000   0.000000000 ) 

 **************************************************************************
     freq (    1) =       0.967652 [THz] =      32.277401 [cm-1]
     freq (    2) =       0.967652 [THz] =      32.277401 [cm-1]
     freq (    3) =       1.877802 [THz] =      62.636718 [cm-1]
 **************************************************************************

     Mode symmetry, C_4v (4mm)  point group:

     freq (  1 -  2) =         32.3  [cm-1]   --> E    G_5 D_5       
     freq (  3 -  3) =         62.6  [cm-1]   --> A_1  G_1 D_1       

     Calculation of q =   -0.1250000   0.3750000  -0.1250000

   Info: using nr1, nr2, nr3 values from input

   Info: using nr1, nr2, nr3 values from input

     Parallelization info
     --------------------
     sticks:   dense  smooth     PW     G-vecs:    dense   smooth      PW
     Min         267     136     49                 5821     2072     451
     Max         268     137     50                 5825     2073     453
     Sum        1069     547    199                23289     8291    1807



     bravais-lattice index     =            2
     lattice parameter (alat)  =       9.8825  a.u.
     unit-cell volume          =     241.2875 (a.u.)^3
     number of atoms/cell      =            1
     number of atomic types    =            1
     number of electrons       =         9.00
     number of Kohn-Sham states=            9
     kinetic-energy cutoff     =      40.0000  Ry
     charge density cutoff     =     320.0000  Ry
     Exchange-correlation      = SLA  PW   PBE  PBE ( 1  4  3  4 0 0)

     celldm(1)=   9.882457  celldm(2)=   0.000000  celldm(3)=   0.000000
     celldm(4)=   0.000000  celldm(5)=   0.000000  celldm(6)=   0.000000

     crystal axes: (cart. coord. in units of alat)
               a(1) = (  -0.500000   0.000000   0.500000 )  
               a(2) = (   0.000000   0.500000   0.500000 )  
               a(3) = (  -0.500000   0.500000   0.000000 )  

     reciprocal axes: (cart. coord. in units 2 pi/alat)
               b(1) = ( -1.000000 -1.000000  1.000000 )  
               b(2) = (  1.000000  1.000000  1.000000 )  
               b(3) = ( -1.000000  1.000000 -1.000000 )  


     PseudoPot. # 1 for Na read from file:
     /home/s1333534/quantum_espresso/qe-6.1/pseudo/Na_pbe_v1.uspp.F.UPF
     MD5 check sum: 76a99c7e9422403d3e93cbc85ab7bccb
     Pseudo is Ultrasoft, Zval =  9.0
     Generated by new atomic code, or converted to UPF format
     Using radial grid of  819 points,  5 beta functions with: 
                l(1) =   0
                l(2) =   0
                l(3) =   1
                l(4) =   1
                l(5) =   2
     Q(r) pseudized with  8 coefficients,  rinner =    1.250   1.250   1.250
                                                       1.250   1.250

     atomic species   valence    mass     pseudopotential
        Na             9.00    22.99000     Na( 1.00)

     48 Sym. Ops., with inversion, found



   Cartesian axes

     site n.     atom                  positions (alat units)
         1           Na  tau(   1) = (   0.0000000   0.0000000   0.0000000  )

     number of k points= 11368  Marzari-Vanderbilt smearing, width (Ry)=  0.0200

     Number of k-points >= 100: set verbosity='high' to print them.

     Dense  grid:    23289 G-vectors     FFT dimensions: (  40,  40,  40)

     Smooth grid:     8291 G-vectors     FFT dimensions: (  30,  30,  30)

     Estimated max dynamical RAM per process >       2.18MB

     Estimated total allocated dynamical RAM >       8.72MB

     The potential is recalculated from file :
     ./_ph0/na.fcc.save/charge-density.dat

     Starting wfc are    5 atomic +    4 random wfc

     Band Structure Calculation
     Davidson diagonalization with overlap

     ethr =  1.11E-10,  avg # of iterations = 19.6

     total cpu time spent up to now is      962.8 secs

     End of band structure calculation

     Number of k-points >= 100: set verbosity='high' to print the bands.

     the Fermi energy is     1.7561 ev

     Writing output data file na.fcc.save

                                                                                

     bravais-lattice index     =            2
     lattice parameter (alat)  =       9.8825  a.u.
     unit-cell volume          =     241.2875 (a.u.)^3
     number of atoms/cell      =            1
     number of atomic types    =            1
     kinetic-energy cut-off    =      40.0000  Ry
     charge density cut-off    =     320.0000  Ry
     convergence threshold     =      1.0E-12
     beta                      =       0.7000
     number of iterations used =            4
     Exchange-correlation      = SLA  PW   PBE  PBE ( 1  4  3  4 0 0)


     celldm(1)=    9.88246  celldm(2)=    0.00000  celldm(3)=    0.00000
     celldm(4)=    0.00000  celldm(5)=    0.00000  celldm(6)=    0.00000

     crystal axes: (cart. coord. in units of alat)
               a(1) = ( -0.5000  0.0000  0.5000 )  
               a(2) = (  0.0000  0.5000  0.5000 )  
               a(3) = ( -0.5000  0.5000  0.0000 )  

     reciprocal axes: (cart. coord. in units 2 pi/alat)
               b(1) = ( -1.0000 -1.0000  1.0000 )  
               b(2) = (  1.0000  1.0000  1.0000 )  
               b(3) = ( -1.0000  1.0000 -1.0000 )  


     Atoms inside the unit cell: 

     Cartesian axes

     site n.  atom      mass           positions (alat units)
        1     Na  22.9900   tau(    1) = (    0.00000    0.00000    0.00000  )

     Computing dynamical matrix for 
                    q = (  -0.1250000   0.3750000  -0.1250000 )

      2 Sym.Ops. (no q -> -q+G )


     G cutoff =  791.6262  (   5822 G-vectors)     FFT grid: ( 40, 40, 40)
     G cutoff =  395.8131  (   2073 G-vectors)  smooth grid: ( 30, 30, 30)

     number of k points= 11368  Marzari-Vanderbilt smearing, width (Ry)=  0.0200

     PseudoPot. # 1 for Na read from file:
     /home/s1333534/quantum_espresso/qe-6.1/pseudo/Na_pbe_v1.uspp.F.UPF
     MD5 check sum: 76a99c7e9422403d3e93cbc85ab7bccb
     Pseudo is Ultrasoft, Zval =  9.0
     Generated by new atomic code, or converted to UPF format
     Using radial grid of  819 points,  5 beta functions with: 
                l(1) =   0
                l(2) =   0
                l(3) =   1
                l(4) =   1
                l(5) =   2
     Q(r) pseudized with  8 coefficients,  rinner =    1.250   1.250   1.250
                                                       1.250   1.250

     Mode symmetry, C_s (m)     point group:


     Atomic displacements:
     There are   3 irreducible representations

     Representation     1      1 modes -A'  To be done

     Representation     2      1 modes -A'  To be done

     Representation     3      1 modes -A''  To be done



     Alpha used in Ewald sum =   2.8000
     PHONON       : 48m30.84s CPU    52m 1.51s WALL



     Representation #  1 mode #   1

     Self-consistent Calculation

      iter #   1 total cpu time :  3188.5 secs   av.it.:   5.8
      thresh= 1.000E-02 alpha_mix =  0.700 |ddv_scf|^2 =  4.010E-03

      iter #   2 total cpu time :  3251.6 secs   av.it.:   6.2
      thresh= 6.333E-03 alpha_mix =  0.700 |ddv_scf|^2 =  1.336E-01

      iter #   3 total cpu time :  3311.5 secs   av.it.:   5.8
      thresh= 1.000E-02 alpha_mix =  0.700 |ddv_scf|^2 =  2.346E-06

      iter #   4 total cpu time :  3383.5 secs   av.it.:   7.5
      thresh= 1.532E-04 alpha_mix =  0.700 |ddv_scf|^2 =  1.691E-08

      iter #   5 total cpu time :  3458.5 secs   av.it.:   8.0
      thresh= 1.300E-05 alpha_mix =  0.700 |ddv_scf|^2 =  1.605E-09

      iter #   6 total cpu time :  3531.9 secs   av.it.:   7.8
      thresh= 4.006E-06 alpha_mix =  0.700 |ddv_scf|^2 =  6.671E-11

      iter #   7 total cpu time :  3607.2 secs   av.it.:   8.1
      thresh= 8.168E-07 alpha_mix =  0.700 |ddv_scf|^2 =  6.497E-10

      iter #   8 total cpu time :  3663.5 secs   av.it.:   5.4
      thresh= 2.549E-06 alpha_mix =  0.700 |ddv_scf|^2 =  9.644E-13

     End of self-consistent calculation

     Convergence has been achieved 


     Representation #  2 mode #   2

     Self-consistent Calculation

      iter #   1 total cpu time :  3732.5 secs   av.it.:   5.7
      thresh= 1.000E-02 alpha_mix =  0.700 |ddv_scf|^2 =  6.181E-04

      iter #   2 total cpu time :  3800.1 secs   av.it.:   6.8
      thresh= 2.486E-03 alpha_mix =  0.700 |ddv_scf|^2 =  2.019E-02

      iter #   3 total cpu time :  3855.6 secs   av.it.:   4.8
      thresh= 1.000E-02 alpha_mix =  0.700 |ddv_scf|^2 =  2.558E-07

      iter #   4 total cpu time :  3932.8 secs   av.it.:   8.2
      thresh= 5.058E-05 alpha_mix =  0.700 |ddv_scf|^2 =  9.979E-09

      iter #   5 total cpu time :  4007.8 secs   av.it.:   7.9
      thresh= 9.989E-06 alpha_mix =  0.700 |ddv_scf|^2 =  3.780E-10

      iter #   6 total cpu time :  4082.4 secs   av.it.:   7.9
      thresh= 1.944E-06 alpha_mix =  0.700 |ddv_scf|^2 =  1.846E-11

      iter #   7 total cpu time :  4158.7 secs   av.it.:   8.2
      thresh= 4.296E-07 alpha_mix =  0.700 |ddv_scf|^2 =  4.398E-11

      iter #   8 total cpu time :  4222.7 secs   av.it.:   6.4
      thresh= 6.632E-07 alpha_mix =  0.700 |ddv_scf|^2 =  6.909E-11

      iter #   9 total cpu time :  4286.1 secs   av.it.:   6.4
      thresh= 8.312E-07 alpha_mix =  0.700 |ddv_scf|^2 =  9.545E-12

      iter #  10 total cpu time :  4352.8 secs   av.it.:   6.7
      thresh= 3.089E-07 alpha_mix =  0.700 |ddv_scf|^2 =  1.586E-14

     End of self-consistent calculation

     Convergence has been achieved 


     Representation #  3 mode #   3

     Self-consistent Calculation

      iter #   1 total cpu time :  4420.4 secs   av.it.:   5.4
      thresh= 1.000E-02 alpha_mix =  0.700 |ddv_scf|^2 =  1.420E-05

      iter #   2 total cpu time :  4493.7 secs   av.it.:   7.7
      thresh= 3.768E-04 alpha_mix =  0.700 |ddv_scf|^2 =  2.360E-07

      iter #   3 total cpu time :  4567.8 secs   av.it.:   7.9
      thresh= 4.858E-05 alpha_mix =  0.700 |ddv_scf|^2 =  9.114E-09

      iter #   4 total cpu time :  4639.5 secs   av.it.:   7.5
      thresh= 9.547E-06 alpha_mix =  0.700 |ddv_scf|^2 =  2.918E-11

      iter #   5 total cpu time :  4714.0 secs   av.it.:   7.8
      thresh= 5.402E-07 alpha_mix =  0.700 |ddv_scf|^2 =  3.265E-14

     End of self-consistent calculation

     Convergence has been achieved 

     Number of q in the star =   24
     List of q in the star:
          1  -0.125000000   0.375000000  -0.125000000
          2  -0.125000000   0.375000000   0.125000000
          3   0.125000000   0.375000000  -0.125000000
          4   0.125000000   0.375000000   0.125000000
          5   0.125000000  -0.375000000   0.125000000
          6   0.375000000  -0.125000000   0.125000000
          7   0.125000000  -0.125000000   0.375000000
          8  -0.125000000  -0.375000000  -0.125000000
          9   0.125000000  -0.375000000  -0.125000000
         10  -0.125000000  -0.375000000   0.125000000
         11   0.125000000  -0.125000000  -0.375000000
         12   0.375000000  -0.125000000  -0.125000000
         13  -0.375000000  -0.125000000   0.125000000
         14   0.375000000   0.125000000   0.125000000
         15  -0.125000000  -0.125000000   0.375000000
         16   0.125000000   0.125000000   0.375000000
         17  -0.375000000   0.125000000  -0.125000000
         18  -0.125000000   0.125000000  -0.375000000
         19  -0.375000000  -0.125000000  -0.125000000
         20   0.125000000   0.125000000  -0.375000000
         21   0.375000000   0.125000000  -0.125000000
         22  -0.125000000  -0.125000000  -0.375000000
         23  -0.375000000   0.125000000   0.125000000
         24  -0.125000000   0.125000000   0.375000000

     Diagonalizing the dynamical matrix

     q = (   -0.125000000   0.375000000  -0.125000000 ) 

 **************************************************************************
     freq (    1) =       1.496968 [THz] =      49.933461 [cm-1]
     freq (    2) =       1.776411 [THz] =      59.254697 [cm-1]
     freq (    3) =       3.283116 [THz] =     109.512966 [cm-1]
 **************************************************************************

     Mode symmetry, C_s (m)     point group:

     freq (  1 -  1) =         49.9  [cm-1]   --> A''                
     freq (  2 -  2) =         59.3  [cm-1]   --> A'                 
     freq (  3 -  3) =        109.5  [cm-1]   --> A'                 

     Calculation of q =   -0.2500000   0.5000000  -0.2500000

   Info: using nr1, nr2, nr3 values from input

   Info: using nr1, nr2, nr3 values from input

     Parallelization info
     --------------------
     sticks:   dense  smooth     PW     G-vecs:    dense   smooth      PW
     Min         267     136     49                 5821     2072     457
     Max         268     138     50                 5825     2073     460
     Sum        1069     547    199                23289     8291    1837



     bravais-lattice index     =            2
     lattice parameter (alat)  =       9.8825  a.u.
     unit-cell volume          =     241.2875 (a.u.)^3
     number of atoms/cell      =            1
     number of atomic types    =            1
     number of electrons       =         9.00
     number of Kohn-Sham states=            9
     kinetic-energy cutoff     =      40.0000  Ry
     charge density cutoff     =     320.0000  Ry
     Exchange-correlation      = SLA  PW   PBE  PBE ( 1  4  3  4 0 0)

     celldm(1)=   9.882457  celldm(2)=   0.000000  celldm(3)=   0.000000
     celldm(4)=   0.000000  celldm(5)=   0.000000  celldm(6)=   0.000000

     crystal axes: (cart. coord. in units of alat)
               a(1) = (  -0.500000   0.000000   0.500000 )  
               a(2) = (   0.000000   0.500000   0.500000 )  
               a(3) = (  -0.500000   0.500000   0.000000 )  

     reciprocal axes: (cart. coord. in units 2 pi/alat)
               b(1) = ( -1.000000 -1.000000  1.000000 )  
               b(2) = (  1.000000  1.000000  1.000000 )  
               b(3) = ( -1.000000  1.000000 -1.000000 )  


     PseudoPot. # 1 for Na read from file:
     /home/s1333534/quantum_espresso/qe-6.1/pseudo/Na_pbe_v1.uspp.F.UPF
     MD5 check sum: 76a99c7e9422403d3e93cbc85ab7bccb
     Pseudo is Ultrasoft, Zval =  9.0
     Generated by new atomic code, or converted to UPF format
     Using radial grid of  819 points,  5 beta functions with: 
                l(1) =   0
                l(2) =   0
                l(3) =   1
                l(4) =   1
                l(5) =   2
     Q(r) pseudized with  8 coefficients,  rinner =    1.250   1.250   1.250
                                                       1.250   1.250

     atomic species   valence    mass     pseudopotential
        Na             9.00    22.99000     Na( 1.00)

     48 Sym. Ops., with inversion, found



   Cartesian axes

     site n.     atom                  positions (alat units)
         1           Na  tau(   1) = (   0.0000000   0.0000000   0.0000000  )

     number of k points= 11368  Marzari-Vanderbilt smearing, width (Ry)=  0.0200

     Number of k-points >= 100: set verbosity='high' to print them.

     Dense  grid:    23289 G-vectors     FFT dimensions: (  40,  40,  40)

     Smooth grid:     8291 G-vectors     FFT dimensions: (  30,  30,  30)

     Estimated max dynamical RAM per process >       2.18MB

     Estimated total allocated dynamical RAM >       8.72MB

     The potential is recalculated from file :
     ./_ph0/na.fcc.save/charge-density.dat

     Starting wfc are    5 atomic +    4 random wfc

     Band Structure Calculation
     Davidson diagonalization with overlap

     ethr =  1.11E-10,  avg # of iterations = 19.6

     total cpu time spent up to now is     1348.2 secs

     End of band structure calculation

     Number of k-points >= 100: set verbosity='high' to print the bands.

     the Fermi energy is     1.7561 ev

     Writing output data file na.fcc.save

                                                                                

     bravais-lattice index     =            2
     lattice parameter (alat)  =       9.8825  a.u.
     unit-cell volume          =     241.2875 (a.u.)^3
     number of atoms/cell      =            1
     number of atomic types    =            1
     kinetic-energy cut-off    =      40.0000  Ry
     charge density cut-off    =     320.0000  Ry
     convergence threshold     =      1.0E-12
     beta                      =       0.7000
     number of iterations used =            4
     Exchange-correlation      = SLA  PW   PBE  PBE ( 1  4  3  4 0 0)


     celldm(1)=    9.88246  celldm(2)=    0.00000  celldm(3)=    0.00000
     celldm(4)=    0.00000  celldm(5)=    0.00000  celldm(6)=    0.00000

     crystal axes: (cart. coord. in units of alat)
               a(1) = ( -0.5000  0.0000  0.5000 )  
               a(2) = (  0.0000  0.5000  0.5000 )  
               a(3) = ( -0.5000  0.5000  0.0000 )  

     reciprocal axes: (cart. coord. in units 2 pi/alat)
               b(1) = ( -1.0000 -1.0000  1.0000 )  
               b(2) = (  1.0000  1.0000  1.0000 )  
               b(3) = ( -1.0000  1.0000 -1.0000 )  


     Atoms inside the unit cell: 

     Cartesian axes

     site n.  atom      mass           positions (alat units)
        1     Na  22.9900   tau(    1) = (    0.00000    0.00000    0.00000  )

     Computing dynamical matrix for 
                    q = (  -0.2500000   0.5000000  -0.2500000 )

      2 Sym.Ops. (no q -> -q+G )


     G cutoff =  791.6262  (   5822 G-vectors)     FFT grid: ( 40, 40, 40)
     G cutoff =  395.8131  (   2073 G-vectors)  smooth grid: ( 30, 30, 30)

     number of k points= 11368  Marzari-Vanderbilt smearing, width (Ry)=  0.0200

     PseudoPot. # 1 for Na read from file:
     /home/s1333534/quantum_espresso/qe-6.1/pseudo/Na_pbe_v1.uspp.F.UPF
     MD5 check sum: 76a99c7e9422403d3e93cbc85ab7bccb
     Pseudo is Ultrasoft, Zval =  9.0
     Generated by new atomic code, or converted to UPF format
     Using radial grid of  819 points,  5 beta functions with: 
                l(1) =   0
                l(2) =   0
                l(3) =   1
                l(4) =   1
                l(5) =   2
     Q(r) pseudized with  8 coefficients,  rinner =    1.250   1.250   1.250
                                                       1.250   1.250

     Mode symmetry, C_s (m)     point group:


     Atomic displacements:
     There are   3 irreducible representations

     Representation     1      1 modes -A'  To be done

     Representation     2      1 modes -A'  To be done

     Representation     3      1 modes -A''  To be done



     Alpha used in Ewald sum =   2.8000
     PHONON       :     1h19m CPU        1h25m WALL



     Representation #  1 mode #   1

     Self-consistent Calculation

      iter #   1 total cpu time :  5195.4 secs   av.it.:   5.8
      thresh= 1.000E-02 alpha_mix =  0.700 |ddv_scf|^2 =  3.851E-04

      iter #   2 total cpu time :  5263.0 secs   av.it.:   6.9
      thresh= 1.962E-03 alpha_mix =  0.700 |ddv_scf|^2 =  1.850E-03

      iter #   3 total cpu time :  5323.3 secs   av.it.:   5.8
      thresh= 4.301E-03 alpha_mix =  0.700 |ddv_scf|^2 =  3.976E-07

      iter #   4 total cpu time :  5398.7 secs   av.it.:   8.0
      thresh= 6.305E-05 alpha_mix =  0.700 |ddv_scf|^2 =  6.916E-09

      iter #   5 total cpu time :  5475.1 secs   av.it.:   8.3
      thresh= 8.316E-06 alpha_mix =  0.700 |ddv_scf|^2 =  6.920E-10

      iter #   6 total cpu time :  5551.0 secs   av.it.:   8.2
      thresh= 2.631E-06 alpha_mix =  0.700 |ddv_scf|^2 =  3.690E-11

      iter #   7 total cpu time :  5627.6 secs   av.it.:   8.1
      thresh= 6.075E-07 alpha_mix =  0.700 |ddv_scf|^2 =  7.123E-12

      iter #   8 total cpu time :  5696.6 secs   av.it.:   7.1
      thresh= 2.669E-07 alpha_mix =  0.700 |ddv_scf|^2 =  1.365E-11

      iter #   9 total cpu time :  5761.0 secs   av.it.:   6.5
      thresh= 3.694E-07 alpha_mix =  0.700 |ddv_scf|^2 =  7.085E-13

     End of self-consistent calculation

     Convergence has been achieved 


     Representation #  2 mode #   2

     Self-consistent Calculation

      iter #   1 total cpu time :  5829.2 secs   av.it.:   5.7
      thresh= 1.000E-02 alpha_mix =  0.700 |ddv_scf|^2 =  1.118E-04

      iter #   2 total cpu time :  5899.7 secs   av.it.:   7.3
      thresh= 1.057E-03 alpha_mix =  0.700 |ddv_scf|^2 =  4.701E-04

      iter #   3 total cpu time :  5960.1 secs   av.it.:   5.9
      thresh= 2.168E-03 alpha_mix =  0.700 |ddv_scf|^2 =  4.027E-07

      iter #   4 total cpu time :  6034.1 secs   av.it.:   7.8
      thresh= 6.346E-05 alpha_mix =  0.700 |ddv_scf|^2 =  9.306E-09

      iter #   5 total cpu time :  6111.2 secs   av.it.:   8.3
      thresh= 9.647E-06 alpha_mix =  0.700 |ddv_scf|^2 =  4.770E-10

      iter #   6 total cpu time :  6187.3 secs   av.it.:   8.2
      thresh= 2.184E-06 alpha_mix =  0.700 |ddv_scf|^2 =  3.578E-11

      iter #   7 total cpu time :  6264.0 secs   av.it.:   8.2
      thresh= 5.982E-07 alpha_mix =  0.700 |ddv_scf|^2 =  6.697E-13

     End of self-consistent calculation

     Convergence has been achieved 


     Representation #  3 mode #   3

     Self-consistent Calculation

      iter #   1 total cpu time :  6329.9 secs   av.it.:   5.5
      thresh= 1.000E-02 alpha_mix =  0.700 |ddv_scf|^2 =  1.455E-05

      iter #   2 total cpu time :  6403.0 secs   av.it.:   7.7
      thresh= 3.814E-04 alpha_mix =  0.700 |ddv_scf|^2 =  2.345E-07

      iter #   3 total cpu time :  6477.2 secs   av.it.:   7.9
      thresh= 4.842E-05 alpha_mix =  0.700 |ddv_scf|^2 =  1.041E-08

      iter #   4 total cpu time :  6548.7 secs   av.it.:   7.5
      thresh= 1.020E-05 alpha_mix =  0.700 |ddv_scf|^2 =  3.388E-11

      iter #   5 total cpu time :  6622.9 secs   av.it.:   7.8
      thresh= 5.821E-07 alpha_mix =  0.700 |ddv_scf|^2 =  3.532E-14

     End of self-consistent calculation

     Convergence has been achieved 

     Number of q in the star =   24
     List of q in the star:
          1  -0.250000000   0.500000000  -0.250000000
          2  -0.250000000   0.500000000   0.250000000
          3   0.250000000   0.500000000  -0.250000000
          4   0.250000000   0.500000000   0.250000000
          5   0.250000000  -0.500000000   0.250000000
          6   0.500000000  -0.250000000   0.250000000
          7   0.250000000  -0.250000000   0.500000000
          8  -0.250000000  -0.500000000  -0.250000000
          9   0.250000000  -0.500000000  -0.250000000
         10  -0.250000000  -0.500000000   0.250000000
         11   0.250000000  -0.250000000  -0.500000000
         12   0.500000000  -0.250000000  -0.250000000
         13  -0.500000000  -0.250000000   0.250000000
         14   0.500000000   0.250000000   0.250000000
         15  -0.250000000  -0.250000000   0.500000000
         16   0.250000000   0.250000000   0.500000000
         17  -0.500000000   0.250000000  -0.250000000
         18  -0.250000000   0.250000000  -0.500000000
         19  -0.500000000  -0.250000000  -0.250000000
         20   0.250000000   0.250000000  -0.500000000
         21   0.500000000   0.250000000  -0.250000000
         22  -0.250000000  -0.250000000  -0.500000000
         23  -0.500000000   0.250000000   0.250000000
         24  -0.250000000   0.250000000   0.500000000

     Diagonalizing the dynamical matrix

     q = (   -0.250000000   0.500000000  -0.250000000 ) 

 **************************************************************************
     freq (    1) =       1.774562 [THz] =      59.193010 [cm-1]
     freq (    2) =       2.181816 [THz] =      72.777562 [cm-1]
     freq (    3) =       3.964610 [THz] =     132.245147 [cm-1]
 **************************************************************************

     Mode symmetry, C_s (m)     point group:

     freq (  1 -  1) =         59.2  [cm-1]   --> A''                
     freq (  2 -  2) =         72.8  [cm-1]   --> A'                 
     freq (  3 -  3) =        132.2  [cm-1]   --> A'                 

     Calculation of q =    0.6250000  -0.3750000   0.6250000

   Info: using nr1, nr2, nr3 values from input

   Info: using nr1, nr2, nr3 values from input

     Parallelization info
     --------------------
     sticks:   dense  smooth     PW     G-vecs:    dense   smooth      PW
     Min         267     136     52                 5821     2072     497
     Max         268     137     54                 5825     2073     498
     Sum        1069     547    211                23289     8291    1989



     bravais-lattice index     =            2
     lattice parameter (alat)  =       9.8825  a.u.
     unit-cell volume          =     241.2875 (a.u.)^3
     number of atoms/cell      =            1
     number of atomic types    =            1
     number of electrons       =         9.00
     number of Kohn-Sham states=            9
     kinetic-energy cutoff     =      40.0000  Ry
     charge density cutoff     =     320.0000  Ry
     Exchange-correlation      = SLA  PW   PBE  PBE ( 1  4  3  4 0 0)

     celldm(1)=   9.882457  celldm(2)=   0.000000  celldm(3)=   0.000000
     celldm(4)=   0.000000  celldm(5)=   0.000000  celldm(6)=   0.000000

     crystal axes: (cart. coord. in units of alat)
               a(1) = (  -0.500000   0.000000   0.500000 )  
               a(2) = (   0.000000   0.500000   0.500000 )  
               a(3) = (  -0.500000   0.500000   0.000000 )  

[...]

     PseudoPot. # 1 for Na read from file:
     /home/s1333534/quantum_espresso/qe-6.1/pseudo/Na_pbe_v1.uspp.F.UPF
     MD5 check sum: 76a99c7e9422403d3e93cbc85ab7bccb
     Pseudo is Ultrasoft, Zval =  9.0
     Generated by new atomic code, or converted to UPF format
     Using radial grid of  819 points,  5 beta functions with: 
                l(1) =   0
                l(2) =   0
                l(3) =   1
                l(4) =   1
                l(5) =   2
     Q(r) pseudized with  8 coefficients,  rinner =    1.250   1.250   1.250
                                                       1.250   1.250

     Mode symmetry, C_2v (mm2)  point group:


     Atomic displacements:
     There are   3 irreducible representations

     Representation     1      1 modes -A_1  D_1  S_1  To be done

     Representation     2      1 modes -B_1  D_3  S_3  To be done

     Representation     3      1 modes -B_2  D_4  S_4  To be done



     Alpha used in Ewald sum =   2.8000
     PHONON       :     9h59m CPU       10h47m WALL



     Representation #  1 mode #   1

     Self-consistent Calculation

      iter #   1 total cpu time : 38872.7 secs   av.it.:   5.6
      thresh= 1.000E-02 alpha_mix =  0.700 |ddv_scf|^2 =  2.047E-05

      iter #   2 total cpu time : 38909.3 secs   av.it.:   7.8
      thresh= 4.525E-04 alpha_mix =  0.700 |ddv_scf|^2 =  5.848E-07

      iter #   3 total cpu time : 38945.0 secs   av.it.:   7.7
      thresh= 7.647E-05 alpha_mix =  0.700 |ddv_scf|^2 =  2.922E-08

      iter #   4 total cpu time : 38981.8 secs   av.it.:   7.9
      thresh= 1.709E-05 alpha_mix =  0.700 |ddv_scf|^2 =  1.956E-09

      iter #   5 total cpu time : 39018.4 secs   av.it.:   7.9
      thresh= 4.423E-06 alpha_mix =  0.700 |ddv_scf|^2 =  6.082E-11

      iter #   6 total cpu time : 39055.5 secs   av.it.:   8.1
      thresh= 7.799E-07 alpha_mix =  0.700 |ddv_scf|^2 =  5.610E-12

      iter #   7 total cpu time : 39092.9 secs   av.it.:   8.1
      thresh= 2.369E-07 alpha_mix =  0.700 |ddv_scf|^2 =  7.967E-14

     End of self-consistent calculation

     Convergence has been achieved 


     Representation #  2 mode #   2

     Self-consistent Calculation

      iter #   1 total cpu time : 39126.0 secs   av.it.:   5.6
      thresh= 1.000E-02 alpha_mix =  0.700 |ddv_scf|^2 =  2.130E-05

      iter #   2 total cpu time : 39162.5 secs   av.it.:   7.8
      thresh= 4.615E-04 alpha_mix =  0.700 |ddv_scf|^2 =  3.308E-07

      iter #   3 total cpu time : 39198.9 secs   av.it.:   7.8
      thresh= 5.752E-05 alpha_mix =  0.700 |ddv_scf|^2 =  2.314E-08

      iter #   4 total cpu time : 39235.0 secs   av.it.:   7.8
      thresh= 1.521E-05 alpha_mix =  0.700 |ddv_scf|^2 =  2.880E-10

      iter #   5 total cpu time : 39267.6 secs   av.it.:   6.9
      thresh= 1.697E-06 alpha_mix =  0.700 |ddv_scf|^2 =  2.450E-13

     End of self-consistent calculation

     Convergence has been achieved 


     Representation #  3 mode #   3

     Self-consistent Calculation

      iter #   1 total cpu time : 39300.4 secs   av.it.:   5.6
      thresh= 1.000E-02 alpha_mix =  0.700 |ddv_scf|^2 =  5.369E-05

      iter #   2 total cpu time : 39335.4 secs   av.it.:   7.3
      thresh= 7.327E-04 alpha_mix =  0.700 |ddv_scf|^2 =  7.314E-06

      iter #   3 total cpu time : 39369.4 secs   av.it.:   7.2
      thresh= 2.704E-04 alpha_mix =  0.700 |ddv_scf|^2 =  5.662E-08

      iter #   4 total cpu time : 39405.7 secs   av.it.:   7.9
      thresh= 2.380E-05 alpha_mix =  0.700 |ddv_scf|^2 =  2.261E-10

      iter #   5 total cpu time : 39438.6 secs   av.it.:   6.8
      thresh= 1.504E-06 alpha_mix =  0.700 |ddv_scf|^2 =  3.694E-13

     End of self-consistent calculation

     Convergence has been achieved 

     Number of q in the star =   12
     List of q in the star:
          1  -0.250000000  -1.000000000   0.000000000
          2   0.000000000  -1.000000000   0.250000000
          3   0.000000000  -1.000000000  -0.250000000
          4   0.250000000  -1.000000000   0.000000000
          5  -1.000000000   0.000000000  -0.250000000
          6   1.000000000   0.000000000   0.250000000
          7  -1.000000000  -0.250000000   0.000000000
          8   0.000000000  -0.250000000  -1.000000000
          9   0.000000000   0.250000000  -1.000000000
         10   1.000000000   0.250000000   0.000000000
         11  -0.250000000   0.000000000   1.000000000
         12   0.250000000   0.000000000   1.000000000

     Diagonalizing the dynamical matrix

     q = (   -0.250000000  -1.000000000   0.000000000 ) 

 **************************************************************************
     freq (    1) =       2.875298 [THz] =      95.909610 [cm-1]
     freq (    2) =       3.429329 [THz] =     114.390098 [cm-1]
     freq (    3) =       4.479412 [THz] =     149.417108 [cm-1]
 **************************************************************************

     Mode symmetry, C_2v (mm2)  point group:

     freq (  1 -  1) =         95.9  [cm-1]   --> A_1  D_1  S_1      
     freq (  2 -  2) =        114.4  [cm-1]   --> B_1  D_3  S_3      
     freq (  3 -  3) =        149.4  [cm-1]   --> B_2  D_4  S_4      

     Calculation of q =   -0.5000000  -1.0000000   0.0000000

   Info: using nr1, nr2, nr3 values from input

   Info: using nr1, nr2, nr3 values from input

     Parallelization info
     --------------------
     sticks:   dense  smooth     PW     G-vecs:    dense   smooth      PW
     Min         267     136     52                 5821     2072     520
     Max         268     137     53                 5825     2073     522
     Sum        1069     547    211                23289     8291    2085



     bravais-lattice index     =            2
     lattice parameter (alat)  =       9.8825  a.u.
     unit-cell volume          =     241.2875 (a.u.)^3
     number of atoms/cell      =            1
     number of atomic types    =            1
     number of electrons       =         9.00
     number of Kohn-Sham states=            9
     kinetic-energy cutoff     =      40.0000  Ry
     charge density cutoff     =     320.0000  Ry
     Exchange-correlation      = SLA  PW   PBE  PBE ( 1  4  3  4 0 0)

     celldm(1)=   9.882457  celldm(2)=   0.000000  celldm(3)=   0.000000
     celldm(4)=   0.000000  celldm(5)=   0.000000  celldm(6)=   0.000000

     crystal axes: (cart. coord. in units of alat)
               a(1) = (  -0.500000   0.000000   0.500000 )  
               a(2) = (   0.000000   0.500000   0.500000 )  
               a(3) = (  -0.500000   0.500000   0.000000 )  

     reciprocal axes: (cart. coord. in units 2 pi/alat)
               b(1) = ( -1.000000 -1.000000  1.000000 )  
               b(2) = (  1.000000  1.000000  1.000000 )  
               b(3) = ( -1.000000  1.000000 -1.000000 )  


     PseudoPot. # 1 for Na read from file:
     /home/s1333534/quantum_espresso/qe-6.1/pseudo/Na_pbe_v1.uspp.F.UPF
     MD5 check sum: 76a99c7e9422403d3e93cbc85ab7bccb
     Pseudo is Ultrasoft, Zval =  9.0
     Generated by new atomic code, or converted to UPF format
     Using radial grid of  819 points,  5 beta functions with: 
                l(1) =   0
                l(2) =   0
                l(3) =   1
                l(4) =   1
                l(5) =   2
     Q(r) pseudized with  8 coefficients,  rinner =    1.250   1.250   1.250
                                                       1.250   1.250

     atomic species   valence    mass     pseudopotential
        Na             9.00    22.99000     Na( 1.00)

     48 Sym. Ops., with inversion, found



   Cartesian axes

     site n.     atom                  positions (alat units)
         1           Na  tau(   1) = (   0.0000000   0.0000000   0.0000000  )

     number of k points=  2744  Marzari-Vanderbilt smearing, width (Ry)=  0.0200

     Number of k-points >= 100: set verbosity='high' to print them.

     Dense  grid:    23289 G-vectors     FFT dimensions: (  40,  40,  40)

     Smooth grid:     8291 G-vectors     FFT dimensions: (  30,  30,  30)

     Estimated max dynamical RAM per process >       2.18MB

     Estimated total allocated dynamical RAM >       8.72MB

     The potential is recalculated from file :
     ./_ph0/na.fcc.save/charge-density.dat

     Starting wfc are    5 atomic +    4 random wfc

     Band Structure Calculation
     Davidson diagonalization with overlap

     ethr =  1.11E-10,  avg # of iterations = 19.5

     total cpu time spent up to now is     8168.8 secs

     End of band structure calculation

     Number of k-points >= 100: set verbosity='high' to print the bands.

     the Fermi energy is     1.7561 ev

     Writing output data file na.fcc.save

                                                                                

     bravais-lattice index     =            2
     lattice parameter (alat)  =       9.8825  a.u.
     unit-cell volume          =     241.2875 (a.u.)^3
     number of atoms/cell      =            1
     number of atomic types    =            1
     kinetic-energy cut-off    =      40.0000  Ry
     charge density cut-off    =     320.0000  Ry
     convergence threshold     =      1.0E-12
     beta                      =       0.7000
     number of iterations used =            4
     Exchange-correlation      = SLA  PW   PBE  PBE ( 1  4  3  4 0 0)


     celldm(1)=    9.88246  celldm(2)=    0.00000  celldm(3)=    0.00000
     celldm(4)=    0.00000  celldm(5)=    0.00000  celldm(6)=    0.00000

     crystal axes: (cart. coord. in units of alat)
               a(1) = ( -0.5000  0.0000  0.5000 )  
               a(2) = (  0.0000  0.5000  0.5000 )  
               a(3) = ( -0.5000  0.5000  0.0000 )  

     reciprocal axes: (cart. coord. in units 2 pi/alat)
               b(1) = ( -1.0000 -1.0000  1.0000 )  
               b(2) = (  1.0000  1.0000  1.0000 )  
               b(3) = ( -1.0000  1.0000 -1.0000 )  


     Atoms inside the unit cell: 

     Cartesian axes

     site n.  atom      mass           positions (alat units)
        1     Na  22.9900   tau(    1) = (    0.00000    0.00000    0.00000  )

     Computing dynamical matrix for 
                    q = (  -0.5000000  -1.0000000   0.0000000 )

      8 Sym.Ops. (no q -> -q+G )


     G cutoff =  791.6262  (   5822 G-vectors)     FFT grid: ( 40, 40, 40)
     G cutoff =  395.8131  (   2073 G-vectors)  smooth grid: ( 30, 30, 30)

     number of k points=  2744  Marzari-Vanderbilt smearing, width (Ry)=  0.0200

     PseudoPot. # 1 for Na read from file:
     /home/s1333534/quantum_espresso/qe-6.1/pseudo/Na_pbe_v1.uspp.F.UPF
     MD5 check sum: 76a99c7e9422403d3e93cbc85ab7bccb
     Pseudo is Ultrasoft, Zval =  9.0
     Generated by new atomic code, or converted to UPF format
     Using radial grid of  819 points,  5 beta functions with: 
                l(1) =   0
                l(2) =   0
                l(3) =   1
                l(4) =   1
                l(5) =   2
     Q(r) pseudized with  8 coefficients,  rinner =    1.250   1.250   1.250
                                                       1.250   1.250

     Mode symmetry, D_2d (-42m) point group:


     Atomic displacements:
     There are   2 irreducible representations

     Representation     1      1 modes -B_2  X_3  W_2  To be done

     Representation     2      2 modes -E    X_5  W_3  To be done



     Alpha used in Ewald sum =   2.8000
     PHONON       :    10h10m CPU       10h58m WALL



     Representation #  1 mode #   1

     Self-consistent Calculation

      iter #   1 total cpu time : 39555.4 secs   av.it.:   5.6
      thresh= 1.000E-02 alpha_mix =  0.700 |ddv_scf|^2 =  2.319E-05

      iter #   2 total cpu time : 39573.2 secs   av.it.:   7.8
      thresh= 4.816E-04 alpha_mix =  0.700 |ddv_scf|^2 =  7.701E-07

      iter #   3 total cpu time : 39591.1 secs   av.it.:   7.6
      thresh= 8.776E-05 alpha_mix =  0.700 |ddv_scf|^2 =  2.048E-08

      iter #   4 total cpu time : 39609.5 secs   av.it.:   8.0
      thresh= 1.431E-05 alpha_mix =  0.700 |ddv_scf|^2 =  5.185E-10

      iter #   5 total cpu time : 39626.5 secs   av.it.:   7.4
      thresh= 2.277E-06 alpha_mix =  0.700 |ddv_scf|^2 =  7.211E-13

     End of self-consistent calculation

     Convergence has been achieved 


     Representation #  2 modes #   2  3

     Self-consistent Calculation

      iter #   1 total cpu time : 39659.3 secs   av.it.:   5.7
      thresh= 1.000E-02 alpha_mix =  0.700 |ddv_scf|^2 =  8.442E-06

      iter #   2 total cpu time : 39696.6 secs   av.it.:   8.2
      thresh= 2.906E-04 alpha_mix =  0.700 |ddv_scf|^2 =  4.351E-07

      iter #   3 total cpu time : 39733.0 secs   av.it.:   7.9
      thresh= 6.596E-05 alpha_mix =  0.700 |ddv_scf|^2 =  9.447E-09

      iter #   4 total cpu time : 39771.3 secs   av.it.:   8.5
      thresh= 9.719E-06 alpha_mix =  0.700 |ddv_scf|^2 =  6.652E-11

      iter #   5 total cpu time : 39806.5 secs   av.it.:   7.5
      thresh= 8.156E-07 alpha_mix =  0.700 |ddv_scf|^2 =  4.916E-14

     End of self-consistent calculation

     Convergence has been achieved 

     Number of q in the star =    6
     List of q in the star:
          1  -0.500000000  -1.000000000   0.000000000
          2   0.000000000   1.000000000   0.500000000
          3   0.500000000  -1.000000000   0.000000000
          4   0.000000000   1.000000000  -0.500000000
          5  -1.000000000  -0.500000000   0.000000000
          6   0.000000000  -0.500000000  -1.000000000

     Diagonalizing the dynamical matrix

     q = (   -0.500000000  -1.000000000   0.000000000 ) 

 **************************************************************************
     freq (    1) =       3.464043 [THz] =     115.548029 [cm-1]
     freq (    2) =       3.804009 [THz] =     126.888076 [cm-1]
     freq (    3) =       3.804009 [THz] =     126.888076 [cm-1]
 **************************************************************************

     Mode symmetry, D_2d (-42m) point group:

     freq (  1 -  1) =        115.5  [cm-1]   --> B_2  X_3  W_2      
     freq (  2 -  3) =        126.9  [cm-1]   --> E    X_5  W_3      

     init_run     :      9.80s CPU     10.21s WALL (      28 calls)
     electrons    :   7548.77s CPU   7989.39s WALL (      28 calls)

     Called by init_run:
     wfcinit      :      0.00s CPU      0.00s WALL (      28 calls)
     potinit      :      0.48s CPU      0.61s WALL (      28 calls)

     Called by electrons:
     c_bands      :   7547.60s CPU   7988.21s WALL (      28 calls)
     v_of_rho     :      0.33s CPU      0.34s WALL (      29 calls)
     newd         :      0.42s CPU      0.47s WALL (      29 calls)

     Called by c_bands:
     init_us_2    :    344.52s CPU    372.05s WALL ( 3416427 calls)
     cegterg      :   6929.72s CPU   7314.72s WALL (  305672 calls)

     Called by sum_band:

     Called by *egterg:
     h_psi        :  26000.16s CPU  27730.25s WALL (28880956 calls)
     s_psi        :    565.86s CPU    605.43s WALL (54939151 calls)
     g_psi        :     44.42s CPU     46.84s WALL ( 4697176 calls)
     cdiaghg      :    955.40s CPU   1006.77s WALL ( 4937080 calls)

     Called by h_psi:
     h_psi:pot    :  25879.33s CPU  27600.20s WALL (28880956 calls)
     h_psi:calbec :    480.33s CPU    512.55s WALL (28880956 calls)
     vloc_psi     :  24959.98s CPU  26619.27s WALL (28880956 calls)
     add_vuspsi   :    335.70s CPU    360.18s WALL (28880956 calls)

     General routines
     calbec       :    966.14s CPU   1032.30s WALL (60845030 calls)
     fft          :      3.42s CPU      3.61s WALL (    9037 calls)
     ffts         :     43.71s CPU     47.55s WALL (  363591 calls)
     fftw         :  27480.03s CPU  29388.11s WALL (******** calls)
     interpolate  :      0.61s CPU      0.70s WALL (    1253 calls)
     davcio       :    202.95s CPU    593.50s WALL (12923704 calls)

     Parallel routines
     fft_scatter  :   5112.09s CPU   5498.45s WALL (******** calls)

     PHONON       :    10h14m CPU       11h 3m WALL

     INITIALIZATION: 
     phq_setup    :      1.08s CPU      1.30s WALL (      29 calls)
     phq_init     :    564.89s CPU    595.30s WALL (      29 calls)

     phq_init     :    564.89s CPU    595.30s WALL (      29 calls)
     init_vloc    :      0.10s CPU      0.10s WALL (      29 calls)
     init_us_1    :      3.47s CPU      3.57s WALL (      29 calls)
     newd         :      0.42s CPU      0.47s WALL (      29 calls)
     dvanqq       :      1.70s CPU      1.72s WALL (      29 calls)
     drho         :    481.99s CPU    508.03s WALL (      29 calls)

     DYNAMICAL MATRIX:
     dynmat0      :     51.94s CPU     53.81s WALL (      29 calls)
     phqscf       :  28595.98s CPU  31031.83s WALL (      29 calls)
     dynmatrix    :      0.03s CPU      0.32s WALL (      29 calls)

     phqscf       :  28595.98s CPU  31031.83s WALL (      29 calls)
     solve_linter :  28506.37s CPU  30937.49s WALL (      76 calls)
     drhodv       :     89.52s CPU     94.09s WALL (      76 calls)

     dynmat0      :     51.94s CPU     53.81s WALL (      29 calls)
     dynmat_us    :     51.86s CPU     53.72s WALL (      29 calls)
     d2ionq       :      0.05s CPU      0.05s WALL (      29 calls)

     dynmat_us    :     51.86s CPU     53.72s WALL (      29 calls)
     addusdynmat  :      0.00s CPU      0.00s WALL (      29 calls)

     phqscf       :  28595.98s CPU  31031.83s WALL (      29 calls)
     solve_linter :  28506.37s CPU  30937.49s WALL (      76 calls)

     solve_linter :  28506.37s CPU  30937.49s WALL (      76 calls)
     dvqpsi_us    :    822.31s CPU    880.15s WALL (  360696 calls)
     ortho        :    197.37s CPU    209.82s WALL ( 2419991 calls)
     cgsolve      :  22057.39s CPU  23584.45s WALL ( 2419991 calls)
     incdrhoscf   :   2618.12s CPU   2855.84s WALL ( 2419991 calls)
     addusddens   :     12.85s CPU     13.02s WALL (     575 calls)
     vpsifft      :   2155.25s CPU   2343.40s WALL ( 2059295 calls)
     dv_of_drho   :      3.92s CPU      4.07s WALL (     554 calls)
     mix_pot      :      0.55s CPU      2.01s WALL (     499 calls)
     ef_shift     :      0.01s CPU      0.03s WALL (       6 calls)
     localdos     :      0.27s CPU      0.30s WALL (       1 calls)
     psymdvscf    :      7.29s CPU      7.50s WALL (     457 calls)
     newdq        :     11.57s CPU     11.65s WALL (     499 calls)
     adddvscf     :     60.91s CPU     65.06s WALL ( 2059295 calls)
     drhodvus     :      0.07s CPU      0.25s WALL (      76 calls)

     dvqpsi_us    :    822.31s CPU    880.15s WALL (  360696 calls)
     dvqpsi_us_on :     83.01s CPU     87.60s WALL (  360696 calls)

     cgsolve      :  22057.39s CPU  23584.45s WALL ( 2419991 calls)
     ch_psi       :  21740.76s CPU  23243.62s WALL (23638204 calls)

     ch_psi       :  21740.76s CPU  23243.62s WALL (23638204 calls)
     h_psi        :  26000.16s CPU  27730.25s WALL (28880956 calls)
     last         :   1055.07s CPU   1128.09s WALL (23638204 calls)

     h_psi        :  26000.16s CPU  27730.25s WALL (28880956 calls)
     add_vuspsi   :    335.70s CPU    360.18s WALL (28880956 calls)

     incdrhoscf   :   2618.12s CPU   2855.84s WALL ( 2419991 calls)
     addusdbec    :    133.32s CPU    138.17s WALL ( 2780687 calls)

     drhodvus     :      0.07s CPU      0.25s WALL (      76 calls)

      General routines
     calbec       :    966.14s CPU   1032.30s WALL (60845030 calls)
     fft          :      3.42s CPU      3.61s WALL (    9037 calls)
     ffts         :     43.71s CPU     47.55s WALL (  363591 calls)
     fftw         :  27480.03s CPU  29388.11s WALL (******** calls)
     davcio       :    202.95s CPU    593.50s WALL (12923704 calls)
     write_rec    :      0.42s CPU      0.81s WALL (     575 calls)


     PHONON       :    10h14m CPU       11h 3m WALL


   This run was terminated on:   7:53:26  27Jan2018            

=------------------------------------------------------------------------------=
   JOB DONE.
=------------------------------------------------------------------------------=
