
     Program PWSCF v.6.1 (svn rev. 13369) starts on  1Feb2018 at  3:41:13 

     This program is part of the open-source Quantum ESPRESSO suite
     for quantum simulation of materials; please cite
         "P. Giannozzi et al., J. Phys.:Condens. Matter 21 395502 (2009);
          URL http://www.quantum-espresso.org", 
     in publications or presentations arising from this work. More details at
     http://www.quantum-espresso.org/quote

     Parallel version (MPI), running on    64 processors
     K-points division:     npool     =       4
     R & G space division:  proc/nbgrp/npool/nimage =      16
     Waiting for input...
     Reading input from standard input

     Current dimensions of program PWSCF are:
     Max number of different atomic species (ntypx) = 10
     Max number of k-points (npk) =  80000
     Max angular momentum in pseudopotentials (lmaxx) =  3

     Subspace diagonalization in iterative solution of the eigenvalue problem:
     a serial algorithm will be used


     Parallelization info
     --------------------
     sticks:   dense  smooth     PW     G-vecs:    dense   smooth      PW
     Min          69      34     11                 1519      536     101
     Max          70      35     12                 1521      539     103
     Sum        1111     559    187                24309     8609    1639



     bravais-lattice index     =            2
     lattice parameter (alat)  =      10.0200  a.u.
     unit-cell volume          =     251.5030 (a.u.)^3
     number of atoms/cell      =            1
     number of atomic types    =            1
     number of electrons       =         9.00
     number of Kohn-Sham states=            9
     kinetic-energy cutoff     =      40.0000  Ry
     charge density cutoff     =     320.0000  Ry
     convergence threshold     =      1.0E-10
     mixing beta               =       0.7000
     number of iterations used =            8  plain     mixing
     Exchange-correlation      = SLA  PW   PBE  PBE ( 1  4  3  4 0 0)

     celldm(1)=  10.020000  celldm(2)=   0.000000  celldm(3)=   0.000000
     celldm(4)=   0.000000  celldm(5)=   0.000000  celldm(6)=   0.000000

     crystal axes: (cart. coord. in units of alat)
               a(1) = (  -0.500000   0.000000   0.500000 )  
               a(2) = (   0.000000   0.500000   0.500000 )  
               a(3) = (  -0.500000   0.500000   0.000000 )  

     reciprocal axes: (cart. coord. in units 2 pi/alat)
               b(1) = ( -1.000000 -1.000000  1.000000 )  
               b(2) = (  1.000000  1.000000  1.000000 )  
               b(3) = ( -1.000000  1.000000 -1.000000 )  


     PseudoPot. # 1 for Na read from file:
     /home/s1333534/quantum_espresso/qe-6.1/pseudo/Na_pbe_v1.uspp.F.UPF
     MD5 check sum: 76a99c7e9422403d3e93cbc85ab7bccb
     Pseudo is Ultrasoft, Zval =  9.0
     Generated by new atomic code, or converted to UPF format
     Using radial grid of  819 points,  5 beta functions with: 
                l(1) =   0
                l(2) =   0
                l(3) =   1
                l(4) =   1
                l(5) =   2
     Q(r) pseudized with  8 coefficients,  rinner =    1.250   1.250   1.250
                                                       1.250   1.250

     atomic species   valence    mass     pseudopotential
        Na             9.00    22.99000     Na( 1.00)

     48 Sym. Ops., with inversion, found



   Cartesian axes

     site n.     atom                  positions (alat units)
         1           Na  tau(   1) = (   0.0000000   0.0000000   0.0000000  )

     number of k points=   770  Marzari-Vanderbilt smearing, width (Ry)=  0.0200

     Number of k-points >= 100: set verbosity='high' to print them.

     Dense  grid:    24309 G-vectors     FFT dimensions: (  45,  45,  45)

     Smooth grid:     8609 G-vectors     FFT dimensions: (  30,  30,  30)

     Estimated max dynamical RAM per process >       2.93MB

     Estimated total allocated dynamical RAM >     187.63MB

     Initial potential from superposition of free atoms

     starting charge    8.99371, renormalised to    9.00000
     Starting wfc are    5 randomized atomic wfcs +    4 random wfc

     total cpu time spent up to now is        1.0 secs

     per-process dynamical memory:     9.2 Mb

     Self-consistent Calculation

     iteration #  1     ecut=    40.00 Ry     beta=0.70
     Davidson diagonalization with overlap
     ethr =  1.00E-02,  avg # of iterations =  5.5

     Threshold (ethr) on eigenvalues was too large:
     Diagonalizing with lowered threshold

     Davidson diagonalization with overlap
     ethr =  9.78E-06,  avg # of iterations =  4.1

     total cpu time spent up to now is        8.9 secs

     total energy              =     -95.10647286 Ry
     Harris-Foulkes estimate   =     -95.10667031 Ry
     estimated scf accuracy    <       0.00087874 Ry

     iteration #  2     ecut=    40.00 Ry     beta=0.70
     Davidson diagonalization with overlap
     ethr =  9.76E-06,  avg # of iterations =  2.0

     total cpu time spent up to now is       11.1 secs

     total energy              =     -95.10656888 Ry
     Harris-Foulkes estimate   =     -95.10658951 Ry
     estimated scf accuracy    <       0.00009571 Ry

     iteration #  3     ecut=    40.00 Ry     beta=0.70
     Davidson diagonalization with overlap
     ethr =  1.06E-06,  avg # of iterations =  2.1

     total cpu time spent up to now is       13.9 secs

     total energy              =     -95.10658062 Ry
     Harris-Foulkes estimate   =     -95.10658159 Ry
     estimated scf accuracy    <       0.00000573 Ry

     iteration #  4     ecut=    40.00 Ry     beta=0.70
     Davidson diagonalization with overlap
     ethr =  6.36E-08,  avg # of iterations =  1.0

     total cpu time spent up to now is       15.9 secs

     total energy              =     -95.10658117 Ry
     Harris-Foulkes estimate   =     -95.10658112 Ry
     estimated scf accuracy    <       0.00000001 Ry

     iteration #  5     ecut=    40.00 Ry     beta=0.70
     Davidson diagonalization with overlap
     ethr =  1.35E-10,  avg # of iterations =  3.0

     total cpu time spent up to now is       18.8 secs

     total energy              =     -95.10658120 Ry
     Harris-Foulkes estimate   =     -95.10658120 Ry
     estimated scf accuracy    <          1.7E-09 Ry

     iteration #  6     ecut=    40.00 Ry     beta=0.70
     Davidson diagonalization with overlap
     ethr =  1.83E-11,  avg # of iterations =  1.6

     total cpu time spent up to now is       20.9 secs

     End of self-consistent calculation

     Number of k-points >= 100: set verbosity='high' to print the bands.

     the Fermi energy is     1.5817 ev

!    total energy              =     -95.10658120 Ry
     Harris-Foulkes estimate   =     -95.10658120 Ry
     estimated scf accuracy    <          6.4E-12 Ry

     The total energy is the sum of the following terms:

     one-electron contribution =     -88.26126127 Ry
     hartree contribution      =      44.48581589 Ry
     xc contribution           =     -14.26783224 Ry
     ewald contribution        =     -37.06325629 Ry
     smearing contrib. (-TS)   =      -0.00004730 Ry

     convergence has been achieved in   6 iterations


     Computing stress (Cartesian axis) and pressure

          total   stress  (Ry/bohr**3)                   (kbar)     P=   -3.18
  -0.00002161   0.00000000   0.00000000         -3.18      0.00      0.00
   0.00000000  -0.00002161  -0.00000000          0.00     -3.18     -0.00
   0.00000000  -0.00000000  -0.00002161          0.00     -0.00     -3.18


     Writing output data file na.fcc.save

     init_run     :      0.77s CPU      0.84s WALL (       1 calls)
     electrons    :     18.76s CPU     19.92s WALL (       1 calls)
     stress       :      0.41s CPU      0.41s WALL (       1 calls)

     Called by init_run:
     wfcinit      :      0.59s CPU      0.63s WALL (       1 calls)
     potinit      :      0.03s CPU      0.03s WALL (       1 calls)

     Called by electrons:
     c_bands      :     16.16s CPU     17.21s WALL (       7 calls)
     sum_band     :      2.42s CPU      2.52s WALL (       7 calls)
     v_of_rho     :      0.09s CPU      0.09s WALL (       7 calls)
     newd         :      0.07s CPU      0.07s WALL (       7 calls)
     mix_rho      :      0.01s CPU      0.01s WALL (       7 calls)

     Called by c_bands:
     init_us_2    :      0.25s CPU      0.26s WALL (    3088 calls)
     cegterg      :     13.87s CPU     14.89s WALL (    1351 calls)

     Called by sum_band:
     sum_band:bec :      0.01s CPU      0.02s WALL (    1351 calls)
     addusdens    :      0.08s CPU      0.09s WALL (       7 calls)

     Called by *egterg:
     h_psi        :     10.43s CPU     11.02s WALL (    5407 calls)
     s_psi        :      0.11s CPU      0.12s WALL (    5407 calls)
     g_psi        :      0.03s CPU      0.03s WALL (    3863 calls)
     cdiaghg      :      2.28s CPU      2.48s WALL (    5021 calls)

     Called by h_psi:
     h_psi:pot    :     10.39s CPU     10.98s WALL (    5407 calls)
     h_psi:calbec :      0.43s CPU      0.46s WALL (    5407 calls)
     vloc_psi     :      9.79s CPU     10.34s WALL (    5407 calls)
     add_vuspsi   :      0.12s CPU      0.12s WALL (    5407 calls)

     General routines
     calbec       :      0.55s CPU      0.58s WALL (    6951 calls)
     fft          :      0.08s CPU      0.09s WALL (     117 calls)
     ffts         :      0.01s CPU      0.01s WALL (      14 calls)
     fftw         :     10.52s CPU     11.08s WALL (   79203 calls)
     interpolate  :      0.02s CPU      0.02s WALL (      14 calls)
     davcio       :      0.01s CPU      0.10s WALL (     193 calls)

     Parallel routines
     fft_scatter  :      4.92s CPU      5.20s WALL (   79334 calls)

     PWSCF        :    22.91s CPU        24.41s WALL


   This run was terminated on:   3:41:38   1Feb2018            

=------------------------------------------------------------------------------=
   JOB DONE.
=------------------------------------------------------------------------------=
