
     Program PHONON v.6.1 (svn rev. 13369) starts on 21Dec2017 at 11:51:42 

     This program is part of the open-source Quantum ESPRESSO suite
     for quantum simulation of materials; please cite
         "P. Giannozzi et al., J. Phys.:Condens. Matter 21 395502 (2009);
          URL http://www.quantum-espresso.org", 
     in publications or presentations arising from this work. More details at
     http://www.quantum-espresso.org/quote

     Parallel version (MPI), running on     4 processors
     R & G space division:  proc/nbgrp/npool/nimage =       4

     Reading data from directory:
     ./na.bcc.save

   Info: using nr1, nr2, nr3 values from input

   Info: using nr1, nr2, nr3 values from input

     IMPORTANT: XC functional enforced from input :
     Exchange-correlation      = SLA  PW   PBE  PBE ( 1  4  3  4 0 0)
     Any further DFT definition will be discarded
     Please, verify this is what you really want


     Parallelization info
     --------------------
     sticks:   dense  smooth     PW     G-vecs:    dense   smooth      PW
     Min         229     116     37                 4446     1584     289
     Max         231     117     38                 4448     1585     290
     Sum         921     467    151                17789     6339    1157



     Dynamical matrices for ( 8, 8, 8)  uniform grid of q-points
     (  29q-points):
       N         xq(1)         xq(2)         xq(3) 
       1   0.000000000   0.000000000   0.000000000
       2   0.000000000  -0.125000000   0.125000000
       3   0.000000000  -0.250000000   0.250000000
       4   0.000000000  -0.375000000   0.375000000
       5   0.000000000   0.500000000  -0.500000000
       6  -0.125000000  -0.125000000   0.250000000
       7  -0.125000000  -0.250000000   0.375000000
       8  -0.125000000   0.625000000  -0.500000000
       9  -0.250000000   0.750000000  -0.500000000
      10  -0.250000000   0.625000000  -0.375000000
      11   0.000000000   0.000000000   0.250000000
      12   0.000000000  -0.125000000   0.375000000
      13   0.000000000  -0.250000000   0.500000000
      14   0.000000000   0.625000000  -0.375000000
      15  -0.125000000  -0.125000000   0.500000000
      16  -0.125000000   0.750000000  -0.375000000
      17  -0.250000000   0.250000000   0.250000000
      18  -0.250000000   0.750000000  -0.250000000
      19   0.625000000  -0.625000000   0.250000000
      20   0.500000000  -0.500000000   0.250000000
      21   0.500000000  -0.625000000   0.375000000
      22   0.000000000   0.000000000   0.500000000
      23   0.000000000  -0.125000000   0.625000000
      24   0.000000000   0.750000000  -0.250000000
      25  -0.125000000   0.875000000  -0.250000000
      26   0.500000000  -0.500000000   0.500000000
      27   0.000000000   0.000000000   0.750000000
      28   0.000000000   0.875000000  -0.125000000
      29   0.000000000   0.000000000  -1.000000000

     Calculation of q =    0.0000000   0.0000000   0.0000000

                                                                                

     bravais-lattice index     =            3
     lattice parameter (alat)  =       7.1485  a.u.
     unit-cell volume          =     182.6509 (a.u.)^3
     number of atoms/cell      =            1
     number of atomic types    =            1
     kinetic-energy cut-off    =      40.0000  Ry
     charge density cut-off    =     320.0000  Ry
     convergence threshold     =      1.0E-12
     beta                      =       0.7000
     number of iterations used =            4
     Exchange-correlation      = SLA  PW   PBE  PBE ( 1  4  3  4 0 0)


     celldm(1)=    7.14854  celldm(2)=    0.00000  celldm(3)=    0.00000
     celldm(4)=    0.00000  celldm(5)=    0.00000  celldm(6)=    0.00000

     crystal axes: (cart. coord. in units of alat)
               a(1) = (  0.5000  0.5000  0.5000 )  
               a(2) = ( -0.5000  0.5000  0.5000 )  
               a(3) = ( -0.5000 -0.5000  0.5000 )  

     reciprocal axes: (cart. coord. in units 2 pi/alat)
               b(1) = (  1.0000  0.0000  1.0000 )  
               b(2) = ( -1.0000  1.0000  0.0000 )  
               b(3) = (  0.0000 -1.0000  1.0000 )  


     Atoms inside the unit cell: 

     Cartesian axes

     site n.  atom      mass           positions (alat units)
        1     Na  22.9900   tau(    1) = (    0.00000    0.00000    0.00000  )

     Computing dynamical matrix for 
                    q = (   0.0000000   0.0000000   0.0000000 )

     49 Sym.Ops. (with q -> -q+G )


     G cutoff =  414.2140  (   4448 G-vectors)     FFT grid: ( 36, 36, 36)
     G cutoff =  207.1070  (   1584 G-vectors)  smooth grid: ( 25, 25, 25)

     number of k points=   100  Marzari-Vanderbilt smearing, width (Ry)=  0.0200

     PseudoPot. # 1 for Na read from file:
     /home/s1333534/quantum_espresso/qe-6.1/pseudo/Na_pbe_v1.uspp.F.UPF
     MD5 check sum: 76a99c7e9422403d3e93cbc85ab7bccb
     Pseudo is Ultrasoft, Zval =  9.0
     Generated by new atomic code, or converted to UPF format
     Using radial grid of  819 points,  5 beta functions with: 
                l(1) =   0
                l(2) =   0
                l(3) =   1
                l(4) =   1
                l(5) =   2
     Q(r) pseudized with  8 coefficients,  rinner =    1.250   1.250   1.250
                                                       1.250   1.250

     Mode symmetry, O_h (m-3m)  point group:


     Atomic displacements:
     There are   1 irreducible representations

     Representation     1      3 modes -T_1u G_15  G_4-  To be done



     Alpha used in Ewald sum =   2.8000
     PHONON       :     0.93s CPU         0.99s WALL



     Representation #  1 modes #   1  2  3

     Self-consistent Calculation

     Pert. #  1: Fermi energy shift (Ry) =     1.8956E-25     2.1943E-37
     Pert. #  2: Fermi energy shift (Ry) =     5.6438E-25    -1.7241E-37
     Pert. #  3: Fermi energy shift (Ry) =     2.1541E-26     2.0375E-37

      iter #   1 total cpu time :     3.1 secs   av.it.:   5.4
      thresh= 1.000E-02 alpha_mix =  0.700 |ddv_scf|^2 =  2.420E-06

     Pert. #  1: Fermi energy shift (Ry) =    -6.8932E-25    -1.9592E-39
     Pert. #  2: Fermi energy shift (Ry) =    -1.0340E-24    -4.8979E-39
     Pert. #  3: Fermi energy shift (Ry) =     6.8932E-26    -3.4285E-39

      iter #   2 total cpu time :     5.4 secs   av.it.:   8.4
      thresh= 1.556E-04 alpha_mix =  0.700 |ddv_scf|^2 =  4.709E-08

     Pert. #  1: Fermi energy shift (Ry) =     3.4466E-26    -4.8979E-40
     Pert. #  2: Fermi energy shift (Ry) =     1.7750E-24     1.1020E-39
     Pert. #  3: Fermi energy shift (Ry) =    -1.2063E-25     4.8979E-40

      iter #   3 total cpu time :     7.7 secs   av.it.:   8.5
      thresh= 2.170E-05 alpha_mix =  0.700 |ddv_scf|^2 =  5.666E-10

     Pert. #  1: Fermi energy shift (Ry) =    -4.4806E-25     9.1835E-41
     Pert. #  2: Fermi energy shift (Ry) =    -1.0340E-24     5.2040E-40
     Pert. #  3: Fermi energy shift (Ry) =    -3.4466E-26     4.5918E-41

      iter #   4 total cpu time :     9.9 secs   av.it.:   8.0
      thresh= 2.380E-06 alpha_mix =  0.700 |ddv_scf|^2 =  2.186E-12

     Pert. #  1: Fermi energy shift (Ry) =    -6.8932E-25    -9.1835E-41
     Pert. #  2: Fermi energy shift (Ry) =    -2.4643E-24    -9.1835E-41
     Pert. #  3: Fermi energy shift (Ry) =     3.1019E-25    -9.1835E-41

      iter #   5 total cpu time :    12.2 secs   av.it.:   8.2
      thresh= 1.478E-07 alpha_mix =  0.700 |ddv_scf|^2 =  7.310E-15

     End of self-consistent calculation

     Convergence has been achieved 

     Number of q in the star =    1
     List of q in the star:
          1   0.000000000   0.000000000   0.000000000

     Diagonalizing the dynamical matrix

     q = (    0.000000000   0.000000000   0.000000000 ) 

 **************************************************************************
     freq (    1) =      -0.297911 [THz] =      -9.937256 [cm-1]
     freq (    2) =      -0.297911 [THz] =      -9.937256 [cm-1]
     freq (    3) =      -0.297911 [THz] =      -9.937256 [cm-1]
 **************************************************************************

     Mode symmetry, O_h (m-3m)  point group:

     freq (  1 -  3) =         -9.9  [cm-1]   --> T_1u G_15  G_4- I  

     Calculation of q =    0.0000000  -0.1250000   0.1250000

   Info: using nr1, nr2, nr3 values from input

   Info: using nr1, nr2, nr3 values from input

     Parallelization info
     --------------------
     sticks:   dense  smooth     PW     G-vecs:    dense   smooth      PW
     Min         230     116     38                 4447     1584     301
     Max         231     117     39                 4448     1585     302
     Sum         921     467    155                17789     6339    1205



     bravais-lattice index     =            3
     lattice parameter (alat)  =       7.1485  a.u.
     unit-cell volume          =     182.6509 (a.u.)^3
     number of atoms/cell      =            1
     number of atomic types    =            1
     number of electrons       =         9.00
     number of Kohn-Sham states=            9
     kinetic-energy cutoff     =      40.0000  Ry
     charge density cutoff     =     320.0000  Ry
     Exchange-correlation      = SLA  PW   PBE  PBE ( 1  4  3  4 0 0)

     celldm(1)=   7.148538  celldm(2)=   0.000000  celldm(3)=   0.000000
     celldm(4)=   0.000000  celldm(5)=   0.000000  celldm(6)=   0.000000

     crystal axes: (cart. coord. in units of alat)
               a(1) = (   0.500000   0.500000   0.500000 )  
               a(2) = (  -0.500000   0.500000   0.500000 )  
               a(3) = (  -0.500000  -0.500000   0.500000 )  

     reciprocal axes: (cart. coord. in units 2 pi/alat)
               b(1) = (  1.000000  0.000000  1.000000 )  
               b(2) = ( -1.000000  1.000000  0.000000 )  
               b(3) = (  0.000000 -1.000000  1.000000 )  


     PseudoPot. # 1 for Na read from file:
     /home/s1333534/quantum_espresso/qe-6.1/pseudo/Na_pbe_v1.uspp.F.UPF
     MD5 check sum: 76a99c7e9422403d3e93cbc85ab7bccb
     Pseudo is Ultrasoft, Zval =  9.0
     Generated by new atomic code, or converted to UPF format
     Using radial grid of  819 points,  5 beta functions with: 
                l(1) =   0
                l(2) =   0
                l(3) =   1
                l(4) =   1
                l(5) =   2
     Q(r) pseudized with  8 coefficients,  rinner =    1.250   1.250   1.250
                                                       1.250   1.250

     atomic species   valence    mass     pseudopotential
        Na             9.00    22.99000     Na( 1.00)

     48 Sym. Ops., with inversion, found



   Cartesian axes

     site n.     atom                  positions (alat units)
         1           Na  tau(   1) = (   0.0000000   0.0000000   0.0000000  )

     number of k points=  1568  Marzari-Vanderbilt smearing, width (Ry)=  0.0200

     Number of k-points >= 100: set verbosity='high' to print them.

     Dense  grid:    17789 G-vectors     FFT dimensions: (  36,  36,  36)

     Smooth grid:     6339 G-vectors     FFT dimensions: (  25,  25,  25)

     Estimated max dynamical RAM per process >       1.64MB

     Estimated total allocated dynamical RAM >       6.56MB

     The potential is recalculated from file :
     ./_ph0/na.bcc.save/charge-density.dat

     Starting wfc are    5 atomic +    4 random wfc

     Band Structure Calculation
     Davidson diagonalization with overlap

     ethr =  1.11E-10,  avg # of iterations = 18.8

     total cpu time spent up to now is       30.3 secs

     End of band structure calculation

     Number of k-points >= 100: set verbosity='high' to print the bands.

     the Fermi energy is     3.1779 ev

     Writing output data file na.bcc.save

                                                                                

     bravais-lattice index     =            3
     lattice parameter (alat)  =       7.1485  a.u.
     unit-cell volume          =     182.6509 (a.u.)^3
     number of atoms/cell      =            1
     number of atomic types    =            1
     kinetic-energy cut-off    =      40.0000  Ry
     charge density cut-off    =     320.0000  Ry
     convergence threshold     =      1.0E-12
     beta                      =       0.7000
     number of iterations used =            4
     Exchange-correlation      = SLA  PW   PBE  PBE ( 1  4  3  4 0 0)


     celldm(1)=    7.14854  celldm(2)=    0.00000  celldm(3)=    0.00000
     celldm(4)=    0.00000  celldm(5)=    0.00000  celldm(6)=    0.00000

     crystal axes: (cart. coord. in units of alat)
               a(1) = (  0.5000  0.5000  0.5000 )  
               a(2) = ( -0.5000  0.5000  0.5000 )  
               a(3) = ( -0.5000 -0.5000  0.5000 )  

     reciprocal axes: (cart. coord. in units 2 pi/alat)
               b(1) = (  1.0000  0.0000  1.0000 )  
               b(2) = ( -1.0000  1.0000  0.0000 )  
               b(3) = (  0.0000 -1.0000  1.0000 )  


     Atoms inside the unit cell: 

     Cartesian axes

     site n.  atom      mass           positions (alat units)
        1     Na  22.9900   tau(    1) = (    0.00000    0.00000    0.00000  )

     Computing dynamical matrix for 
                    q = (   0.0000000  -0.1250000   0.1250000 )

      4 Sym.Ops. (no q -> -q+G )


     G cutoff =  414.2140  (   4447 G-vectors)     FFT grid: ( 36, 36, 36)
     G cutoff =  207.1070  (   1584 G-vectors)  smooth grid: ( 25, 25, 25)

     number of k points=  1568  Marzari-Vanderbilt smearing, width (Ry)=  0.0200

     PseudoPot. # 1 for Na read from file:
     /home/s1333534/quantum_espresso/qe-6.1/pseudo/Na_pbe_v1.uspp.F.UPF
     MD5 check sum: 76a99c7e9422403d3e93cbc85ab7bccb
     Pseudo is Ultrasoft, Zval =  9.0
     Generated by new atomic code, or converted to UPF format
     Using radial grid of  819 points,  5 beta functions with: 
                l(1) =   0
                l(2) =   0
                l(3) =   1
                l(4) =   1
                l(5) =   2
     Q(r) pseudized with  8 coefficients,  rinner =    1.250   1.250   1.250
                                                       1.250   1.250

     Mode symmetry, C_2v (mm2)  point group:


     Atomic displacements:
     There are   3 irreducible representations

     Representation     1      1 modes -A_1  D_1  S_1  To be done

     Representation     2      1 modes -B_1  D_3  S_3  To be done

     Representation     3      1 modes -B_2  D_4  S_4  To be done



     Alpha used in Ewald sum =   2.8000
     PHONON       :    42.85s CPU        46.15s WALL



     Representation #  1 mode #   1

     Self-consistent Calculation

      iter #   1 total cpu time :    50.9 secs   av.it.:   5.7
      thresh= 1.000E-02 alpha_mix =  0.700 |ddv_scf|^2 =  3.053E-01

      iter #   2 total cpu time :    55.8 secs   av.it.:   7.0
      thresh= 1.000E-02 alpha_mix =  0.700 |ddv_scf|^2 =  1.217E+02

      iter #   3 total cpu time :    60.6 secs   av.it.:   7.0
      thresh= 1.000E-02 alpha_mix =  0.700 |ddv_scf|^2 =  2.536E-04

      iter #   4 total cpu time :    64.6 secs   av.it.:   5.3
      thresh= 1.592E-03 alpha_mix =  0.700 |ddv_scf|^2 =  4.432E-07

      iter #   5 total cpu time :    69.4 secs   av.it.:   7.0
      thresh= 6.657E-05 alpha_mix =  0.700 |ddv_scf|^2 =  7.696E-09

      iter #   6 total cpu time :    74.3 secs   av.it.:   7.0
      thresh= 8.773E-06 alpha_mix =  0.700 |ddv_scf|^2 =  5.197E-07

      iter #   7 total cpu time :    77.5 secs   av.it.:   4.1
      thresh= 7.209E-05 alpha_mix =  0.700 |ddv_scf|^2 =  2.097E-10

      iter #   8 total cpu time :    82.6 secs   av.it.:   7.4
      thresh= 1.448E-06 alpha_mix =  0.700 |ddv_scf|^2 =  1.194E-11

      iter #   9 total cpu time :    87.5 secs   av.it.:   7.3
      thresh= 3.456E-07 alpha_mix =  0.700 |ddv_scf|^2 =  8.453E-14

     End of self-consistent calculation

     Convergence has been achieved 


     Representation #  2 mode #   2

     Self-consistent Calculation

      iter #   1 total cpu time :    92.3 secs   av.it.:   5.4
      thresh= 1.000E-02 alpha_mix =  0.700 |ddv_scf|^2 =  2.193E-05

      iter #   2 total cpu time :    97.3 secs   av.it.:   7.3
      thresh= 4.683E-04 alpha_mix =  0.700 |ddv_scf|^2 =  4.209E-07

      iter #   3 total cpu time :   102.4 secs   av.it.:   7.6
      thresh= 6.487E-05 alpha_mix =  0.700 |ddv_scf|^2 =  5.421E-09

      iter #   4 total cpu time :   107.3 secs   av.it.:   7.2
      thresh= 7.363E-06 alpha_mix =  0.700 |ddv_scf|^2 =  2.055E-11

      iter #   5 total cpu time :   112.3 secs   av.it.:   7.3
      thresh= 4.533E-07 alpha_mix =  0.700 |ddv_scf|^2 =  6.337E-14

     End of self-consistent calculation

     Convergence has been achieved 


     Representation #  3 mode #   3

     Self-consistent Calculation

      iter #   1 total cpu time :   117.1 secs   av.it.:   5.4
      thresh= 1.000E-02 alpha_mix =  0.700 |ddv_scf|^2 =  2.239E-05

      iter #   2 total cpu time :   122.1 secs   av.it.:   7.3
      thresh= 4.732E-04 alpha_mix =  0.700 |ddv_scf|^2 =  4.187E-07

      iter #   3 total cpu time :   127.2 secs   av.it.:   7.6
      thresh= 6.471E-05 alpha_mix =  0.700 |ddv_scf|^2 =  6.447E-09

      iter #   4 total cpu time :   132.2 secs   av.it.:   7.2
      thresh= 8.029E-06 alpha_mix =  0.700 |ddv_scf|^2 =  2.418E-11

      iter #   5 total cpu time :   137.2 secs   av.it.:   7.3
      thresh= 4.918E-07 alpha_mix =  0.700 |ddv_scf|^2 =  6.404E-14

     End of self-consistent calculation

     Convergence has been achieved 

     Number of q in the star =   12
     List of q in the star:
          1   0.000000000  -0.125000000   0.125000000
          2   0.125000000   0.000000000   0.125000000
          3  -0.125000000   0.000000000   0.125000000
          4   0.000000000   0.125000000   0.125000000
          5   0.125000000  -0.125000000   0.000000000
          6  -0.125000000   0.000000000  -0.125000000
          7   0.125000000   0.000000000  -0.125000000
          8   0.000000000  -0.125000000  -0.125000000
          9  -0.125000000  -0.125000000   0.000000000
         10  -0.125000000   0.125000000   0.000000000
         11   0.125000000   0.125000000   0.000000000
         12   0.000000000   0.125000000  -0.125000000

     Diagonalizing the dynamical matrix

     q = (    0.000000000  -0.125000000   0.125000000 ) 

 **************************************************************************
     freq (    1) =       0.894351 [THz] =      29.832329 [cm-1]
     freq (    2) =       1.354653 [THz] =      45.186354 [cm-1]
     freq (    3) =       2.557353 [THz] =      85.304101 [cm-1]
 **************************************************************************

     Mode symmetry, C_2v (mm2)  point group:

     freq (  1 -  1) =         29.8  [cm-1]   --> B_1  D_3  S_3      
     freq (  2 -  2) =         45.2  [cm-1]   --> B_2  D_4  S_4      
     freq (  3 -  3) =         85.3  [cm-1]   --> A_1  D_1  S_1      

     Calculation of q =    0.0000000  -0.2500000   0.2500000

   Info: using nr1, nr2, nr3 values from input

   Info: using nr1, nr2, nr3 values from input

     Parallelization info
     --------------------
     sticks:   dense  smooth     PW     G-vecs:    dense   smooth      PW
     Min         230     116     41                 4447     1584     322
     Max         231     117     42                 4448     1585     323
     Sum         921     467    165                17789     6339    1289



     bravais-lattice index     =            3
     lattice parameter (alat)  =       7.1485  a.u.
     unit-cell volume          =     182.6509 (a.u.)^3
     number of atoms/cell      =            1
     number of atomic types    =            1
     number of electrons       =         9.00
     number of Kohn-Sham states=            9
     kinetic-energy cutoff     =      40.0000  Ry
     charge density cutoff     =     320.0000  Ry
     Exchange-correlation      = SLA  PW   PBE  PBE ( 1  4  3  4 0 0)

     celldm(1)=   7.148538  celldm(2)=   0.000000  celldm(3)=   0.000000
     celldm(4)=   0.000000  celldm(5)=   0.000000  celldm(6)=   0.000000

     crystal axes: (cart. coord. in units of alat)
               a(1) = (   0.500000   0.500000   0.500000 )  
               a(2) = (  -0.500000   0.500000   0.500000 )  
               a(3) = (  -0.500000  -0.500000   0.500000 )  

     reciprocal axes: (cart. coord. in units 2 pi/alat)
               b(1) = (  1.000000  0.000000  1.000000 )  
               b(2) = ( -1.000000  1.000000  0.000000 )  
               b(3) = (  0.000000 -1.000000  1.000000 )  


     PseudoPot. # 1 for Na read from file:
     /home/s1333534/quantum_espresso/qe-6.1/pseudo/Na_pbe_v1.uspp.F.UPF
     MD5 check sum: 76a99c7e9422403d3e93cbc85ab7bccb
     Pseudo is Ultrasoft, Zval =  9.0
     Generated by new atomic code, or converted to UPF format
     Using radial grid of  819 points,  5 beta functions with: 
                l(1) =   0
                l(2) =   0
                l(3) =   1
                l(4) =   1
                l(5) =   2
     Q(r) pseudized with  8 coefficients,  rinner =    1.250   1.250   1.250
                                                       1.250   1.250

     atomic species   valence    mass     pseudopotential
        Na             9.00    22.99000     Na( 1.00)

     48 Sym. Ops., with inversion, found



   Cartesian axes

     site n.     atom                  positions (alat units)
         1           Na  tau(   1) = (   0.0000000   0.0000000   0.0000000  )

     number of k points=  1568  Marzari-Vanderbilt smearing, width (Ry)=  0.0200

     Number of k-points >= 100: set verbosity='high' to print them.

     Dense  grid:    17789 G-vectors     FFT dimensions: (  36,  36,  36)

     Smooth grid:     6339 G-vectors     FFT dimensions: (  25,  25,  25)

     Estimated max dynamical RAM per process >       1.64MB

     Estimated total allocated dynamical RAM >       6.56MB

     The potential is recalculated from file :
     ./_ph0/na.bcc.save/charge-density.dat

     Starting wfc are    5 atomic +    4 random wfc

     Band Structure Calculation
     Davidson diagonalization with overlap

     ethr =  1.11E-10,  avg # of iterations = 18.8

     total cpu time spent up to now is       61.9 secs

     End of band structure calculation

     Number of k-points >= 100: set verbosity='high' to print the bands.

     the Fermi energy is     3.1779 ev

     Writing output data file na.bcc.save

                                                                                

     bravais-lattice index     =            3
     lattice parameter (alat)  =       7.1485  a.u.
     unit-cell volume          =     182.6509 (a.u.)^3
     number of atoms/cell      =            1
     number of atomic types    =            1
     kinetic-energy cut-off    =      40.0000  Ry
     charge density cut-off    =     320.0000  Ry
     convergence threshold     =      1.0E-12
     beta                      =       0.7000
     number of iterations used =            4
     Exchange-correlation      = SLA  PW   PBE  PBE ( 1  4  3  4 0 0)


     celldm(1)=    7.14854  celldm(2)=    0.00000  celldm(3)=    0.00000
     celldm(4)=    0.00000  celldm(5)=    0.00000  celldm(6)=    0.00000

     crystal axes: (cart. coord. in units of alat)
               a(1) = (  0.5000  0.5000  0.5000 )  
               a(2) = ( -0.5000  0.5000  0.5000 )  
               a(3) = ( -0.5000 -0.5000  0.5000 )  

     reciprocal axes: (cart. coord. in units 2 pi/alat)
               b(1) = (  1.0000  0.0000  1.0000 )  
               b(2) = ( -1.0000  1.0000  0.0000 )  
               b(3) = (  0.0000 -1.0000  1.0000 )  


     Atoms inside the unit cell: 

     Cartesian axes

     site n.  atom      mass           positions (alat units)
        1     Na  22.9900   tau(    1) = (    0.00000    0.00000    0.00000  )

     Computing dynamical matrix for 
                    q = (   0.0000000  -0.2500000   0.2500000 )

      4 Sym.Ops. (no q -> -q+G )


     G cutoff =  414.2140  (   4447 G-vectors)     FFT grid: ( 36, 36, 36)
     G cutoff =  207.1070  (   1584 G-vectors)  smooth grid: ( 25, 25, 25)

     number of k points=  1568  Marzari-Vanderbilt smearing, width (Ry)=  0.0200

     PseudoPot. # 1 for Na read from file:
     /home/s1333534/quantum_espresso/qe-6.1/pseudo/Na_pbe_v1.uspp.F.UPF
     MD5 check sum: 76a99c7e9422403d3e93cbc85ab7bccb
     Pseudo is Ultrasoft, Zval =  9.0
     Generated by new atomic code, or converted to UPF format
     Using radial grid of  819 points,  5 beta functions with: 
                l(1) =   0
                l(2) =   0
                l(3) =   1
                l(4) =   1
                l(5) =   2
     Q(r) pseudized with  8 coefficients,  rinner =    1.250   1.250   1.250
                                                       1.250   1.250

     Mode symmetry, C_2v (mm2)  point group:


     Atomic displacements:
     There are   3 irreducible representations

     Representation     1      1 modes -A_1  D_1  S_1  To be done

     Representation     2      1 modes -B_1  D_3  S_3  To be done

     Representation     3      1 modes -B_2  D_4  S_4  To be done



     Alpha used in Ewald sum =   2.8000
     PHONON       :  2m37.58s CPU     2m51.42s WALL



     Representation #  1 mode #   1

     Self-consistent Calculation

      iter #   1 total cpu time :   176.3 secs   av.it.:   5.7
      thresh= 1.000E-02 alpha_mix =  0.700 |ddv_scf|^2 =  4.993E-03

      iter #   2 total cpu time :   180.7 secs   av.it.:   6.1
      thresh= 7.066E-03 alpha_mix =  0.700 |ddv_scf|^2 =  9.638E-02

      iter #   3 total cpu time :   185.1 secs   av.it.:   5.8
      thresh= 1.000E-02 alpha_mix =  0.700 |ddv_scf|^2 =  4.249E-06

      iter #   4 total cpu time :   190.0 secs   av.it.:   7.2
      thresh= 2.061E-04 alpha_mix =  0.700 |ddv_scf|^2 =  1.928E-08

      iter #   5 total cpu time :   195.4 secs   av.it.:   7.9
      thresh= 1.389E-05 alpha_mix =  0.700 |ddv_scf|^2 =  2.732E-09

      iter #   6 total cpu time :   200.6 secs   av.it.:   7.6
      thresh= 5.227E-06 alpha_mix =  0.700 |ddv_scf|^2 =  4.021E-11

      iter #   7 total cpu time :   206.2 secs   av.it.:   7.9
      thresh= 6.341E-07 alpha_mix =  0.700 |ddv_scf|^2 =  3.037E-11

      iter #   8 total cpu time :   210.5 secs   av.it.:   5.8
      thresh= 5.511E-07 alpha_mix =  0.700 |ddv_scf|^2 =  2.468E-11

      iter #   9 total cpu time :   215.0 secs   av.it.:   6.3
      thresh= 4.968E-07 alpha_mix =  0.700 |ddv_scf|^2 =  8.019E-13

     End of self-consistent calculation

     Convergence has been achieved 


     Representation #  2 mode #   2

     Self-consistent Calculation

      iter #   1 total cpu time :   219.8 secs   av.it.:   5.5
      thresh= 1.000E-02 alpha_mix =  0.700 |ddv_scf|^2 =  2.234E-05

      iter #   2 total cpu time :   224.9 secs   av.it.:   7.4
      thresh= 4.726E-04 alpha_mix =  0.700 |ddv_scf|^2 =  4.111E-07

      iter #   3 total cpu time :   230.1 secs   av.it.:   7.6
      thresh= 6.412E-05 alpha_mix =  0.700 |ddv_scf|^2 =  6.488E-09

      iter #   4 total cpu time :   235.1 secs   av.it.:   7.2
      thresh= 8.055E-06 alpha_mix =  0.700 |ddv_scf|^2 =  2.329E-11

      iter #   5 total cpu time :   240.2 secs   av.it.:   7.4
      thresh= 4.826E-07 alpha_mix =  0.700 |ddv_scf|^2 =  5.621E-14

     End of self-consistent calculation

     Convergence has been achieved 


     Representation #  3 mode #   3

     Self-consistent Calculation

      iter #   1 total cpu time :   245.0 secs   av.it.:   5.4
      thresh= 1.000E-02 alpha_mix =  0.700 |ddv_scf|^2 =  2.396E-05

      iter #   2 total cpu time :   250.2 secs   av.it.:   7.3
      thresh= 4.895E-04 alpha_mix =  0.700 |ddv_scf|^2 =  4.041E-07

      iter #   3 total cpu time :   255.4 secs   av.it.:   7.6
      thresh= 6.357E-05 alpha_mix =  0.700 |ddv_scf|^2 =  1.029E-08

      iter #   4 total cpu time :   260.4 secs   av.it.:   7.3
      thresh= 1.014E-05 alpha_mix =  0.700 |ddv_scf|^2 =  3.737E-11

      iter #   5 total cpu time :   265.5 secs   av.it.:   7.4
      thresh= 6.113E-07 alpha_mix =  0.700 |ddv_scf|^2 =  6.224E-14

     End of self-consistent calculation

     Convergence has been achieved 

     Number of q in the star =   12
     List of q in the star:
          1   0.000000000  -0.250000000   0.250000000
          2   0.250000000   0.000000000   0.250000000
          3  -0.250000000   0.000000000   0.250000000
          4   0.000000000   0.250000000   0.250000000
          5   0.250000000  -0.250000000   0.000000000
          6  -0.250000000   0.000000000  -0.250000000
          7   0.250000000   0.000000000  -0.250000000
          8   0.000000000  -0.250000000  -0.250000000
          9  -0.250000000  -0.250000000   0.000000000
         10  -0.250000000   0.250000000   0.000000000
         11   0.250000000   0.250000000   0.000000000
         12   0.000000000   0.250000000  -0.250000000

     Diagonalizing the dynamical matrix

     q = (    0.000000000  -0.250000000   0.250000000 ) 

 **************************************************************************
     freq (    1) =       1.306212 [THz] =      43.570547 [cm-1]
     freq (    2) =       2.349487 [THz] =      78.370452 [cm-1]
     freq (    3) =       4.323298 [THz] =     144.209682 [cm-1]
 **************************************************************************

     Mode symmetry, C_2v (mm2)  point group:

     freq (  1 -  1) =         43.6  [cm-1]   --> B_1  D_3  S_3      
     freq (  2 -  2) =         78.4  [cm-1]   --> B_2  D_4  S_4      
     freq (  3 -  3) =        144.2  [cm-1]   --> A_1  D_1  S_1      

     Calculation of q =    0.0000000  -0.3750000   0.3750000

   Info: using nr1, nr2, nr3 values from input

   Info: using nr1, nr2, nr3 values from input

     Parallelization info
     --------------------
     sticks:   dense  smooth     PW     G-vecs:    dense   smooth      PW
     Min         230     116     42                 4447     1584     352
     Max         231     117     43                 4448     1585     353
     Sum         921     467    169                17789     6339    1409



     bravais-lattice index     =            3
     lattice parameter (alat)  =       7.1485  a.u.
     unit-cell volume          =     182.6509 (a.u.)^3
     number of atoms/cell      =            1
     number of atomic types    =            1
     number of electrons       =         9.00
     number of Kohn-Sham states=            9
     kinetic-energy cutoff     =      40.0000  Ry
     charge density cutoff     =     320.0000  Ry
     Exchange-correlation      = SLA  PW   PBE  PBE ( 1  4  3  4 0 0)

     celldm(1)=   7.148538  celldm(2)=   0.000000  celldm(3)=   0.000000
     celldm(4)=   0.000000  celldm(5)=   0.000000  celldm(6)=   0.000000

     crystal axes: (cart. coord. in units of alat)
               a(1) = (   0.500000   0.500000   0.500000 )  
               a(2) = (  -0.500000   0.500000   0.500000 )  
               a(3) = (  -0.500000  -0.500000   0.500000 )  

     reciprocal axes: (cart. coord. in units 2 pi/alat)
               b(1) = (  1.000000  0.000000  1.000000 )  
               b(2) = ( -1.000000  1.000000  0.000000 )  
               b(3) = (  0.000000 -1.000000  1.000000 )  


     PseudoPot. # 1 for Na read from file:
     /home/s1333534/quantum_espresso/qe-6.1/pseudo/Na_pbe_v1.uspp.F.UPF
     MD5 check sum: 76a99c7e9422403d3e93cbc85ab7bccb
     Pseudo is Ultrasoft, Zval =  9.0
     Generated by new atomic code, or converted to UPF format
     Using radial grid of  819 points,  5 beta functions with: 
                l(1) =   0
                l(2) =   0
                l(3) =   1
                l(4) =   1
                l(5) =   2
     Q(r) pseudized with  8 coefficients,  rinner =    1.250   1.250   1.250
                                                       1.250   1.250

     atomic species   valence    mass     pseudopotential
        Na             9.00    22.99000     Na( 1.00)

     48 Sym. Ops., with inversion, found



   Cartesian axes

     site n.     atom                  positions (alat units)
         1           Na  tau(   1) = (   0.0000000   0.0000000   0.0000000  )

     number of k points=  1568  Marzari-Vanderbilt smearing, width (Ry)=  0.0200

     Number of k-points >= 100: set verbosity='high' to print them.

     Dense  grid:    17789 G-vectors     FFT dimensions: (  36,  36,  36)

     Smooth grid:     6339 G-vectors     FFT dimensions: (  25,  25,  25)

     Estimated max dynamical RAM per process >       1.64MB

     Estimated total allocated dynamical RAM >       6.56MB

     The potential is recalculated from file :
     ./_ph0/na.bcc.save/charge-density.dat

     Starting wfc are    5 atomic +    4 random wfc

     Band Structure Calculation
     Davidson diagonalization with overlap

     ethr =  1.11E-10,  avg # of iterations = 18.9

     total cpu time spent up to now is       93.6 secs

     End of band structure calculation

     Number of k-points >= 100: set verbosity='high' to print the bands.

     the Fermi energy is     3.1779 ev

     Writing output data file na.bcc.save

                                                                                

     bravais-lattice index     =            3
     lattice parameter (alat)  =       7.1485  a.u.
     unit-cell volume          =     182.6509 (a.u.)^3
     number of atoms/cell      =            1
     number of atomic types    =            1
     kinetic-energy cut-off    =      40.0000  Ry
     charge density cut-off    =     320.0000  Ry
     convergence threshold     =      1.0E-12
     beta                      =       0.7000
     number of iterations used =            4
     Exchange-correlation      = SLA  PW   PBE  PBE ( 1  4  3  4 0 0)


     celldm(1)=    7.14854  celldm(2)=    0.00000  celldm(3)=    0.00000
     celldm(4)=    0.00000  celldm(5)=    0.00000  celldm(6)=    0.00000

     crystal axes: (cart. coord. in units of alat)
               a(1) = (  0.5000  0.5000  0.5000 )  
               a(2) = ( -0.5000  0.5000  0.5000 )  
               a(3) = ( -0.5000 -0.5000  0.5000 )  

     reciprocal axes: (cart. coord. in units 2 pi/alat)
               b(1) = (  1.0000  0.0000  1.0000 )  
               b(2) = ( -1.0000  1.0000  0.0000 )  
               b(3) = (  0.0000 -1.0000  1.0000 )  


     Atoms inside the unit cell: 

     Cartesian axes

     site n.  atom      mass           positions (alat units)
        1     Na  22.9900   tau(    1) = (    0.00000    0.00000    0.00000  )

     Computing dynamical matrix for 
                    q = (   0.0000000  -0.3750000   0.3750000 )

      4 Sym.Ops. (no q -> -q+G )


     G cutoff =  414.2140  (   4447 G-vectors)     FFT grid: ( 36, 36, 36)
     G cutoff =  207.1070  (   1584 G-vectors)  smooth grid: ( 25, 25, 25)

     number of k points=  1568  Marzari-Vanderbilt smearing, width (Ry)=  0.0200

     PseudoPot. # 1 for Na read from file:
     /home/s1333534/quantum_espresso/qe-6.1/pseudo/Na_pbe_v1.uspp.F.UPF
     MD5 check sum: 76a99c7e9422403d3e93cbc85ab7bccb
     Pseudo is Ultrasoft, Zval =  9.0
     Generated by new atomic code, or converted to UPF format
     Using radial grid of  819 points,  5 beta functions with: 
                l(1) =   0
                l(2) =   0
                l(3) =   1
                l(4) =   1
                l(5) =   2
     Q(r) pseudized with  8 coefficients,  rinner =    1.250   1.250   1.250
                                                       1.250   1.250

     Mode symmetry, C_2v (mm2)  point group:


     Atomic displacements:
     There are   3 irreducible representations

     Representation     1      1 modes -A_1  D_1  S_1  To be done

     Representation     2      1 modes -B_1  D_3  S_3  To be done

     Representation     3      1 modes -B_2  D_4  S_4  To be done



     Alpha used in Ewald sum =   2.8000
     PHONON       :  4m35.16s CPU     4m59.96s WALL



     Representation #  1 mode #   1

     Self-consistent Calculation

      iter #   1 total cpu time :   305.0 secs   av.it.:   5.7
      thresh= 1.000E-02 alpha_mix =  0.700 |ddv_scf|^2 =  5.516E-04

      iter #   2 total cpu time :   309.7 secs   av.it.:   6.6
      thresh= 2.349E-03 alpha_mix =  0.700 |ddv_scf|^2 =  1.463E-03

      iter #   3 total cpu time :   314.2 secs   av.it.:   6.1
      thresh= 3.825E-03 alpha_mix =  0.700 |ddv_scf|^2 =  5.923E-07

      iter #   4 total cpu time :   319.4 secs   av.it.:   7.7
      thresh= 7.696E-05 alpha_mix =  0.700 |ddv_scf|^2 =  1.824E-08

      iter #   5 total cpu time :   324.9 secs   av.it.:   8.1
      thresh= 1.351E-05 alpha_mix =  0.700 |ddv_scf|^2 =  8.098E-10

      iter #   6 total cpu time :   330.2 secs   av.it.:   7.8
      thresh= 2.846E-06 alpha_mix =  0.700 |ddv_scf|^2 =  2.618E-11

      iter #   7 total cpu time :   335.5 secs   av.it.:   7.4
      thresh= 5.117E-07 alpha_mix =  0.700 |ddv_scf|^2 =  1.509E-12

      iter #   8 total cpu time :   340.7 secs   av.it.:   7.7
      thresh= 1.228E-07 alpha_mix =  0.700 |ddv_scf|^2 =  1.274E-14

     End of self-consistent calculation

     Convergence has been achieved 


     Representation #  2 mode #   2

     Self-consistent Calculation

      iter #   1 total cpu time :   345.6 secs   av.it.:   5.5
      thresh= 1.000E-02 alpha_mix =  0.700 |ddv_scf|^2 =  2.285E-05

      iter #   2 total cpu time :   350.7 secs   av.it.:   7.4
      thresh= 4.780E-04 alpha_mix =  0.700 |ddv_scf|^2 =  3.984E-07

      iter #   3 total cpu time :   356.0 secs   av.it.:   7.6
      thresh= 6.312E-05 alpha_mix =  0.700 |ddv_scf|^2 =  8.100E-09

      iter #   4 total cpu time :   360.9 secs   av.it.:   7.2
      thresh= 9.000E-06 alpha_mix =  0.700 |ddv_scf|^2 =  2.687E-11

      iter #   5 total cpu time :   366.1 secs   av.it.:   7.4
      thresh= 5.183E-07 alpha_mix =  0.700 |ddv_scf|^2 =  4.763E-14

     End of self-consistent calculation

     Convergence has been achieved 


     Representation #  3 mode #   3

     Self-consistent Calculation

      iter #   1 total cpu time :   370.9 secs   av.it.:   5.5
      thresh= 1.000E-02 alpha_mix =  0.700 |ddv_scf|^2 =  2.569E-05

      iter #   2 total cpu time :   376.1 secs   av.it.:   7.4
      thresh= 5.068E-04 alpha_mix =  0.700 |ddv_scf|^2 =  3.884E-07

      iter #   3 total cpu time :   381.4 secs   av.it.:   7.6
      thresh= 6.233E-05 alpha_mix =  0.700 |ddv_scf|^2 =  1.529E-08

      iter #   4 total cpu time :   386.4 secs   av.it.:   7.2
      thresh= 1.236E-05 alpha_mix =  0.700 |ddv_scf|^2 =  5.501E-11

      iter #   5 total cpu time :   391.5 secs   av.it.:   7.4
      thresh= 7.417E-07 alpha_mix =  0.700 |ddv_scf|^2 =  6.407E-14

     End of self-consistent calculation

     Convergence has been achieved 

     Number of q in the star =   12
     List of q in the star:
          1   0.000000000  -0.375000000   0.375000000
          2   0.375000000   0.000000000   0.375000000
          3  -0.375000000   0.000000000   0.375000000
          4   0.000000000   0.375000000   0.375000000
          5   0.375000000  -0.375000000   0.000000000
          6  -0.375000000   0.000000000  -0.375000000
          7   0.375000000   0.000000000  -0.375000000
          8   0.000000000  -0.375000000  -0.375000000
          9  -0.375000000  -0.375000000   0.000000000
         10  -0.375000000   0.375000000   0.000000000
         11   0.375000000   0.375000000   0.000000000
         12   0.000000000   0.375000000  -0.375000000

     Diagonalizing the dynamical matrix

     q = (    0.000000000  -0.375000000   0.375000000 ) 

 **************************************************************************
     freq (    1) =       1.358457 [THz] =      45.313247 [cm-1]
     freq (    2) =       2.982385 [THz] =      99.481664 [cm-1]
     freq (    3) =       5.526623 [THz] =     184.348316 [cm-1]
 **************************************************************************

     Mode symmetry, C_2v (mm2)  point group:

     freq (  1 -  1) =         45.3  [cm-1]   --> B_1  D_3  S_3      
     freq (  2 -  2) =         99.5  [cm-1]   --> B_2  D_4  S_4      
     freq (  3 -  3) =        184.3  [cm-1]   --> A_1  D_1  S_1      

     Calculation of q =    0.0000000   0.5000000  -0.5000000

   Info: using nr1, nr2, nr3 values from input

   Info: using nr1, nr2, nr3 values from input

     Parallelization info
     --------------------
     sticks:   dense  smooth     PW     G-vecs:    dense   smooth      PW
     Min         230     116     43                 4447     1584     358
     Max         231     117     44                 4448     1585     359
     Sum         921     467    173                17789     6339    1433



     bravais-lattice index     =            3
     lattice parameter (alat)  =       7.1485  a.u.
     unit-cell volume          =     182.6509 (a.u.)^3
     number of atoms/cell      =            1
     number of atomic types    =            1
     number of electrons       =         9.00
     number of Kohn-Sham states=            9
     kinetic-energy cutoff     =      40.0000  Ry
     charge density cutoff     =     320.0000  Ry
     Exchange-correlation      = SLA  PW   PBE  PBE ( 1  4  3  4 0 0)

     celldm(1)=   7.148538  celldm(2)=   0.000000  celldm(3)=   0.000000
     celldm(4)=   0.000000  celldm(5)=   0.000000  celldm(6)=   0.000000

     crystal axes: (cart. coord. in units of alat)
               a(1) = (   0.500000   0.500000   0.500000 )  
               a(2) = (  -0.500000   0.500000   0.500000 )  
               a(3) = (  -0.500000  -0.500000   0.500000 )  

     reciprocal axes: (cart. coord. in units 2 pi/alat)
               b(1) = (  1.000000  0.000000  1.000000 )  
               b(2) = ( -1.000000  1.000000  0.000000 )  
               b(3) = (  0.000000 -1.000000  1.000000 )  


     PseudoPot. # 1 for Na read from file:
     /home/s1333534/quantum_espresso/qe-6.1/pseudo/Na_pbe_v1.uspp.F.UPF
     MD5 check sum: 76a99c7e9422403d3e93cbc85ab7bccb
     Pseudo is Ultrasoft, Zval =  9.0
     Generated by new atomic code, or converted to UPF format
     Using radial grid of  819 points,  5 beta functions with: 
                l(1) =   0
                l(2) =   0
                l(3) =   1
                l(4) =   1
                l(5) =   2
     Q(r) pseudized with  8 coefficients,  rinner =    1.250   1.250   1.250
                                                       1.250   1.250

     atomic species   valence    mass     pseudopotential
        Na             9.00    22.99000     Na( 1.00)

     48 Sym. Ops., with inversion, found



   Cartesian axes

     site n.     atom                  positions (alat units)
         1           Na  tau(   1) = (   0.0000000   0.0000000   0.0000000  )

     number of k points=   840  Marzari-Vanderbilt smearing, width (Ry)=  0.0200

     Number of k-points >= 100: set verbosity='high' to print them.

     Dense  grid:    17789 G-vectors     FFT dimensions: (  36,  36,  36)

     Smooth grid:     6339 G-vectors     FFT dimensions: (  25,  25,  25)

     Estimated max dynamical RAM per process >       1.64MB

     Estimated total allocated dynamical RAM >       6.56MB

     The potential is recalculated from file :
     ./_ph0/na.bcc.save/charge-density.dat

     Starting wfc are    5 atomic +    4 random wfc

     Band Structure Calculation
     Davidson diagonalization with overlap

     ethr =  1.11E-10,  avg # of iterations = 18.9

     total cpu time spent up to now is      111.2 secs

     End of band structure calculation

     Number of k-points >= 100: set verbosity='high' to print the bands.

     the Fermi energy is     3.1779 ev

     Writing output data file na.bcc.save

                                                                                

     bravais-lattice index     =            3
     lattice parameter (alat)  =       7.1485  a.u.
     unit-cell volume          =     182.6509 (a.u.)^3
     number of atoms/cell      =            1
     number of atomic types    =            1
     kinetic-energy cut-off    =      40.0000  Ry
     charge density cut-off    =     320.0000  Ry
     convergence threshold     =      1.0E-12
     beta                      =       0.7000
     number of iterations used =            4
     Exchange-correlation      = SLA  PW   PBE  PBE ( 1  4  3  4 0 0)


     celldm(1)=    7.14854  celldm(2)=    0.00000  celldm(3)=    0.00000
     celldm(4)=    0.00000  celldm(5)=    0.00000  celldm(6)=    0.00000

     crystal axes: (cart. coord. in units of alat)
               a(1) = (  0.5000  0.5000  0.5000 )  
               a(2) = ( -0.5000  0.5000  0.5000 )  
               a(3) = ( -0.5000 -0.5000  0.5000 )  

     reciprocal axes: (cart. coord. in units 2 pi/alat)
               b(1) = (  1.0000  0.0000  1.0000 )  
               b(2) = ( -1.0000  1.0000  0.0000 )  
               b(3) = (  0.0000 -1.0000  1.0000 )  


     Atoms inside the unit cell: 

     Cartesian axes

     site n.  atom      mass           positions (alat units)
        1     Na  22.9900   tau(    1) = (    0.00000    0.00000    0.00000  )

     Computing dynamical matrix for 
                    q = (   0.0000000   0.5000000  -0.5000000 )

      9 Sym.Ops. (with q -> -q+G )


     G cutoff =  414.2140  (   4447 G-vectors)     FFT grid: ( 36, 36, 36)
     G cutoff =  207.1070  (   1584 G-vectors)  smooth grid: ( 25, 25, 25)

     number of k points=   840  Marzari-Vanderbilt smearing, width (Ry)=  0.0200

     PseudoPot. # 1 for Na read from file:
     /home/s1333534/quantum_espresso/qe-6.1/pseudo/Na_pbe_v1.uspp.F.UPF
     MD5 check sum: 76a99c7e9422403d3e93cbc85ab7bccb
     Pseudo is Ultrasoft, Zval =  9.0
     Generated by new atomic code, or converted to UPF format
     Using radial grid of  819 points,  5 beta functions with: 
                l(1) =   0
                l(2) =   0
                l(3) =   1
                l(4) =   1
                l(5) =   2
     Q(r) pseudized with  8 coefficients,  rinner =    1.250   1.250   1.250
                                                       1.250   1.250

     Mode symmetry, D_2h (mmm)  point group:


     Atomic displacements:
     There are   3 irreducible representations

     Representation     1      1 modes -B_1u  To be done

     Representation     2      1 modes -B_2u  To be done

     Representation     3      1 modes -B_3u  To be done



     Alpha used in Ewald sum =   2.8000
     PHONON       :  6m15.44s CPU     6m50.19s WALL



     Representation #  1 mode #   1

     Self-consistent Calculation

      iter #   1 total cpu time :   412.7 secs   av.it.:   5.5
      thresh= 1.000E-02 alpha_mix =  0.700 |ddv_scf|^2 =  2.645E-05

      iter #   2 total cpu time :   415.5 secs   av.it.:   7.3
      thresh= 5.143E-04 alpha_mix =  0.700 |ddv_scf|^2 =  3.829E-07

      iter #   3 total cpu time :   418.3 secs   av.it.:   7.5
      thresh= 6.188E-05 alpha_mix =  0.700 |ddv_scf|^2 =  1.766E-08

      iter #   4 total cpu time :   421.0 secs   av.it.:   7.0
      thresh= 1.329E-05 alpha_mix =  0.700 |ddv_scf|^2 =  6.366E-11

      iter #   5 total cpu time :   423.7 secs   av.it.:   7.3
      thresh= 7.979E-07 alpha_mix =  0.700 |ddv_scf|^2 =  6.628E-14

     End of self-consistent calculation

     Convergence has been achieved 


     Representation #  2 mode #   2

     Self-consistent Calculation

      iter #   1 total cpu time :   426.4 secs   av.it.:   5.5
      thresh= 1.000E-02 alpha_mix =  0.700 |ddv_scf|^2 =  2.309E-05

      iter #   2 total cpu time :   429.2 secs   av.it.:   7.3
      thresh= 4.805E-04 alpha_mix =  0.700 |ddv_scf|^2 =  3.931E-07

      iter #   3 total cpu time :   432.0 secs   av.it.:   7.6
      thresh= 6.270E-05 alpha_mix =  0.700 |ddv_scf|^2 =  8.928E-09

      iter #   4 total cpu time :   434.6 secs   av.it.:   7.0
      thresh= 9.449E-06 alpha_mix =  0.700 |ddv_scf|^2 =  2.837E-11

      iter #   5 total cpu time :   437.4 secs   av.it.:   7.3
      thresh= 5.327E-07 alpha_mix =  0.700 |ddv_scf|^2 =  4.358E-14

     End of self-consistent calculation

     Convergence has been achieved 


     Representation #  3 mode #   3

     Self-consistent Calculation

      iter #   1 total cpu time :   440.1 secs   av.it.:   5.6
      thresh= 1.000E-02 alpha_mix =  0.700 |ddv_scf|^2 =  2.074E-04

      iter #   2 total cpu time :   442.6 secs   av.it.:   6.6
      thresh= 1.440E-03 alpha_mix =  0.700 |ddv_scf|^2 =  9.433E-05

      iter #   3 total cpu time :   445.2 secs   av.it.:   6.4
      thresh= 9.712E-04 alpha_mix =  0.700 |ddv_scf|^2 =  1.391E-07

      iter #   4 total cpu time :   448.0 secs   av.it.:   7.5
      thresh= 3.730E-05 alpha_mix =  0.700 |ddv_scf|^2 =  4.455E-10

      iter #   5 total cpu time :   450.5 secs   av.it.:   6.3
      thresh= 2.111E-06 alpha_mix =  0.700 |ddv_scf|^2 =  9.327E-12

      iter #   6 total cpu time :   453.0 secs   av.it.:   6.6
      thresh= 3.054E-07 alpha_mix =  0.700 |ddv_scf|^2 =  2.882E-14

     End of self-consistent calculation

     Convergence has been achieved 

     Number of q in the star =    6
     List of q in the star:
          1   0.000000000   0.500000000  -0.500000000
          2  -0.500000000   0.500000000   0.000000000
          3   0.500000000   0.000000000   0.500000000
          4   0.500000000   0.000000000  -0.500000000
          5   0.000000000   0.500000000   0.500000000
          6   0.500000000   0.500000000   0.000000000

     Diagonalizing the dynamical matrix

     q = (    0.000000000   0.500000000  -0.500000000 ) 

 **************************************************************************
     freq (    1) =       1.237434 [THz] =      41.276366 [cm-1]
     freq (    2) =       3.177655 [THz] =     105.995151 [cm-1]
     freq (    3) =       5.990929 [THz] =     199.835887 [cm-1]
 **************************************************************************

     Mode symmetry, D_2h (mmm)  point group:

     freq (  1 -  1) =         41.3  [cm-1]   --> B_2u               
     freq (  2 -  2) =        106.0  [cm-1]   --> B_1u               
     freq (  3 -  3) =        199.8  [cm-1]   --> B_3u               

     Calculation of q =   -0.1250000  -0.1250000   0.2500000

   Info: using nr1, nr2, nr3 values from input

   Info: using nr1, nr2, nr3 values from input

     Parallelization info
     --------------------
     sticks:   dense  smooth     PW     G-vecs:    dense   smooth      PW
     Min         230     116     39                 4447     1584     312
     Max         231     117     40                 4448     1585     314
     Sum         921     467    159                17789     6339    1253



     bravais-lattice index     =            3
     lattice parameter (alat)  =       7.1485  a.u.
     unit-cell volume          =     182.6509 (a.u.)^3
     number of atoms/cell      =            1
     number of atomic types    =            1
     number of electrons       =         9.00
     number of Kohn-Sham states=            9
     kinetic-energy cutoff     =      40.0000  Ry
     charge density cutoff     =     320.0000  Ry
     Exchange-correlation      = SLA  PW   PBE  PBE ( 1  4  3  4 0 0)

     celldm(1)=   7.148538  celldm(2)=   0.000000  celldm(3)=   0.000000
     celldm(4)=   0.000000  celldm(5)=   0.000000  celldm(6)=   0.000000

     crystal axes: (cart. coord. in units of alat)
               a(1) = (   0.500000   0.500000   0.500000 )  
               a(2) = (  -0.500000   0.500000   0.500000 )  
               a(3) = (  -0.500000  -0.500000   0.500000 )  

     reciprocal axes: (cart. coord. in units 2 pi/alat)
               b(1) = (  1.000000  0.000000  1.000000 )  
               b(2) = ( -1.000000  1.000000  0.000000 )  
               b(3) = (  0.000000 -1.000000  1.000000 )  


     PseudoPot. # 1 for Na read from file:
     /home/s1333534/quantum_espresso/qe-6.1/pseudo/Na_pbe_v1.uspp.F.UPF
     MD5 check sum: 76a99c7e9422403d3e93cbc85ab7bccb
     Pseudo is Ultrasoft, Zval =  9.0
     Generated by new atomic code, or converted to UPF format
     Using radial grid of  819 points,  5 beta functions with: 
                l(1) =   0
                l(2) =   0
                l(3) =   1
                l(4) =   1
                l(5) =   2
     Q(r) pseudized with  8 coefficients,  rinner =    1.250   1.250   1.250
                                                       1.250   1.250

     atomic species   valence    mass     pseudopotential
        Na             9.00    22.99000     Na( 1.00)

     48 Sym. Ops., with inversion, found



   Cartesian axes

     site n.     atom                  positions (alat units)
         1           Na  tau(   1) = (   0.0000000   0.0000000   0.0000000  )

     number of k points=  2940  Marzari-Vanderbilt smearing, width (Ry)=  0.0200

     Number of k-points >= 100: set verbosity='high' to print them.

     Dense  grid:    17789 G-vectors     FFT dimensions: (  36,  36,  36)

     Smooth grid:     6339 G-vectors     FFT dimensions: (  25,  25,  25)

     Estimated max dynamical RAM per process >       1.64MB

     Estimated total allocated dynamical RAM >       6.56MB

     The potential is recalculated from file :
     ./_ph0/na.bcc.save/charge-density.dat

     Starting wfc are    5 atomic +    4 random wfc

     Band Structure Calculation
     Davidson diagonalization with overlap

     ethr =  1.11E-10,  avg # of iterations = 18.9

     total cpu time spent up to now is      168.8 secs

     End of band structure calculation

     Number of k-points >= 100: set verbosity='high' to print the bands.

     the Fermi energy is     3.1779 ev

     Writing output data file na.bcc.save

                                                                                

     bravais-lattice index     =            3
     lattice parameter (alat)  =       7.1485  a.u.
     unit-cell volume          =     182.6509 (a.u.)^3
     number of atoms/cell      =            1
     number of atomic types    =            1
     kinetic-energy cut-off    =      40.0000  Ry
     charge density cut-off    =     320.0000  Ry
     convergence threshold     =      1.0E-12
     beta                      =       0.7000
     number of iterations used =            4
     Exchange-correlation      = SLA  PW   PBE  PBE ( 1  4  3  4 0 0)


     celldm(1)=    7.14854  celldm(2)=    0.00000  celldm(3)=    0.00000
     celldm(4)=    0.00000  celldm(5)=    0.00000  celldm(6)=    0.00000

     crystal axes: (cart. coord. in units of alat)
               a(1) = (  0.5000  0.5000  0.5000 )  
               a(2) = ( -0.5000  0.5000  0.5000 )  
               a(3) = ( -0.5000 -0.5000  0.5000 )  

     reciprocal axes: (cart. coord. in units 2 pi/alat)
               b(1) = (  1.0000  0.0000  1.0000 )  
               b(2) = ( -1.0000  1.0000  0.0000 )  
               b(3) = (  0.0000 -1.0000  1.0000 )  


     Atoms inside the unit cell: 

     Cartesian axes

     site n.  atom      mass           positions (alat units)
        1     Na  22.9900   tau(    1) = (    0.00000    0.00000    0.00000  )

     Computing dynamical matrix for 
                    q = (  -0.1250000  -0.1250000   0.2500000 )

      2 Sym.Ops. (no q -> -q+G )


     G cutoff =  414.2140  (   4447 G-vectors)     FFT grid: ( 36, 36, 36)
     G cutoff =  207.1070  (   1584 G-vectors)  smooth grid: ( 25, 25, 25)

     number of k points=  2940  Marzari-Vanderbilt smearing, width (Ry)=  0.0200

     PseudoPot. # 1 for Na read from file:
     /home/s1333534/quantum_espresso/qe-6.1/pseudo/Na_pbe_v1.uspp.F.UPF
     MD5 check sum: 76a99c7e9422403d3e93cbc85ab7bccb
     Pseudo is Ultrasoft, Zval =  9.0
     Generated by new atomic code, or converted to UPF format
     Using radial grid of  819 points,  5 beta functions with: 
                l(1) =   0
                l(2) =   0
                l(3) =   1
                l(4) =   1
                l(5) =   2
     Q(r) pseudized with  8 coefficients,  rinner =    1.250   1.250   1.250
                                                       1.250   1.250

     Mode symmetry, C_s (m)     point group:


     Atomic displacements:
     There are   3 irreducible representations

     Representation     1      1 modes -A'  To be done

     Representation     2      1 modes -A'  To be done

     Representation     3      1 modes -A''  To be done



     Alpha used in Ewald sum =   2.8000
     PHONON       :  7m53.33s CPU     8m36.55s WALL



     Representation #  1 mode #   1

     Self-consistent Calculation

      iter #   1 total cpu time :   525.4 secs   av.it.:   5.6
      thresh= 1.000E-02 alpha_mix =  0.700 |ddv_scf|^2 =  1.236E-03

      iter #   2 total cpu time :   534.0 secs   av.it.:   6.6
      thresh= 3.516E-03 alpha_mix =  0.700 |ddv_scf|^2 =  4.785E-02

      iter #   3 total cpu time :   541.2 secs   av.it.:   5.0
      thresh= 1.000E-02 alpha_mix =  0.700 |ddv_scf|^2 =  5.686E-07

      iter #   4 total cpu time :   551.1 secs   av.it.:   7.7
      thresh= 7.540E-05 alpha_mix =  0.700 |ddv_scf|^2 =  8.740E-09

      iter #   5 total cpu time :   560.8 secs   av.it.:   7.7
      thresh= 9.349E-06 alpha_mix =  0.700 |ddv_scf|^2 =  9.619E-10

      iter #   6 total cpu time :   570.4 secs   av.it.:   7.6
      thresh= 3.101E-06 alpha_mix =  0.700 |ddv_scf|^2 =  8.770E-10

      iter #   7 total cpu time :   578.2 secs   av.it.:   5.7
      thresh= 2.961E-06 alpha_mix =  0.700 |ddv_scf|^2 =  4.087E-10

      iter #   8 total cpu time :   587.2 secs   av.it.:   6.7
      thresh= 2.022E-06 alpha_mix =  0.700 |ddv_scf|^2 =  3.990E-11

      iter #   9 total cpu time :   596.0 secs   av.it.:   6.8
      thresh= 6.317E-07 alpha_mix =  0.700 |ddv_scf|^2 =  9.892E-12

      iter #  10 total cpu time :   604.9 secs   av.it.:   7.0
      thresh= 3.145E-07 alpha_mix =  0.700 |ddv_scf|^2 =  4.318E-14

     End of self-consistent calculation

     Convergence has been achieved 


     Representation #  2 mode #   2

     Self-consistent Calculation

      iter #   1 total cpu time :   614.1 secs   av.it.:   5.7
      thresh= 1.000E-02 alpha_mix =  0.700 |ddv_scf|^2 =  1.095E-02

      iter #   2 total cpu time :   622.4 secs   av.it.:   6.1
      thresh= 1.000E-02 alpha_mix =  0.700 |ddv_scf|^2 =  4.308E-01

      iter #   3 total cpu time :   630.5 secs   av.it.:   6.1
      thresh= 1.000E-02 alpha_mix =  0.700 |ddv_scf|^2 =  5.798E-06

      iter #   4 total cpu time :   639.8 secs   av.it.:   7.3
      thresh= 2.408E-04 alpha_mix =  0.700 |ddv_scf|^2 =  5.659E-08

      iter #   5 total cpu time :   649.4 secs   av.it.:   7.7
      thresh= 2.379E-05 alpha_mix =  0.700 |ddv_scf|^2 =  3.814E-09

      iter #   6 total cpu time :   658.9 secs   av.it.:   7.6
      thresh= 6.176E-06 alpha_mix =  0.700 |ddv_scf|^2 =  7.001E-11

      iter #   7 total cpu time :   668.8 secs   av.it.:   7.9
      thresh= 8.367E-07 alpha_mix =  0.700 |ddv_scf|^2 =  2.427E-10

      iter #   8 total cpu time :   675.6 secs   av.it.:   4.6
      thresh= 1.558E-06 alpha_mix =  0.700 |ddv_scf|^2 =  6.836E-12

      iter #   9 total cpu time :   684.2 secs   av.it.:   6.6
      thresh= 2.615E-07 alpha_mix =  0.700 |ddv_scf|^2 =  9.905E-14

     End of self-consistent calculation

     Convergence has been achieved 


     Representation #  3 mode #   3

     Self-consistent Calculation

      iter #   1 total cpu time :   693.1 secs   av.it.:   5.5
      thresh= 1.000E-02 alpha_mix =  0.700 |ddv_scf|^2 =  2.394E-05

      iter #   2 total cpu time :   702.5 secs   av.it.:   7.4
      thresh= 4.893E-04 alpha_mix =  0.700 |ddv_scf|^2 =  3.933E-07

      iter #   3 total cpu time :   712.3 secs   av.it.:   7.7
      thresh= 6.271E-05 alpha_mix =  0.700 |ddv_scf|^2 =  1.078E-08

      iter #   4 total cpu time :   721.8 secs   av.it.:   7.4
      thresh= 1.038E-05 alpha_mix =  0.700 |ddv_scf|^2 =  5.443E-11

      iter #   5 total cpu time :   731.3 secs   av.it.:   7.5
      thresh= 7.378E-07 alpha_mix =  0.700 |ddv_scf|^2 =  6.568E-14

     End of self-consistent calculation

     Convergence has been achieved 

     Number of q in the star =   24
     List of q in the star:
          1  -0.125000000  -0.125000000   0.250000000
          2  -0.125000000  -0.250000000   0.125000000
          3   0.125000000  -0.250000000   0.125000000
          4  -0.125000000   0.125000000  -0.250000000
          5  -0.125000000   0.250000000  -0.125000000
          6   0.125000000   0.125000000  -0.250000000
          7   0.125000000   0.250000000  -0.125000000
          8   0.125000000  -0.250000000  -0.125000000
          9  -0.250000000   0.125000000  -0.125000000
         10   0.250000000   0.125000000   0.125000000
         11   0.125000000   0.125000000   0.250000000
         12  -0.250000000  -0.125000000   0.125000000
         13   0.250000000  -0.125000000  -0.125000000
         14   0.125000000  -0.125000000  -0.250000000
         15   0.125000000  -0.125000000   0.250000000
         16   0.125000000   0.250000000   0.125000000
         17  -0.125000000  -0.125000000  -0.250000000
         18  -0.125000000   0.125000000   0.250000000
         19  -0.125000000   0.250000000   0.125000000
         20  -0.125000000  -0.250000000  -0.125000000
         21   0.250000000   0.125000000  -0.125000000
         22  -0.250000000   0.125000000   0.125000000
         23   0.250000000  -0.125000000   0.125000000
         24  -0.250000000  -0.125000000  -0.125000000

     Diagonalizing the dynamical matrix

     q = (   -0.125000000  -0.125000000   0.250000000 ) 

 **************************************************************************
     freq (    1) =       1.762159 [THz] =      58.779301 [cm-1]
     freq (    2) =       2.064910 [THz] =      68.877981 [cm-1]
     freq (    3) =       3.844183 [THz] =     128.228158 [cm-1]
 **************************************************************************

     Mode symmetry, C_s (m)     point group:

     freq (  1 -  1) =         58.8  [cm-1]   --> A'                 
     freq (  2 -  2) =         68.9  [cm-1]   --> A''                
     freq (  3 -  3) =        128.2  [cm-1]   --> A'                 

     Calculation of q =   -0.1250000  -0.2500000   0.3750000

   Info: using nr1, nr2, nr3 values from input

   Info: using nr1, nr2, nr3 values from input

     Parallelization info
     --------------------
     sticks:   dense  smooth     PW     G-vecs:    dense   smooth      PW
     Min         230     116     42                 4447     1584     352
     Max         231     117     43                 4448     1585     353
     Sum         921     467    169                17789     6339    1409



     bravais-lattice index     =            3
     lattice parameter (alat)  =       7.1485  a.u.
     unit-cell volume          =     182.6509 (a.u.)^3
     number of atoms/cell      =            1
     number of atomic types    =            1
     number of electrons       =         9.00
     number of Kohn-Sham states=            9
     kinetic-energy cutoff     =      40.0000  Ry
     charge density cutoff     =     320.0000  Ry
     Exchange-correlation      = SLA  PW   PBE  PBE ( 1  4  3  4 0 0)

     celldm(1)=   7.148538  celldm(2)=   0.000000  celldm(3)=   0.000000
     celldm(4)=   0.000000  celldm(5)=   0.000000  celldm(6)=   0.000000

     crystal axes: (cart. coord. in units of alat)
               a(1) = (   0.500000   0.500000   0.500000 )  
               a(2) = (  -0.500000   0.500000   0.500000 )  
               a(3) = (  -0.500000  -0.500000   0.500000 )  

     reciprocal axes: (cart. coord. in units 2 pi/alat)
               b(1) = (  1.000000  0.000000  1.000000 )  
               b(2) = ( -1.000000  1.000000  0.000000 )  
               b(3) = (  0.000000 -1.000000  1.000000 )  


     PseudoPot. # 1 for Na read from file:
     /home/s1333534/quantum_espresso/qe-6.1/pseudo/Na_pbe_v1.uspp.F.UPF
     MD5 check sum: 76a99c7e9422403d3e93cbc85ab7bccb
     Pseudo is Ultrasoft, Zval =  9.0
     Generated by new atomic code, or converted to UPF format
     Using radial grid of  819 points,  5 beta functions with: 
                l(1) =   0
                l(2) =   0
                l(3) =   1
                l(4) =   1
                l(5) =   2
     Q(r) pseudized with  8 coefficients,  rinner =    1.250   1.250   1.250
                                                       1.250   1.250

     atomic species   valence    mass     pseudopotential
        Na             9.00    22.99000     Na( 1.00)

     48 Sym. Ops., with inversion, found



   Cartesian axes

     site n.     atom                  positions (alat units)
         1           Na  tau(   1) = (   0.0000000   0.0000000   0.0000000  )

     number of k points=  5488  Marzari-Vanderbilt smearing, width (Ry)=  0.0200

     Number of k-points >= 100: set verbosity='high' to print them.

     Dense  grid:    17789 G-vectors     FFT dimensions: (  36,  36,  36)

     Smooth grid:     6339 G-vectors     FFT dimensions: (  25,  25,  25)

     Estimated max dynamical RAM per process >       1.64MB

     Estimated total allocated dynamical RAM >       6.56MB

     The potential is recalculated from file :
     ./_ph0/na.bcc.save/charge-density.dat

     Starting wfc are    5 atomic +    4 random wfc

     Band Structure Calculation
     Davidson diagonalization with overlap

     ethr =  1.11E-10,  avg # of iterations = 18.7

     total cpu time spent up to now is      278.1 secs

     End of band structure calculation

     Number of k-points >= 100: set verbosity='high' to print the bands.

     the Fermi energy is     3.1779 ev

     Writing output data file na.bcc.save

                                                                                

     bravais-lattice index     =            3
     lattice parameter (alat)  =       7.1485  a.u.
     unit-cell volume          =     182.6509 (a.u.)^3
     number of atoms/cell      =            1
     number of atomic types    =            1
     kinetic-energy cut-off    =      40.0000  Ry
     charge density cut-off    =     320.0000  Ry
     convergence threshold     =      1.0E-12
     beta                      =       0.7000
     number of iterations used =            4
     Exchange-correlation      = SLA  PW   PBE  PBE ( 1  4  3  4 0 0)


     celldm(1)=    7.14854  celldm(2)=    0.00000  celldm(3)=    0.00000
     celldm(4)=    0.00000  celldm(5)=    0.00000  celldm(6)=    0.00000

     crystal axes: (cart. coord. in units of alat)
               a(1) = (  0.5000  0.5000  0.5000 )  
               a(2) = ( -0.5000  0.5000  0.5000 )  
               a(3) = ( -0.5000 -0.5000  0.5000 )  

     reciprocal axes: (cart. coord. in units 2 pi/alat)
               b(1) = (  1.0000  0.0000  1.0000 )  
               b(2) = ( -1.0000  1.0000  0.0000 )  
               b(3) = (  0.0000 -1.0000  1.0000 )  


     Atoms inside the unit cell: 

     Cartesian axes

     site n.  atom      mass           positions (alat units)
        1     Na  22.9900   tau(    1) = (    0.00000    0.00000    0.00000  )

     Computing dynamical matrix for 
                    q = (  -0.1250000  -0.2500000   0.3750000 )

     No symmetry!

     G cutoff =  414.2140  (   4447 G-vectors)     FFT grid: ( 36, 36, 36)
     G cutoff =  207.1070  (   1584 G-vectors)  smooth grid: ( 25, 25, 25)

     number of k points=  5488  Marzari-Vanderbilt smearing, width (Ry)=  0.0200

     PseudoPot. # 1 for Na read from file:
     /home/s1333534/quantum_espresso/qe-6.1/pseudo/Na_pbe_v1.uspp.F.UPF
     MD5 check sum: 76a99c7e9422403d3e93cbc85ab7bccb
     Pseudo is Ultrasoft, Zval =  9.0
     Generated by new atomic code, or converted to UPF format
     Using radial grid of  819 points,  5 beta functions with: 
                l(1) =   0
                l(2) =   0
                l(3) =   1
                l(4) =   1
                l(5) =   2
     Q(r) pseudized with  8 coefficients,  rinner =    1.250   1.250   1.250
                                                       1.250   1.250

     Mode symmetry, C_1 (1)     point group:


     Atomic displacements:
     There are   3 irreducible representations

     Representation     1      1 modes -A  To be done

     Representation     2      1 modes -A  To be done

     Representation     3      1 modes -A  To be done



     Alpha used in Ewald sum =   2.8000
     PHONON       : 12m58.93s CPU    14m10.89s WALL



     Representation #  1 mode #   1

     Self-consistent Calculation

      iter #   1 total cpu time :   867.8 secs   av.it.:   5.7
      thresh= 1.000E-02 alpha_mix =  0.700 |ddv_scf|^2 =  3.721E-05

      iter #   2 total cpu time :   886.2 secs   av.it.:   7.7
      thresh= 6.100E-04 alpha_mix =  0.700 |ddv_scf|^2 =  6.936E-05

      iter #   3 total cpu time :   902.2 secs   av.it.:   6.1
      thresh= 8.328E-04 alpha_mix =  0.700 |ddv_scf|^2 =  5.952E-06

      iter #   4 total cpu time :   919.5 secs   av.it.:   7.2
      thresh= 2.440E-04 alpha_mix =  0.700 |ddv_scf|^2 =  6.927E-09

      iter #   5 total cpu time :   938.0 secs   av.it.:   7.8
      thresh= 8.323E-06 alpha_mix =  0.700 |ddv_scf|^2 =  2.041E-10

      iter #   6 total cpu time :   956.9 secs   av.it.:   7.9
      thresh= 1.429E-06 alpha_mix =  0.700 |ddv_scf|^2 =  9.540E-12

      iter #   7 total cpu time :   976.0 secs   av.it.:   8.2
      thresh= 3.089E-07 alpha_mix =  0.700 |ddv_scf|^2 =  1.781E-12

      iter #   8 total cpu time :   994.1 secs   av.it.:   7.4
      thresh= 1.334E-07 alpha_mix =  0.700 |ddv_scf|^2 =  3.616E-12

      iter #   9 total cpu time :  1010.7 secs   av.it.:   6.8
      thresh= 1.901E-07 alpha_mix =  0.700 |ddv_scf|^2 =  1.188E-14

     End of self-consistent calculation

     Convergence has been achieved 


     Representation #  2 mode #   2

     Self-consistent Calculation

      iter #   1 total cpu time :  1028.3 secs   av.it.:   5.8
      thresh= 1.000E-02 alpha_mix =  0.700 |ddv_scf|^2 =  5.345E-04

      iter #   2 total cpu time :  1046.2 secs   av.it.:   7.0
      thresh= 2.312E-03 alpha_mix =  0.700 |ddv_scf|^2 =  2.657E-03

      iter #   3 total cpu time :  1061.1 secs   av.it.:   5.7
      thresh= 5.155E-03 alpha_mix =  0.700 |ddv_scf|^2 =  4.509E-07

      iter #   4 total cpu time :  1079.8 secs   av.it.:   7.8
      thresh= 6.715E-05 alpha_mix =  0.700 |ddv_scf|^2 =  9.922E-09

      iter #   5 total cpu time :  1098.9 secs   av.it.:   8.0
      thresh= 9.961E-06 alpha_mix =  0.700 |ddv_scf|^2 =  1.057E-09

      iter #   6 total cpu time :  1117.7 secs   av.it.:   8.0
      thresh= 3.250E-06 alpha_mix =  0.700 |ddv_scf|^2 =  2.509E-11

      iter #   7 total cpu time :  1136.1 secs   av.it.:   7.8
      thresh= 5.009E-07 alpha_mix =  0.700 |ddv_scf|^2 =  1.943E-12

      iter #   8 total cpu time :  1155.0 secs   av.it.:   7.7
      thresh= 1.394E-07 alpha_mix =  0.700 |ddv_scf|^2 =  2.399E-13

     End of self-consistent calculation

     Convergence has been achieved 


     Representation #  3 mode #   3

     Self-consistent Calculation

      iter #   1 total cpu time :  1172.5 secs   av.it.:   5.8
      thresh= 1.000E-02 alpha_mix =  0.700 |ddv_scf|^2 =  5.181E-04

      iter #   2 total cpu time :  1189.6 secs   av.it.:   7.0
      thresh= 2.276E-03 alpha_mix =  0.700 |ddv_scf|^2 =  2.544E-03

      iter #   3 total cpu time :  1204.6 secs   av.it.:   5.7
      thresh= 5.044E-03 alpha_mix =  0.700 |ddv_scf|^2 =  3.343E-07

      iter #   4 total cpu time :  1223.6 secs   av.it.:   8.0
      thresh= 5.782E-05 alpha_mix =  0.700 |ddv_scf|^2 =  1.212E-08

      iter #   5 total cpu time :  1242.7 secs   av.it.:   8.2
      thresh= 1.101E-05 alpha_mix =  0.700 |ddv_scf|^2 =  7.045E-10

      iter #   6 total cpu time :  1262.0 secs   av.it.:   8.1
      thresh= 2.654E-06 alpha_mix =  0.700 |ddv_scf|^2 =  3.029E-11

      iter #   7 total cpu time :  1280.3 secs   av.it.:   7.7
      thresh= 5.503E-07 alpha_mix =  0.700 |ddv_scf|^2 =  1.317E-12

      iter #   8 total cpu time :  1298.3 secs   av.it.:   7.4
      thresh= 1.147E-07 alpha_mix =  0.700 |ddv_scf|^2 =  3.968E-13

     End of self-consistent calculation

     Convergence has been achieved 

     Number of q in the star =   48
     List of q in the star:
          1  -0.125000000  -0.250000000   0.375000000
          2  -0.250000000  -0.125000000   0.375000000
          3  -0.125000000  -0.375000000   0.250000000
          4   0.125000000  -0.375000000   0.250000000
          5  -0.125000000   0.250000000  -0.375000000
          6  -0.125000000   0.375000000  -0.250000000
          7   0.125000000   0.250000000  -0.375000000
          8   0.125000000   0.375000000  -0.250000000
          9   0.250000000  -0.375000000  -0.125000000
         10  -0.375000000   0.125000000  -0.250000000
         11   0.375000000   0.125000000   0.250000000
         12   0.250000000   0.125000000   0.375000000
         13  -0.375000000  -0.125000000   0.250000000
         14   0.375000000  -0.125000000  -0.250000000
         15   0.125000000  -0.250000000  -0.375000000
         16   0.250000000  -0.125000000  -0.375000000
         17  -0.250000000   0.125000000  -0.375000000
         18  -0.375000000  -0.250000000   0.125000000
         19  -0.375000000   0.250000000  -0.125000000
         20   0.375000000   0.250000000   0.125000000
         21   0.250000000  -0.125000000   0.375000000
         22  -0.250000000   0.375000000  -0.125000000
         23   0.125000000  -0.375000000  -0.250000000
         24   0.125000000   0.375000000   0.250000000
         25   0.250000000   0.125000000  -0.375000000
         26  -0.125000000  -0.250000000  -0.375000000
         27  -0.250000000   0.125000000   0.375000000
         28  -0.125000000   0.375000000   0.250000000
         29  -0.125000000   0.250000000   0.375000000
         30   0.125000000  -0.250000000   0.375000000
         31  -0.125000000  -0.375000000  -0.250000000
         32   0.125000000   0.250000000   0.375000000
         33   0.375000000  -0.250000000  -0.125000000
         34   0.250000000   0.375000000   0.125000000
         35  -0.250000000  -0.375000000   0.125000000
         36   0.375000000   0.250000000  -0.125000000
         37  -0.375000000   0.250000000   0.125000000
         38   0.375000000  -0.250000000   0.125000000
         39  -0.375000000  -0.250000000  -0.125000000
         40  -0.250000000  -0.125000000  -0.375000000
         41   0.250000000  -0.375000000   0.125000000
         42  -0.250000000  -0.375000000  -0.125000000
         43   0.250000000   0.375000000  -0.125000000
         44  -0.250000000   0.375000000   0.125000000
         45  -0.375000000   0.125000000   0.250000000
         46  -0.375000000  -0.125000000  -0.250000000
         47   0.375000000  -0.125000000   0.250000000
         48   0.375000000   0.125000000  -0.250000000

     Diagonalizing the dynamical matrix

     q = (   -0.125000000  -0.250000000   0.375000000 ) 

 **************************************************************************
     freq (    1) =       1.846011 [THz] =      61.576298 [cm-1]
     freq (    2) =       3.068886 [THz] =     102.367031 [cm-1]
     freq (    3) =       5.029362 [THz] =     167.761445 [cm-1]
 **************************************************************************

     Mode symmetry, C_1 (1)     point group:

     freq (  1 -  1) =         61.6  [cm-1]   --> A                  
     freq (  2 -  2) =        102.4  [cm-1]   --> A                  
     freq (  3 -  3) =        167.8  [cm-1]   --> A                  

     Calculation of q =   -0.1250000   0.6250000  -0.5000000

   Info: using nr1, nr2, nr3 values from input

   Info: using nr1, nr2, nr3 values from input

     Parallelization info
     --------------------
     sticks:   dense  smooth     PW     G-vecs:    dense   smooth      PW
     Min         230     116     43                 4447     1584     369
     Max         231     117     44                 4448     1585     372
     Sum         921     467    173                17789     6339    1481



     bravais-lattice index     =            3
     lattice parameter (alat)  =       7.1485  a.u.
     unit-cell volume          =     182.6509 (a.u.)^3
     number of atoms/cell      =            1
     number of atomic types    =            1
     number of electrons       =         9.00
     number of Kohn-Sham states=            9
     kinetic-energy cutoff     =      40.0000  Ry
     charge density cutoff     =     320.0000  Ry
     Exchange-correlation      = SLA  PW   PBE  PBE ( 1  4  3  4 0 0)

     celldm(1)=   7.148538  celldm(2)=   0.000000  celldm(3)=   0.000000
     celldm(4)=   0.000000  celldm(5)=   0.000000  celldm(6)=   0.000000

     crystal axes: (cart. coord. in units of alat)
               a(1) = (   0.500000   0.500000   0.500000 )  
               a(2) = (  -0.500000   0.500000   0.500000 )  
               a(3) = (  -0.500000  -0.500000   0.500000 )  

     reciprocal axes: (cart. coord. in units 2 pi/alat)
               b(1) = (  1.000000  0.000000  1.000000 )  
               b(2) = ( -1.000000  1.000000  0.000000 )  
               b(3) = (  0.000000 -1.000000  1.000000 )  


     PseudoPot. # 1 for Na read from file:
     /home/s1333534/quantum_espresso/qe-6.1/pseudo/Na_pbe_v1.uspp.F.UPF
     MD5 check sum: 76a99c7e9422403d3e93cbc85ab7bccb
     Pseudo is Ultrasoft, Zval =  9.0
     Generated by new atomic code, or converted to UPF format
     Using radial grid of  819 points,  5 beta functions with: 
                l(1) =   0
                l(2) =   0
                l(3) =   1
                l(4) =   1
                l(5) =   2
     Q(r) pseudized with  8 coefficients,  rinner =    1.250   1.250   1.250
                                                       1.250   1.250

     atomic species   valence    mass     pseudopotential
        Na             9.00    22.99000     Na( 1.00)

     48 Sym. Ops., with inversion, found



   Cartesian axes

     site n.     atom                  positions (alat units)
         1           Na  tau(   1) = (   0.0000000   0.0000000   0.0000000  )

     number of k points=  5488  Marzari-Vanderbilt smearing, width (Ry)=  0.0200

     Number of k-points >= 100: set verbosity='high' to print them.

     Dense  grid:    17789 G-vectors     FFT dimensions: (  36,  36,  36)

     Smooth grid:     6339 G-vectors     FFT dimensions: (  25,  25,  25)

     Estimated max dynamical RAM per process >       1.64MB

     Estimated total allocated dynamical RAM >       6.56MB

     The potential is recalculated from file :
     ./_ph0/na.bcc.save/charge-density.dat

     Starting wfc are    5 atomic +    4 random wfc

     Band Structure Calculation
     Davidson diagonalization with overlap

     ethr =  1.11E-10,  avg # of iterations = 18.7

     total cpu time spent up to now is      388.3 secs

     End of band structure calculation

     Number of k-points >= 100: set verbosity='high' to print the bands.

     the Fermi energy is     3.1779 ev

     Writing output data file na.bcc.save

                                                                                

     bravais-lattice index     =            3
     lattice parameter (alat)  =       7.1485  a.u.
     unit-cell volume          =     182.6509 (a.u.)^3
     number of atoms/cell      =            1
     number of atomic types    =            1
     kinetic-energy cut-off    =      40.0000  Ry
     charge density cut-off    =     320.0000  Ry
     convergence threshold     =      1.0E-12
     beta                      =       0.7000
     number of iterations used =            4
     Exchange-correlation      = SLA  PW   PBE  PBE ( 1  4  3  4 0 0)


     celldm(1)=    7.14854  celldm(2)=    0.00000  celldm(3)=    0.00000
     celldm(4)=    0.00000  celldm(5)=    0.00000  celldm(6)=    0.00000

     crystal axes: (cart. coord. in units of alat)
               a(1) = (  0.5000  0.5000  0.5000 )  
               a(2) = ( -0.5000  0.5000  0.5000 )  
               a(3) = ( -0.5000 -0.5000  0.5000 )  

[...]
     Exchange-correlation      = SLA  PW   PBE  PBE ( 1  4  3  4 0 0)


     celldm(1)=    7.14854  celldm(2)=    0.00000  celldm(3)=    0.00000
     celldm(4)=    0.00000  celldm(5)=    0.00000  celldm(6)=    0.00000

     crystal axes: (cart. coord. in units of alat)
               a(1) = (  0.5000  0.5000  0.5000 )  
               a(2) = ( -0.5000  0.5000  0.5000 )  
               a(3) = ( -0.5000 -0.5000  0.5000 )  

     reciprocal axes: (cart. coord. in units 2 pi/alat)
               b(1) = (  1.0000  0.0000  1.0000 )  
               b(2) = ( -1.0000  1.0000  0.0000 )  
               b(3) = (  0.0000 -1.0000  1.0000 )  


     Atoms inside the unit cell: 

     Cartesian axes

     site n.  atom      mass           positions (alat units)
        1     Na  22.9900   tau(    1) = (    0.00000    0.00000    0.00000  )

     Computing dynamical matrix for 
                    q = (   0.0000000   0.8750000  -0.1250000 )

      4 Sym.Ops. (no q -> -q+G )


     G cutoff =  414.2140  (   4447 G-vectors)     FFT grid: ( 36, 36, 36)
     G cutoff =  207.1070  (   1584 G-vectors)  smooth grid: ( 25, 25, 25)

     number of k points=  1568  Marzari-Vanderbilt smearing, width (Ry)=  0.0200

     PseudoPot. # 1 for Na read from file:
     /home/s1333534/quantum_espresso/qe-6.1/pseudo/Na_pbe_v1.uspp.F.UPF
     MD5 check sum: 76a99c7e9422403d3e93cbc85ab7bccb
     Pseudo is Ultrasoft, Zval =  9.0
     Generated by new atomic code, or converted to UPF format
     Using radial grid of  819 points,  5 beta functions with: 
                l(1) =   0
                l(2) =   0
                l(3) =   1
                l(4) =   1
                l(5) =   2
     Q(r) pseudized with  8 coefficients,  rinner =    1.250   1.250   1.250
                                                       1.250   1.250

     Mode symmetry, C_2v (mm2)  point group:


     Atomic displacements:
     There are   3 irreducible representations

     Representation     1      1 modes -A_1  D_1  S_1  To be done

     Representation     2      1 modes -B_1  D_3  S_3  To be done

     Representation     3      1 modes -B_2  D_4  S_4  To be done



     Alpha used in Ewald sum =   2.8000
     PHONON       :     1h23m CPU        1h31m WALL



     Representation #  1 mode #   1

     Self-consistent Calculation

      iter #   1 total cpu time :  5517.5 secs   av.it.:   5.7
      thresh= 1.000E-02 alpha_mix =  0.700 |ddv_scf|^2 =  4.390E-05

      iter #   2 total cpu time :  5522.7 secs   av.it.:   7.5
      thresh= 6.626E-04 alpha_mix =  0.700 |ddv_scf|^2 =  1.206E-06

      iter #   3 total cpu time :  5528.0 secs   av.it.:   7.6
      thresh= 1.098E-04 alpha_mix =  0.700 |ddv_scf|^2 =  4.144E-08

      iter #   4 total cpu time :  5533.4 secs   av.it.:   7.9
      thresh= 2.036E-05 alpha_mix =  0.700 |ddv_scf|^2 =  2.208E-09

      iter #   5 total cpu time :  5538.7 secs   av.it.:   7.9
      thresh= 4.699E-06 alpha_mix =  0.700 |ddv_scf|^2 =  1.736E-10

      iter #   6 total cpu time :  5543.9 secs   av.it.:   7.6
      thresh= 1.318E-06 alpha_mix =  0.700 |ddv_scf|^2 =  9.693E-13

     End of self-consistent calculation

     Convergence has been achieved 


     Representation #  2 mode #   2

     Self-consistent Calculation

      iter #   1 total cpu time :  5548.9 secs   av.it.:   5.5
      thresh= 1.000E-02 alpha_mix =  0.700 |ddv_scf|^2 =  3.975E-05

      iter #   2 total cpu time :  5554.0 secs   av.it.:   7.3
      thresh= 6.305E-04 alpha_mix =  0.700 |ddv_scf|^2 =  4.313E-07

      iter #   3 total cpu time :  5559.0 secs   av.it.:   7.3
      thresh= 6.567E-05 alpha_mix =  0.700 |ddv_scf|^2 =  3.970E-08

      iter #   4 total cpu time :  5564.1 secs   av.it.:   7.4
      thresh= 1.993E-05 alpha_mix =  0.700 |ddv_scf|^2 =  1.753E-10

      iter #   5 total cpu time :  5569.2 secs   av.it.:   7.3
      thresh= 1.324E-06 alpha_mix =  0.700 |ddv_scf|^2 =  6.904E-14

     End of self-consistent calculation

     Convergence has been achieved 


     Representation #  3 mode #   3

     Self-consistent Calculation

      iter #   1 total cpu time :  5574.1 secs   av.it.:   5.6
      thresh= 1.000E-02 alpha_mix =  0.700 |ddv_scf|^2 =  5.508E-05

      iter #   2 total cpu time :  5579.3 secs   av.it.:   7.3
      thresh= 7.421E-04 alpha_mix =  0.700 |ddv_scf|^2 =  2.124E-06

      iter #   3 total cpu time :  5584.9 secs   av.it.:   7.2
      thresh= 1.457E-04 alpha_mix =  0.700 |ddv_scf|^2 =  5.034E-08

      iter #   4 total cpu time :  5590.1 secs   av.it.:   7.5
      thresh= 2.244E-05 alpha_mix =  0.700 |ddv_scf|^2 =  1.658E-09

      iter #   5 total cpu time :  5595.1 secs   av.it.:   7.2
      thresh= 4.072E-06 alpha_mix =  0.700 |ddv_scf|^2 =  4.844E-12

      iter #   6 total cpu time :  5600.4 secs   av.it.:   7.6
      thresh= 2.201E-07 alpha_mix =  0.700 |ddv_scf|^2 =  6.006E-15

     End of self-consistent calculation

     Convergence has been achieved 

     Number of q in the star =   12
     List of q in the star:
          1   0.000000000   0.875000000  -0.125000000
          2   0.000000000  -0.875000000  -0.125000000
          3   0.875000000   0.000000000  -0.125000000
          4  -0.875000000   0.000000000  -0.125000000
          5   0.125000000   0.000000000  -0.875000000
          6   0.125000000   0.875000000   0.000000000
          7   0.000000000   0.875000000   0.125000000
          8   0.875000000   0.000000000   0.125000000
          9   0.125000000  -0.875000000   0.000000000
         10  -0.125000000  -0.875000000   0.000000000
         11   0.875000000  -0.125000000   0.000000000
         12   0.000000000  -0.875000000   0.125000000

     Diagonalizing the dynamical matrix

     q = (    0.000000000   0.875000000  -0.125000000 ) 

 **************************************************************************
     freq (    1) =       4.888962 [THz] =     163.078210 [cm-1]
     freq (    2) =       5.203247 [THz] =     173.561645 [cm-1]
     freq (    3) =       5.301281 [THz] =     176.831694 [cm-1]
 **************************************************************************

     Mode symmetry, C_2v (mm2)  point group:

     freq (  1 -  1) =        163.1  [cm-1]   --> B_1  D_3  S_3      
     freq (  2 -  2) =        173.6  [cm-1]   --> A_1  D_1  S_1      
     freq (  3 -  3) =        176.8  [cm-1]   --> B_2  D_4  S_4      

     Calculation of q =    0.0000000   0.0000000  -1.0000000

   Info: using nr1, nr2, nr3 values from input

   Info: using nr1, nr2, nr3 values from input

     Parallelization info
     --------------------
     sticks:   dense  smooth     PW     G-vecs:    dense   smooth      PW
     Min         230     116     43                 4447     1584     358
     Max         231     117     44                 4448     1585     359
     Sum         921     467    173                17789     6339    1433



     bravais-lattice index     =            3
     lattice parameter (alat)  =       7.1485  a.u.
     unit-cell volume          =     182.6509 (a.u.)^3
     number of atoms/cell      =            1
     number of atomic types    =            1
     number of electrons       =         9.00
     number of Kohn-Sham states=            9
     kinetic-energy cutoff     =      40.0000  Ry
     charge density cutoff     =     320.0000  Ry
     Exchange-correlation      = SLA  PW   PBE  PBE ( 1  4  3  4 0 0)

     celldm(1)=   7.148538  celldm(2)=   0.000000  celldm(3)=   0.000000
     celldm(4)=   0.000000  celldm(5)=   0.000000  celldm(6)=   0.000000

     crystal axes: (cart. coord. in units of alat)
               a(1) = (   0.500000   0.500000   0.500000 )  
               a(2) = (  -0.500000   0.500000   0.500000 )  
               a(3) = (  -0.500000  -0.500000   0.500000 )  

     reciprocal axes: (cart. coord. in units 2 pi/alat)
               b(1) = (  1.000000  0.000000  1.000000 )  
               b(2) = ( -1.000000  1.000000  0.000000 )  
               b(3) = (  0.000000 -1.000000  1.000000 )  


     PseudoPot. # 1 for Na read from file:
     /home/s1333534/quantum_espresso/qe-6.1/pseudo/Na_pbe_v1.uspp.F.UPF
     MD5 check sum: 76a99c7e9422403d3e93cbc85ab7bccb
     Pseudo is Ultrasoft, Zval =  9.0
     Generated by new atomic code, or converted to UPF format
     Using radial grid of  819 points,  5 beta functions with: 
                l(1) =   0
                l(2) =   0
                l(3) =   1
                l(4) =   1
                l(5) =   2
     Q(r) pseudized with  8 coefficients,  rinner =    1.250   1.250   1.250
                                                       1.250   1.250

     atomic species   valence    mass     pseudopotential
        Na             9.00    22.99000     Na( 1.00)

     48 Sym. Ops., with inversion, found



   Cartesian axes

     site n.     atom                  positions (alat units)
         1           Na  tau(   1) = (   0.0000000   0.0000000   0.0000000  )

     number of k points=   200  Marzari-Vanderbilt smearing, width (Ry)=  0.0200

     Number of k-points >= 100: set verbosity='high' to print them.

     Dense  grid:    17789 G-vectors     FFT dimensions: (  36,  36,  36)

     Smooth grid:     6339 G-vectors     FFT dimensions: (  25,  25,  25)

     Estimated max dynamical RAM per process >       1.64MB

     Estimated total allocated dynamical RAM >       6.56MB

     The potential is recalculated from file :
     ./_ph0/na.bcc.save/charge-density.dat

     Starting wfc are    5 atomic +    4 random wfc

     Band Structure Calculation
     Davidson diagonalization with overlap

     ethr =  1.11E-10,  avg # of iterations = 19.1

     total cpu time spent up to now is     1277.0 secs

     End of band structure calculation

     Number of k-points >= 100: set verbosity='high' to print the bands.

     the Fermi energy is     3.1779 ev

     Writing output data file na.bcc.save

                                                                                

     bravais-lattice index     =            3
     lattice parameter (alat)  =       7.1485  a.u.
     unit-cell volume          =     182.6509 (a.u.)^3
     number of atoms/cell      =            1
     number of atomic types    =            1
     kinetic-energy cut-off    =      40.0000  Ry
     charge density cut-off    =     320.0000  Ry
     convergence threshold     =      1.0E-12
     beta                      =       0.7000
     number of iterations used =            4
     Exchange-correlation      = SLA  PW   PBE  PBE ( 1  4  3  4 0 0)


     celldm(1)=    7.14854  celldm(2)=    0.00000  celldm(3)=    0.00000
     celldm(4)=    0.00000  celldm(5)=    0.00000  celldm(6)=    0.00000

     crystal axes: (cart. coord. in units of alat)
               a(1) = (  0.5000  0.5000  0.5000 )  
               a(2) = ( -0.5000  0.5000  0.5000 )  
               a(3) = ( -0.5000 -0.5000  0.5000 )  

     reciprocal axes: (cart. coord. in units 2 pi/alat)
               b(1) = (  1.0000  0.0000  1.0000 )  
               b(2) = ( -1.0000  1.0000  0.0000 )  
               b(3) = (  0.0000 -1.0000  1.0000 )  


     Atoms inside the unit cell: 

     Cartesian axes

     site n.  atom      mass           positions (alat units)
        1     Na  22.9900   tau(    1) = (    0.00000    0.00000    0.00000  )

     Computing dynamical matrix for 
                    q = (   0.0000000   0.0000000  -1.0000000 )

     49 Sym.Ops. (with q -> -q+G )


     G cutoff =  414.2140  (   4447 G-vectors)     FFT grid: ( 36, 36, 36)
     G cutoff =  207.1070  (   1584 G-vectors)  smooth grid: ( 25, 25, 25)

     number of k points=   200  Marzari-Vanderbilt smearing, width (Ry)=  0.0200

     PseudoPot. # 1 for Na read from file:
     /home/s1333534/quantum_espresso/qe-6.1/pseudo/Na_pbe_v1.uspp.F.UPF
     MD5 check sum: 76a99c7e9422403d3e93cbc85ab7bccb
     Pseudo is Ultrasoft, Zval =  9.0
     Generated by new atomic code, or converted to UPF format
     Using radial grid of  819 points,  5 beta functions with: 
                l(1) =   0
                l(2) =   0
                l(3) =   1
                l(4) =   1
                l(5) =   2
     Q(r) pseudized with  8 coefficients,  rinner =    1.250   1.250   1.250
                                                       1.250   1.250

     Mode symmetry, O_h (m-3m)  point group:


     Atomic displacements:
     There are   1 irreducible representations

     Representation     1      3 modes -T_1u G_15  G_4-  To be done



     Alpha used in Ewald sum =   2.8000
     PHONON       :     1h24m CPU        1h33m WALL



     Representation #  1 modes #   1  2  3

     Self-consistent Calculation

      iter #   1 total cpu time :  5607.3 secs   av.it.:   5.7
      thresh= 1.000E-02 alpha_mix =  0.700 |ddv_scf|^2 =  4.708E-06

      iter #   2 total cpu time :  5609.7 secs   av.it.:   8.3
      thresh= 2.170E-04 alpha_mix =  0.700 |ddv_scf|^2 =  5.466E-08

      iter #   3 total cpu time :  5612.0 secs   av.it.:   8.2
      thresh= 2.338E-05 alpha_mix =  0.700 |ddv_scf|^2 =  4.764E-09

      iter #   4 total cpu time :  5614.4 secs   av.it.:   8.3
      thresh= 6.902E-06 alpha_mix =  0.700 |ddv_scf|^2 =  2.032E-11

      iter #   5 total cpu time :  5616.7 secs   av.it.:   8.2
      thresh= 4.508E-07 alpha_mix =  0.700 |ddv_scf|^2 =  6.869E-15

     End of self-consistent calculation

     Convergence has been achieved 

     Number of q in the star =    1
     List of q in the star:
          1   0.000000000   0.000000000  -1.000000000

     Diagonalizing the dynamical matrix

     q = (    0.000000000   0.000000000  -1.000000000 ) 

 **************************************************************************
     freq (    1) =       5.092628 [THz] =     169.871792 [cm-1]
     freq (    2) =       5.092628 [THz] =     169.871792 [cm-1]
     freq (    3) =       5.092628 [THz] =     169.871792 [cm-1]
 **************************************************************************

     Mode symmetry, O_h (m-3m)  point group:

     freq (  1 -  3) =        169.9  [cm-1]   --> T_1u G_15  G_4-    

     init_run     :      4.81s CPU      4.85s WALL (      28 calls)
     electrons    :   1140.28s CPU   1227.15s WALL (      28 calls)

     Called by init_run:
     wfcinit      :      0.00s CPU      0.00s WALL (      28 calls)
     potinit      :      0.30s CPU      0.31s WALL (      28 calls)

     Called by electrons:
     c_bands      :   1139.99s CPU   1226.85s WALL (      28 calls)
     v_of_rho     :      0.23s CPU      0.24s WALL (      29 calls)
     newd         :      0.31s CPU      0.32s WALL (      29 calls)

     Called by c_bands:
     init_us_2    :     82.71s CPU     74.92s WALL (  911709 calls)
     cegterg      :   1049.59s CPU   1129.00s WALL (   77296 calls)

     Called by sum_band:

     Called by *egterg:
     h_psi        :   3283.54s CPU   3619.15s WALL ( 7538352 calls)
     s_psi        :    115.18s CPU    124.66s WALL (14394083 calls)
     g_psi        :      5.84s CPU      9.18s WALL ( 1188169 calls)
     cdiaghg      :    259.24s CPU    260.30s WALL ( 1251335 calls)

     Called by h_psi:
     h_psi:pot    :   3261.45s CPU   3593.62s WALL ( 7538352 calls)
     h_psi:calbec :     87.51s CPU    104.96s WALL ( 7538352 calls)
     vloc_psi     :   3096.21s CPU   3391.03s WALL ( 7538352 calls)
     add_vuspsi   :     62.85s CPU     75.43s WALL ( 7538352 calls)

     General routines
     calbec       :    190.00s CPU    202.76s WALL (15958600 calls)
     fft          :      2.29s CPU      2.42s WALL (    9007 calls)
     ffts         :      6.41s CPU      6.49s WALL (   97077 calls)
     fftw         :   3371.19s CPU   3628.95s WALL (72963975 calls)
     interpolate  :      0.38s CPU      0.46s WALL (    1249 calls)
     davcio       :     25.78s CPU     52.49s WALL ( 3455481 calls)

     Parallel routines
     fft_scatter  :    860.15s CPU   1024.35s WALL (73070059 calls)

     PHONON       :     1h24m CPU        1h33m WALL

     INITIALIZATION: 
     phq_setup    :      0.78s CPU      0.80s WALL (      29 calls)
     phq_init     :     91.42s CPU     97.26s WALL (      29 calls)

     phq_init     :     91.42s CPU     97.26s WALL (      29 calls)
     init_vloc    :      0.07s CPU      0.07s WALL (      29 calls)
     init_us_1    :      2.67s CPU      2.69s WALL (      29 calls)
     newd         :      0.31s CPU      0.32s WALL (      29 calls)
     dvanqq       :      1.23s CPU      1.24s WALL (      29 calls)
     drho         :     71.48s CPU     76.36s WALL (      29 calls)

     DYNAMICAL MATRIX:
     dynmat0      :     11.51s CPU     11.90s WALL (      29 calls)
     phqscf       :   3816.48s CPU   4240.35s WALL (      29 calls)
     dynmatrix    :      0.03s CPU      0.03s WALL (      29 calls)

     phqscf       :   3816.48s CPU   4240.35s WALL (      29 calls)
     solve_linter :   3797.44s CPU   4220.44s WALL (      76 calls)
     drhodv       :     18.96s CPU     19.79s WALL (      76 calls)

     dynmat0      :     11.51s CPU     11.90s WALL (      29 calls)
     dynmat_us    :     11.47s CPU     11.86s WALL (      29 calls)
     d2ionq       :      0.02s CPU      0.02s WALL (      29 calls)

     dynmat_us    :     11.47s CPU     11.86s WALL (      29 calls)
     addusdynmat  :      0.00s CPU      0.00s WALL (      29 calls)

     phqscf       :   3816.48s CPU   4240.35s WALL (      29 calls)
     solve_linter :   3797.44s CPU   4220.44s WALL (      76 calls)

     solve_linter :   3797.44s CPU   4220.44s WALL (      76 calls)
     dvqpsi_us    :    112.07s CPU    122.72s WALL (   95049 calls)
     ortho        :     35.77s CPU     40.86s WALL (  646010 calls)
     cgsolve      :   2927.43s CPU   3233.85s WALL (  646010 calls)
     incdrhoscf   :    331.65s CPU    370.79s WALL (  646010 calls)
     addusddens   :      9.83s CPU      9.92s WALL (     573 calls)
     vpsifft      :    257.44s CPU    288.99s WALL (  550961 calls)
     dv_of_drho   :      2.64s CPU      2.73s WALL (     552 calls)
     mix_pot      :      0.34s CPU      0.69s WALL (     497 calls)
     ef_shift     :      0.01s CPU      0.01s WALL (       6 calls)
     localdos     :      0.05s CPU      0.06s WALL (       1 calls)
     psymdvscf    :      5.77s CPU      5.84s WALL (     428 calls)
     newdq        :      8.80s CPU      8.88s WALL (     497 calls)
     adddvscf     :     14.37s CPU     14.93s WALL (  550961 calls)
     drhodvus     :      0.02s CPU      0.02s WALL (      76 calls)

     dvqpsi_us    :    112.07s CPU    122.72s WALL (   95049 calls)
     dvqpsi_us_on :     21.15s CPU     21.14s WALL (   95049 calls)

     cgsolve      :   2927.43s CPU   3233.85s WALL (  646010 calls)
     ch_psi       :   2856.93s CPU   3160.92s WALL ( 6209721 calls)

     ch_psi       :   2856.93s CPU   3160.92s WALL ( 6209721 calls)
     h_psi        :   3283.54s CPU   3619.15s WALL ( 7538352 calls)
     last         :    212.27s CPU    237.15s WALL ( 6209721 calls)

     h_psi        :   3283.54s CPU   3619.15s WALL ( 7538352 calls)
     add_vuspsi   :     62.85s CPU     75.43s WALL ( 7538352 calls)

     incdrhoscf   :    331.65s CPU    370.79s WALL (  646010 calls)
     addusdbec    :     16.13s CPU     17.36s WALL (  741059 calls)

     drhodvus     :      0.02s CPU      0.02s WALL (      76 calls)

      General routines
     calbec       :    190.00s CPU    202.76s WALL (15958600 calls)
     fft          :      2.29s CPU      2.42s WALL (    9007 calls)
     ffts         :      6.41s CPU      6.49s WALL (   97077 calls)
     fftw         :   3371.19s CPU   3628.95s WALL (72963975 calls)
     davcio       :     25.78s CPU     52.49s WALL ( 3455481 calls)
     write_rec    :      0.42s CPU      0.94s WALL (     573 calls)


     PHONON       :     1h24m CPU        1h33m WALL


   This run was terminated on:  13:25:19  21Dec2017            

=------------------------------------------------------------------------------=
   JOB DONE.
=------------------------------------------------------------------------------=
