
     Program PWSCF v.6.1 (svn rev. 13369) starts on 20Dec2017 at 17:39: 1 

     This program is part of the open-source Quantum ESPRESSO suite
     for quantum simulation of materials; please cite
         "P. Giannozzi et al., J. Phys.:Condens. Matter 21 395502 (2009);
          URL http://www.quantum-espresso.org", 
     in publications or presentations arising from this work. More details at
     http://www.quantum-espresso.org/quote

     Parallel version (MPI), running on     4 processors
     R & G space division:  proc/nbgrp/npool/nimage =       4
     Waiting for input...
     Reading input from standard input

     Current dimensions of program PWSCF are:
     Max number of different atomic species (ntypx) = 10
     Max number of k-points (npk) =  40000
     Max angular momentum in pseudopotentials (lmaxx) =  3

     Subspace diagonalization in iterative solution of the eigenvalue problem:
     a serial algorithm will be used


     Parallelization info
     --------------------
     sticks:   dense  smooth     PW     G-vecs:    dense   smooth      PW
     Min         210     103     34                 3920     1367     263
     Max         211     104     35                 3923     1369     265
     Sum         841     415    137                15683     5473    1055



     bravais-lattice index     =            3
     lattice parameter (alat)  =       6.8778  a.u.
     unit-cell volume          =     162.6709 (a.u.)^3
     number of atoms/cell      =            1
     number of atomic types    =            1
     number of electrons       =         9.00
     number of Kohn-Sham states=            9
     kinetic-energy cutoff     =      40.0000  Ry
     charge density cutoff     =     320.0000  Ry
     convergence threshold     =      1.0E-08
     mixing beta               =       0.7000
     number of iterations used =            8  plain     mixing
     Exchange-correlation      = SLA  PW   PBE  PBE ( 1  4  3  4 0 0)
     nstep                     =           50


     celldm(1)=   6.877754  celldm(2)=   0.000000  celldm(3)=   0.000000
     celldm(4)=   0.000000  celldm(5)=   0.000000  celldm(6)=   0.000000

     crystal axes: (cart. coord. in units of alat)
               a(1) = (   0.500000   0.500000   0.500000 )  
               a(2) = (  -0.500000   0.500000   0.500000 )  
               a(3) = (  -0.500000  -0.500000   0.500000 )  

     reciprocal axes: (cart. coord. in units 2 pi/alat)
               b(1) = (  1.000000  0.000000  1.000000 )  
               b(2) = ( -1.000000  1.000000  0.000000 )  
               b(3) = (  0.000000 -1.000000  1.000000 )  


     PseudoPot. # 1 for Na read from file:
     /home/s1333534/quantum_espresso/qe-6.1/pseudo/Na_pbe_v1.uspp.F.UPF
     MD5 check sum: 76a99c7e9422403d3e93cbc85ab7bccb
     Pseudo is Ultrasoft, Zval =  9.0
     Generated by new atomic code, or converted to UPF format
     Using radial grid of  819 points,  5 beta functions with: 
                l(1) =   0
                l(2) =   0
                l(3) =   1
                l(4) =   1
                l(5) =   2
     Q(r) pseudized with  8 coefficients,  rinner =    1.250   1.250   1.250
                                                       1.250   1.250

     atomic species   valence    mass     pseudopotential
        Na             9.00    22.99000     Na( 1.00)

     48 Sym. Ops., with inversion, found



   Cartesian axes

     site n.     atom                  positions (alat units)
         1           Na  tau(   1) = (   0.0000000   0.0000000   0.0000000  )

     number of k points=   250  Marzari-Vanderbilt smearing, width (Ry)=  0.0200

     Number of k-points >= 100: set verbosity='high' to print them.

     Dense  grid:    15683 G-vectors     FFT dimensions: (  36,  36,  36)

     Smooth grid:     5473 G-vectors     FFT dimensions: (  24,  24,  24)

     Estimated max dynamical RAM per process >       8.58MB

     Estimated total allocated dynamical RAM >      34.32MB

     Initial potential from superposition of free atoms

     starting charge    8.99371, renormalised to    9.00000
     Starting wfc are    5 randomized atomic wfcs +    4 random wfc

     total cpu time spent up to now is        0.7 secs

     per-process dynamical memory:    14.8 Mb

     Self-consistent Calculation

     iteration #  1     ecut=    40.00 Ry     beta=0.70
     Davidson diagonalization with overlap
     ethr =  1.00E-02,  avg # of iterations =  5.6

     Threshold (ethr) on eigenvalues was too large:
     Diagonalizing with lowered threshold

     Davidson diagonalization with overlap
     ethr =  1.54E-05,  avg # of iterations =  3.5

     total cpu time spent up to now is        3.3 secs

     total energy              =     -95.09088224 Ry
     Harris-Foulkes estimate   =     -95.09139589 Ry
     estimated scf accuracy    <       0.00138437 Ry

     iteration #  2     ecut=    40.00 Ry     beta=0.70
     Davidson diagonalization with overlap
     ethr =  1.54E-05,  avg # of iterations =  2.0

     total cpu time spent up to now is        4.2 secs

     total energy              =     -95.09106781 Ry
     Harris-Foulkes estimate   =     -95.09110883 Ry
     estimated scf accuracy    <       0.00015793 Ry

     iteration #  3     ecut=    40.00 Ry     beta=0.70
     Davidson diagonalization with overlap
     ethr =  1.75E-06,  avg # of iterations =  2.1

     total cpu time spent up to now is        5.1 secs

     total energy              =     -95.09108721 Ry
     Harris-Foulkes estimate   =     -95.09108838 Ry
     estimated scf accuracy    <       0.00000931 Ry

     iteration #  4     ecut=    40.00 Ry     beta=0.70
     Davidson diagonalization with overlap
     ethr =  1.03E-07,  avg # of iterations =  1.0

     total cpu time spent up to now is        5.9 secs

     total energy              =     -95.09108802 Ry
     Harris-Foulkes estimate   =     -95.09108797 Ry
     estimated scf accuracy    <       0.00000001 Ry

     iteration #  5     ecut=    40.00 Ry     beta=0.70
     Davidson diagonalization with overlap
     ethr =  1.40E-10,  avg # of iterations =  3.0

     total cpu time spent up to now is        7.0 secs

     End of self-consistent calculation

     Number of k-points >= 100: set verbosity='high' to print the bands.

     the Fermi energy is     3.8863 ev

!    total energy              =     -95.09108806 Ry
     Harris-Foulkes estimate   =     -95.09108805 Ry
     estimated scf accuracy    <          1.7E-09 Ry

     The total energy is the sum of the following terms:

     one-electron contribution =     -78.15287743 Ry
     hartree contribution      =      40.25386173 Ry
     xc contribution           =     -14.33234639 Ry
     ewald contribution        =     -42.85962042 Ry
     smearing contrib. (-TS)   =      -0.00010555 Ry

     convergence has been achieved in   5 iterations

     Forces acting on atoms (cartesian axes, Ry/au):

     atom    1 type  1   force =     0.00000000    0.00000000    0.00000000

     Total force =     0.000000     Total SCF correction =     0.000000


     Computing stress (Cartesian axis) and pressure

          total   stress  (Ry/bohr**3)                   (kbar)     P=   69.43
   0.00047194   0.00000000  -0.00000000         69.43      0.00     -0.00
   0.00000000   0.00047194   0.00000000          0.00     69.43      0.00
  -0.00000000   0.00000000   0.00047194         -0.00      0.00     69.43


     BFGS Geometry Optimization

     number of scf cycles    =   1
     number of bfgs steps    =   0

     enthalpy new            =     -95.0136810482 Ry

     new trust radius        =       0.0002490556 bohr
     new conv_thr            =       0.0000000100 Ry

     new unit-cell volume =    162.62325 a.u.^3 (    24.09828 Ang^3 )
     density =      1.58417 g/cm^3

CELL_PARAMETERS (alat=  6.87775362)
   0.499951182   0.499951182   0.499951182
  -0.499951182   0.499951182   0.499951182
  -0.499951182  -0.499951182   0.499951182

ATOMIC_POSITIONS (crystal)
Na       0.000000000   0.000000000   0.000000000



     Writing output data file na.bcc.save
     NEW-OLD atomic charge density approx. for the potential
     extrapolated charge    8.99737, renormalised to    9.00000

     total cpu time spent up to now is        8.0 secs

     per-process dynamical memory:    22.3 Mb

     Self-consistent Calculation

     iteration #  1     ecut=    40.00 Ry     beta=0.70
     Davidson diagonalization with overlap
     ethr =  1.00E-06,  avg # of iterations =  2.1

     Threshold (ethr) on eigenvalues was too large:
     Diagonalizing with lowered threshold

     Davidson diagonalization with overlap
     ethr =  2.77E-08,  avg # of iterations =  1.0

     total cpu time spent up to now is        9.7 secs

     total energy              =     -95.09106113 Ry
     Harris-Foulkes estimate   =     -95.10918109 Ry
     estimated scf accuracy    <       0.00000250 Ry

     iteration #  2     ecut=    40.00 Ry     beta=0.70
     Davidson diagonalization with overlap
     ethr =  2.77E-08,  avg # of iterations =  2.9

     total cpu time spent up to now is       10.8 secs

     total energy              =     -95.09106561 Ry
     Harris-Foulkes estimate   =     -95.09106744 Ry
     estimated scf accuracy    <       0.00000414 Ry

     iteration #  3     ecut=    40.00 Ry     beta=0.70
     Davidson diagonalization with overlap
     ethr =  2.77E-08,  avg # of iterations =  1.4

     total cpu time spent up to now is       11.6 secs

     total energy              =     -95.09106570 Ry
     Harris-Foulkes estimate   =     -95.09106589 Ry
     estimated scf accuracy    <       0.00000080 Ry

     iteration #  4     ecut=    40.00 Ry     beta=0.70
     Davidson diagonalization with overlap
     ethr =  8.90E-09,  avg # of iterations =  1.0

     total cpu time spent up to now is       12.4 secs

     total energy              =     -95.09106563 Ry
     Harris-Foulkes estimate   =     -95.09106572 Ry
     estimated scf accuracy    <       0.00000039 Ry

     iteration #  5     ecut=    40.00 Ry     beta=0.70
     Davidson diagonalization with overlap
     ethr =  4.37E-09,  avg # of iterations =  1.0

     total cpu time spent up to now is       13.2 secs

     total energy              =     -95.09106556 Ry
     Harris-Foulkes estimate   =     -95.09106563 Ry
     estimated scf accuracy    <       0.00000021 Ry

     iteration #  6     ecut=    40.00 Ry     beta=0.70
     Davidson diagonalization with overlap
     ethr =  2.31E-09,  avg # of iterations =  1.0

     total cpu time spent up to now is       13.9 secs

     total energy              =     -95.09106554 Ry
     Harris-Foulkes estimate   =     -95.09106557 Ry
     estimated scf accuracy    <       0.00000006 Ry

     iteration #  7     ecut=    40.00 Ry     beta=0.70
     Davidson diagonalization with overlap
     ethr =  6.78E-10,  avg # of iterations =  1.0

     total cpu time spent up to now is       14.7 secs

     End of self-consistent calculation

     Number of k-points >= 100: set verbosity='high' to print the bands.

     the Fermi energy is     3.8883 ev

!    total energy              =     -95.09106553 Ry
     Harris-Foulkes estimate   =     -95.09106554 Ry
     estimated scf accuracy    <          9.0E-09 Ry

     The total energy is the sum of the following terms:

     one-electron contribution =     -78.14528034 Ry
     hartree contribution      =      40.25044236 Ry
     xc contribution           =     -14.33231653 Ry
     ewald contribution        =     -42.86380548 Ry
     smearing contrib. (-TS)   =      -0.00010555 Ry

     convergence has been achieved in   7 iterations

     Forces acting on atoms (cartesian axes, Ry/au):

     atom    1 type  1   force =     0.00000000    0.00000000    0.00000000

     Total force =     0.000000     Total SCF correction =     0.000000


     Computing stress (Cartesian axis) and pressure

          total   stress  (Ry/bohr**3)                   (kbar)     P=   68.46
   0.00046535   0.00000000  -0.00000000         68.46      0.00     -0.00
   0.00000000   0.00046535   0.00000000          0.00     68.46      0.00
  -0.00000000   0.00000000   0.00046535         -0.00      0.00     68.46


     number of scf cycles    =   2
     number of bfgs steps    =   1

     enthalpy old            =     -95.0136810482 Ry
     enthalpy new            =     -95.0136811951 Ry

     CASE: enthalpy_new < enthalpy_old


     WARNING: bfgs curvature condition failed, Theta= 0.298
     new trust radius        =       0.0003735652 bohr
     new conv_thr            =            1.0E-10 Ry

     new unit-cell volume =    162.55180 a.u.^3 (    24.08769 Ang^3 )
     density =      1.58487 g/cm^3

CELL_PARAMETERS (alat=  6.87775362)
   0.499877955   0.499877955   0.499877955
  -0.499877955   0.499877955   0.499877955
  -0.499877955  -0.499877955   0.499877955

ATOMIC_POSITIONS (crystal)
Na       0.000000000   0.000000000   0.000000000



     Writing output data file na.bcc.save
     NEW-OLD atomic charge density approx. for the potential
     extrapolated charge    8.99605, renormalised to    9.00000

     total cpu time spent up to now is       15.7 secs

     per-process dynamical memory:    22.3 Mb

     Self-consistent Calculation

     iteration #  1     ecut=    40.00 Ry     beta=0.70
     Davidson diagonalization with overlap
     ethr =  1.00E-06,  avg # of iterations =  2.0

     Threshold (ethr) on eigenvalues was too large:
     Diagonalizing with lowered threshold

     Davidson diagonalization with overlap
     ethr =  6.58E-08,  avg # of iterations =  1.0

     total cpu time spent up to now is       17.5 secs

     total energy              =     -95.09102155 Ry
     Harris-Foulkes estimate   =     -95.11820581 Ry
     estimated scf accuracy    <       0.00000592 Ry

     iteration #  2     ecut=    40.00 Ry     beta=0.70
     Davidson diagonalization with overlap
     ethr =  6.58E-08,  avg # of iterations =  2.9

     total cpu time spent up to now is       18.6 secs

     total energy              =     -95.09103184 Ry
     Harris-Foulkes estimate   =     -95.09103603 Ry
     estimated scf accuracy    <       0.00000943 Ry

     iteration #  3     ecut=    40.00 Ry     beta=0.70
     Davidson diagonalization with overlap
     ethr =  6.58E-08,  avg # of iterations =  1.3

     total cpu time spent up to now is       19.4 secs

     total energy              =     -95.09103203 Ry
     Harris-Foulkes estimate   =     -95.09103248 Ry
     estimated scf accuracy    <       0.00000177 Ry

     iteration #  4     ecut=    40.00 Ry     beta=0.70
     Davidson diagonalization with overlap
     ethr =  1.97E-08,  avg # of iterations =  1.0

     total cpu time spent up to now is       20.2 secs

     total energy              =     -95.09103187 Ry
     Harris-Foulkes estimate   =     -95.09103209 Ry
     estimated scf accuracy    <       0.00000082 Ry

     iteration #  5     ecut=    40.00 Ry     beta=0.70
     Davidson diagonalization with overlap
     ethr =  9.11E-09,  avg # of iterations =  1.0

     total cpu time spent up to now is       20.9 secs

     total energy              =     -95.09103173 Ry
     Harris-Foulkes estimate   =     -95.09103189 Ry
     estimated scf accuracy    <       0.00000040 Ry

     iteration #  6     ecut=    40.00 Ry     beta=0.70
     Davidson diagonalization with overlap
     ethr =  4.43E-09,  avg # of iterations =  1.0

     total cpu time spent up to now is       21.7 secs

     total energy              =     -95.09103170 Ry
     Harris-Foulkes estimate   =     -95.09103175 Ry
     estimated scf accuracy    <       0.00000011 Ry

     iteration #  7     ecut=    40.00 Ry     beta=0.70
     Davidson diagonalization with overlap
     ethr =  1.17E-09,  avg # of iterations =  1.2

     total cpu time spent up to now is       22.5 secs

     total energy              =     -95.09103170 Ry
     Harris-Foulkes estimate   =     -95.09103171 Ry
     estimated scf accuracy    <       0.00000001 Ry

     iteration #  8     ecut=    40.00 Ry     beta=0.70
     Davidson diagonalization with overlap
     ethr =  1.52E-10,  avg # of iterations =  2.0

     total cpu time spent up to now is       23.4 secs

     End of self-consistent calculation

     Number of k-points >= 100: set verbosity='high' to print the bands.

     the Fermi energy is     3.8912 ev

!    total energy              =     -95.09103171 Ry
     Harris-Foulkes estimate   =     -95.09103171 Ry
     estimated scf accuracy    <          2.0E-11 Ry

     The total energy is the sum of the following terms:

     one-electron contribution =     -78.13481074 Ry
     hartree contribution      =      40.24645137 Ry
     xc contribution           =     -14.33248218 Ry
     ewald contribution        =     -42.87008461 Ry
     smearing contrib. (-TS)   =      -0.00010554 Ry

     convergence has been achieved in   8 iterations

     Forces acting on atoms (cartesian axes, Ry/au):

     atom    1 type  1   force =     0.00000000    0.00000000    0.00000000

     Total force =     0.000000     Total SCF correction =     0.000000


     Computing stress (Cartesian axis) and pressure

          total   stress  (Ry/bohr**3)                   (kbar)     P=   69.69
   0.00047371  -0.00000000   0.00000000         69.69     -0.00      0.00
  -0.00000000   0.00047371  -0.00000000         -0.00     69.69     -0.00
   0.00000000  -0.00000000   0.00047371          0.00     -0.00     69.69


     bfgs converged in   3 scf cycles and   2 bfgs steps
     (criteria: energy <  1.0E-04 Ry, force <  1.0E-03Ry/Bohr, cell <  5.0E-01kbar)

     End of BFGS Geometry Optimization

     Final enthalpy =     -95.0136813657 Ry
Begin final coordinates
     new unit-cell volume =    162.55180 a.u.^3 (    24.08769 Ang^3 )
     density =      1.58487 g/cm^3

CELL_PARAMETERS (alat=  6.87775362)
   0.499877955   0.499877955   0.499877955
  -0.499877955   0.499877955   0.499877955
  -0.499877955  -0.499877955   0.499877955

ATOMIC_POSITIONS (crystal)
Na       0.000000000   0.000000000   0.000000000
End final coordinates



     A final scf calculation at the relaxed structure.
     The G-vectors are recalculated for the final unit cell
     Results may differ from those at the preceding step.

     Parallelization info
     --------------------
     sticks:   dense  smooth     PW     G-vecs:    dense   smooth      PW
     Min         210     103     34                 3920     1367     263
     Max         211     104     35                 3923     1369     265
     Sum         841     415    137                15683     5473    1055



     bravais-lattice index     =            3
     lattice parameter (alat)  =       6.8778  a.u.
     unit-cell volume          =     162.5518 (a.u.)^3
     number of atoms/cell      =            1
     number of atomic types    =            1
     number of electrons       =         9.00
     number of Kohn-Sham states=            9
     kinetic-energy cutoff     =      40.0000  Ry
     charge density cutoff     =     320.0000  Ry
     convergence threshold     =      1.0E-10
     mixing beta               =       0.7000
     number of iterations used =            8  plain     mixing
     Exchange-correlation      = SLA  PW   PBE  PBE ( 1  4  3  4 0 0)

     celldm(1)=   6.877754  celldm(2)=   0.000000  celldm(3)=   0.000000
     celldm(4)=   0.000000  celldm(5)=   0.000000  celldm(6)=   0.000000

     crystal axes: (cart. coord. in units of alat)
               a(1) = (   0.499878   0.499878   0.499878 )  
               a(2) = (  -0.499878   0.499878   0.499878 )  
               a(3) = (  -0.499878  -0.499878   0.499878 )  

     reciprocal axes: (cart. coord. in units 2 pi/alat)
               b(1) = (  1.000244  0.000000  1.000244 )  
               b(2) = ( -1.000244  1.000244  0.000000 )  
               b(3) = (  0.000000 -1.000244  1.000244 )  


     PseudoPot. # 1 for Na read from file:
     /home/s1333534/quantum_espresso/qe-6.1/pseudo/Na_pbe_v1.uspp.F.UPF
     MD5 check sum: 76a99c7e9422403d3e93cbc85ab7bccb
     Pseudo is Ultrasoft, Zval =  9.0
     Generated by new atomic code, or converted to UPF format
     Using radial grid of  819 points,  5 beta functions with: 
                l(1) =   0
                l(2) =   0
                l(3) =   1
                l(4) =   1
                l(5) =   2
     Q(r) pseudized with  8 coefficients,  rinner =    1.250   1.250   1.250
                                                       1.250   1.250

     atomic species   valence    mass     pseudopotential
        Na             9.00    22.99000     Na( 1.00)

     48 Sym. Ops., with inversion, found



   Cartesian axes

     site n.     atom                  positions (alat units)
         1           Na  tau(   1) = (   0.0000000   0.0000000   0.0000000  )

     number of k points=   250  Marzari-Vanderbilt smearing, width (Ry)=  0.0200

     Number of k-points >= 100: set verbosity='high' to print them.

     Dense  grid:    15683 G-vectors     FFT dimensions: (  36,  36,  36)

     Smooth grid:     5473 G-vectors     FFT dimensions: (  24,  24,  24)

     Estimated max dynamical RAM per process >       8.58MB

     Estimated total allocated dynamical RAM >      34.32MB

     Initial potential from superposition of free atoms

     starting charge    8.99371, renormalised to    9.00000
     Starting wfc are    5 randomized atomic wfcs +    4 random wfc

     Writing output data file na.bcc.save

     total cpu time spent up to now is       24.8 secs

     per-process dynamical memory:    20.0 Mb

     Self-consistent Calculation

     iteration #  1     ecut=    40.00 Ry     beta=0.70
     Davidson diagonalization with overlap
     ethr =  1.00E-06,  avg # of iterations = 10.8

     total cpu time spent up to now is       27.6 secs

     total energy              =     -95.09081612 Ry
     Harris-Foulkes estimate   =     -95.09133611 Ry
     estimated scf accuracy    <       0.00139195 Ry

     iteration #  2     ecut=    40.00 Ry     beta=0.70
     Davidson diagonalization with overlap
     ethr =  1.55E-05,  avg # of iterations =  2.0

     total cpu time spent up to now is       28.5 secs

     total energy              =     -95.09100792 Ry
     Harris-Foulkes estimate   =     -95.09105131 Ry
     estimated scf accuracy    <       0.00016246 Ry

     iteration #  3     ecut=    40.00 Ry     beta=0.70
     Davidson diagonalization with overlap
     ethr =  1.81E-06,  avg # of iterations =  2.0

     total cpu time spent up to now is       29.4 secs

     total energy              =     -95.09102718 Ry
     Harris-Foulkes estimate   =     -95.09102848 Ry
     estimated scf accuracy    <       0.00000970 Ry

     iteration #  4     ecut=    40.00 Ry     beta=0.70
     Davidson diagonalization with overlap
     ethr =  1.08E-07,  avg # of iterations =  1.0

     total cpu time spent up to now is       30.2 secs

     total energy              =     -95.09102800 Ry
     Harris-Foulkes estimate   =     -95.09102794 Ry
     estimated scf accuracy    <       0.00000001 Ry

     iteration #  5     ecut=    40.00 Ry     beta=0.70
     Davidson diagonalization with overlap
     ethr =  1.35E-10,  avg # of iterations =  3.0

     total cpu time spent up to now is       31.3 secs

     total energy              =     -95.09102803 Ry
     Harris-Foulkes estimate   =     -95.09102802 Ry
     estimated scf accuracy    <          1.2E-09 Ry

     iteration #  6     ecut=    40.00 Ry     beta=0.70
     Davidson diagonalization with overlap
     ethr =  1.30E-11,  avg # of iterations =  1.5

     total cpu time spent up to now is       32.1 secs

     End of self-consistent calculation

     Number of k-points >= 100: set verbosity='high' to print the bands.

     the Fermi energy is     3.8911 ev

!    total energy              =     -95.09102803 Ry
     Harris-Foulkes estimate   =     -95.09102803 Ry
     estimated scf accuracy    <          9.1E-11 Ry

     The total energy is the sum of the following terms:

     one-electron contribution =     -78.13485127 Ry
     hartree contribution      =      40.24650519 Ry
     xc contribution           =     -14.33249179 Ry
     ewald contribution        =     -42.87008461 Ry
     smearing contrib. (-TS)   =      -0.00010554 Ry

     convergence has been achieved in   6 iterations

     Forces acting on atoms (cartesian axes, Ry/au):

     atom    1 type  1   force =     0.00000000    0.00000000    0.00000000

     Total force =     0.000000     Total SCF correction =     0.000000


     Computing stress (Cartesian axis) and pressure

          total   stress  (Ry/bohr**3)                   (kbar)     P=   69.78
   0.00047437  -0.00000000   0.00000000         69.78     -0.00      0.00
  -0.00000000   0.00047437  -0.00000000         -0.00     69.78     -0.00
   0.00000000  -0.00000000   0.00047437          0.00     -0.00     69.78


     Writing output data file na.bcc.save

     init_run     :      1.15s CPU      1.18s WALL (       2 calls)
     electrons    :     27.07s CPU     28.05s WALL (       4 calls)
     update_pot   :      0.29s CPU      0.29s WALL (       2 calls)
     forces       :      0.38s CPU      0.39s WALL (       4 calls)
     stress       :      1.82s CPU      1.83s WALL (       4 calls)

     Called by init_run:
     wfcinit      :      0.58s CPU      0.60s WALL (       2 calls)
     potinit      :      0.07s CPU      0.07s WALL (       2 calls)

     Called by electrons:
     c_bands      :     22.07s CPU     22.90s WALL (      29 calls)
     sum_band     :      4.52s CPU      4.65s WALL (      29 calls)
     v_of_rho     :      0.24s CPU      0.24s WALL (      30 calls)
     newd         :      0.27s CPU      0.28s WALL (      30 calls)
     mix_rho      :      0.01s CPU      0.01s WALL (      29 calls)

     Called by c_bands:
     init_us_2    :      1.31s CPU      1.28s WALL (   17000 calls)
     cegterg      :     20.82s CPU     21.66s WALL (    7250 calls)

     Called by sum_band:
     sum_band:bec :      0.02s CPU      0.02s WALL (    7250 calls)
     addusdens    :      0.35s CPU      0.35s WALL (      29 calls)

     Called by *egterg:
     h_psi        :     16.18s CPU     16.83s WALL (   23319 calls)
     s_psi        :      0.31s CPU      0.24s WALL (   23319 calls)
     g_psi        :      0.15s CPU      0.14s WALL (   15569 calls)
     cdiaghg      :      2.95s CPU      3.02s WALL (   21569 calls)

     Called by h_psi:
     h_psi:pot    :     16.12s CPU     16.73s WALL (   23319 calls)
     h_psi:calbec :      0.51s CPU      0.40s WALL (   23319 calls)
     vloc_psi     :     15.40s CPU     16.00s WALL (   23319 calls)
     add_vuspsi   :      0.17s CPU      0.27s WALL (   23319 calls)

     General routines
     calbec       :      0.84s CPU      0.74s WALL (   35569 calls)
     fft          :      0.11s CPU      0.12s WALL (     510 calls)
     ffts         :      0.01s CPU      0.01s WALL (      59 calls)
     fftw         :     17.08s CPU     16.60s WALL (  393008 calls)
     interpolate  :      0.02s CPU      0.02s WALL (      59 calls)
     davcio       :      0.00s CPU      0.00s WALL (     500 calls)

     Parallel routines
     fft_scatter  :      2.94s CPU      3.37s WALL (  393577 calls)

     PWSCF        :    31.71s CPU        32.79s WALL


   This run was terminated on:  17:39:34  20Dec2017            

=------------------------------------------------------------------------------=
   JOB DONE.
=------------------------------------------------------------------------------=
