
     Program PWSCF v.6.1 (svn rev. 13369) starts on 20Dec2017 at 17:39:49 

     This program is part of the open-source Quantum ESPRESSO suite
     for quantum simulation of materials; please cite
         "P. Giannozzi et al., J. Phys.:Condens. Matter 21 395502 (2009);
          URL http://www.quantum-espresso.org", 
     in publications or presentations arising from this work. More details at
     http://www.quantum-espresso.org/quote

     Parallel version (MPI), running on     4 processors
     R & G space division:  proc/nbgrp/npool/nimage =       4
     Waiting for input...
     Reading input from standard input

     Current dimensions of program PWSCF are:
     Max number of different atomic species (ntypx) = 10
     Max number of k-points (npk) =  40000
     Max angular momentum in pseudopotentials (lmaxx) =  3

     Subspace diagonalization in iterative solution of the eigenvalue problem:
     a serial algorithm will be used


     Parallelization info
     --------------------
     sticks:   dense  smooth     PW     G-vecs:    dense   smooth      PW
     Min         204     102     32                 3692     1319     239
     Max         205     103     33                 3694     1321     242
     Sum         817     411    129                14771     5281     959



     bravais-lattice index     =            3
     lattice parameter (alat)  =       6.7398  a.u.
     unit-cell volume          =     153.0757 (a.u.)^3
     number of atoms/cell      =            1
     number of atomic types    =            1
     number of electrons       =         9.00
     number of Kohn-Sham states=            9
     kinetic-energy cutoff     =      40.0000  Ry
     charge density cutoff     =     320.0000  Ry
     convergence threshold     =      1.0E-08
     mixing beta               =       0.7000
     number of iterations used =            8  plain     mixing
     Exchange-correlation      = SLA  PW   PBE  PBE ( 1  4  3  4 0 0)
     nstep                     =           50


     celldm(1)=   6.739775  celldm(2)=   0.000000  celldm(3)=   0.000000
     celldm(4)=   0.000000  celldm(5)=   0.000000  celldm(6)=   0.000000

     crystal axes: (cart. coord. in units of alat)
               a(1) = (   0.500000   0.500000   0.500000 )  
               a(2) = (  -0.500000   0.500000   0.500000 )  
               a(3) = (  -0.500000  -0.500000   0.500000 )  

     reciprocal axes: (cart. coord. in units 2 pi/alat)
               b(1) = (  1.000000  0.000000  1.000000 )  
               b(2) = ( -1.000000  1.000000  0.000000 )  
               b(3) = (  0.000000 -1.000000  1.000000 )  


     PseudoPot. # 1 for Na read from file:
     /home/s1333534/quantum_espresso/qe-6.1/pseudo/Na_pbe_v1.uspp.F.UPF
     MD5 check sum: 76a99c7e9422403d3e93cbc85ab7bccb
     Pseudo is Ultrasoft, Zval =  9.0
     Generated by new atomic code, or converted to UPF format
     Using radial grid of  819 points,  5 beta functions with: 
                l(1) =   0
                l(2) =   0
                l(3) =   1
                l(4) =   1
                l(5) =   2
     Q(r) pseudized with  8 coefficients,  rinner =    1.250   1.250   1.250
                                                       1.250   1.250

     atomic species   valence    mass     pseudopotential
        Na             9.00    22.99000     Na( 1.00)

     48 Sym. Ops., with inversion, found



   Cartesian axes

     site n.     atom                  positions (alat units)
         1           Na  tau(   1) = (   0.0000000   0.0000000   0.0000000  )

     number of k points=   250  Marzari-Vanderbilt smearing, width (Ry)=  0.0200

     Number of k-points >= 100: set verbosity='high' to print them.

     Dense  grid:    14771 G-vectors     FFT dimensions: (  36,  36,  36)

     Smooth grid:     5281 G-vectors     FFT dimensions: (  24,  24,  24)

     Estimated max dynamical RAM per process >       8.13MB

     Estimated total allocated dynamical RAM >      32.53MB

     Initial potential from superposition of free atoms

     starting charge    8.99371, renormalised to    9.00000
     Starting wfc are    5 randomized atomic wfcs +    4 random wfc

     total cpu time spent up to now is        0.7 secs

     per-process dynamical memory:    14.5 Mb

     Self-consistent Calculation

     iteration #  1     ecut=    40.00 Ry     beta=0.70
     Davidson diagonalization with overlap
     ethr =  1.00E-02,  avg # of iterations =  5.5

     Threshold (ethr) on eigenvalues was too large:
     Diagonalizing with lowered threshold

     Davidson diagonalization with overlap
     ethr =  1.71E-05,  avg # of iterations =  3.2

     total cpu time spent up to now is        3.2 secs

     total energy              =     -95.08541476 Ry
     Harris-Foulkes estimate   =     -95.08598517 Ry
     estimated scf accuracy    <       0.00153700 Ry

     iteration #  2     ecut=    40.00 Ry     beta=0.70
     Davidson diagonalization with overlap
     ethr =  1.71E-05,  avg # of iterations =  2.0

     total cpu time spent up to now is        4.1 secs

     total energy              =     -95.08562355 Ry
     Harris-Foulkes estimate   =     -95.08566923 Ry
     estimated scf accuracy    <       0.00017602 Ry

     iteration #  3     ecut=    40.00 Ry     beta=0.70
     Davidson diagonalization with overlap
     ethr =  1.96E-06,  avg # of iterations =  2.1

     total cpu time spent up to now is        5.0 secs

     total energy              =     -95.08564558 Ry
     Harris-Foulkes estimate   =     -95.08564672 Ry
     estimated scf accuracy    <       0.00001033 Ry

     iteration #  4     ecut=    40.00 Ry     beta=0.70
     Davidson diagonalization with overlap
     ethr =  1.15E-07,  avg # of iterations =  1.0

     total cpu time spent up to now is        5.8 secs

     total energy              =     -95.08564647 Ry
     Harris-Foulkes estimate   =     -95.08564641 Ry
     estimated scf accuracy    <       0.00000001 Ry

     iteration #  5     ecut=    40.00 Ry     beta=0.70
     Davidson diagonalization with overlap
     ethr =  1.58E-10,  avg # of iterations =  3.0

     total cpu time spent up to now is        6.8 secs

     End of self-consistent calculation

     Number of k-points >= 100: set verbosity='high' to print the bands.

     the Fermi energy is     4.3041 ev

!    total energy              =     -95.08564650 Ry
     Harris-Foulkes estimate   =     -95.08564650 Ry
     estimated scf accuracy    <          1.9E-09 Ry

     The total energy is the sum of the following terms:

     one-electron contribution =     -76.63648163 Ry
     hartree contribution      =      39.63099792 Ry
     xc contribution           =     -14.34300325 Ry
     ewald contribution        =     -43.73705465 Ry
     smearing contrib. (-TS)   =      -0.00010489 Ry

     convergence has been achieved in   5 iterations

     Forces acting on atoms (cartesian axes, Ry/au):

     atom    1 type  1   force =     0.00000000    0.00000000    0.00000000

     Total force =     0.000000     Total SCF correction =     0.000000


     Computing stress (Cartesian axis) and pressure

          total   stress  (Ry/bohr**3)                   (kbar)     P=   89.79
   0.00061041   0.00000000   0.00000000         89.79      0.00      0.00
   0.00000000   0.00061041   0.00000000          0.00     89.79      0.00
  -0.00000000   0.00000000   0.00061041         -0.00      0.00     89.79


     BFGS Geometry Optimization

     bfgs converged in   1 scf cycles and   0 bfgs steps
     (criteria: energy <  1.0E-04 Ry, force <  1.0E-03Ry/Bohr, cell <  5.0E-01kbar)

     End of BFGS Geometry Optimization

     Final enthalpy =     -94.9919936250 Ry
Begin final coordinates
     new unit-cell volume =    153.07568 a.u.^3 (    22.68348 Ang^3 )
     density =      1.68298 g/cm^3

CELL_PARAMETERS (alat=  6.73977504)
   0.500000000   0.500000000   0.500000000
  -0.500000000   0.500000000   0.500000000
  -0.500000000  -0.500000000   0.500000000

ATOMIC_POSITIONS (crystal)
Na       0.000000000   0.000000000   0.000000000
End final coordinates



     A final scf calculation at the relaxed structure.
     The G-vectors are recalculated for the final unit cell
     Results may differ from those at the preceding step.

     Parallelization info
     --------------------
     sticks:   dense  smooth     PW     G-vecs:    dense   smooth      PW
     Min         204     102     32                 3692     1319     239
     Max         205     103     33                 3694     1321     242
     Sum         817     411    129                14771     5281     959



     bravais-lattice index     =            3
     lattice parameter (alat)  =       6.7398  a.u.
     unit-cell volume          =     153.0757 (a.u.)^3
     number of atoms/cell      =            1
     number of atomic types    =            1
     number of electrons       =         9.00
     number of Kohn-Sham states=            9
     kinetic-energy cutoff     =      40.0000  Ry
     charge density cutoff     =     320.0000  Ry
     convergence threshold     =      1.0E-08
     mixing beta               =       0.7000
     number of iterations used =            8  plain     mixing
     Exchange-correlation      = SLA  PW   PBE  PBE ( 1  4  3  4 0 0)

     celldm(1)=   6.739775  celldm(2)=   0.000000  celldm(3)=   0.000000
     celldm(4)=   0.000000  celldm(5)=   0.000000  celldm(6)=   0.000000

     crystal axes: (cart. coord. in units of alat)
               a(1) = (   0.500000   0.500000   0.500000 )  
               a(2) = (  -0.500000   0.500000   0.500000 )  
               a(3) = (  -0.500000  -0.500000   0.500000 )  

     reciprocal axes: (cart. coord. in units 2 pi/alat)
               b(1) = (  1.000000  0.000000  1.000000 )  
               b(2) = ( -1.000000  1.000000  0.000000 )  
               b(3) = (  0.000000 -1.000000  1.000000 )  


     PseudoPot. # 1 for Na read from file:
     /home/s1333534/quantum_espresso/qe-6.1/pseudo/Na_pbe_v1.uspp.F.UPF
     MD5 check sum: 76a99c7e9422403d3e93cbc85ab7bccb
     Pseudo is Ultrasoft, Zval =  9.0
     Generated by new atomic code, or converted to UPF format
     Using radial grid of  819 points,  5 beta functions with: 
                l(1) =   0
                l(2) =   0
                l(3) =   1
                l(4) =   1
                l(5) =   2
     Q(r) pseudized with  8 coefficients,  rinner =    1.250   1.250   1.250
                                                       1.250   1.250

     atomic species   valence    mass     pseudopotential
        Na             9.00    22.99000     Na( 1.00)

     48 Sym. Ops., with inversion, found



   Cartesian axes

     site n.     atom                  positions (alat units)
         1           Na  tau(   1) = (   0.0000000   0.0000000   0.0000000  )

     number of k points=   250  Marzari-Vanderbilt smearing, width (Ry)=  0.0200

     Number of k-points >= 100: set verbosity='high' to print them.

     Dense  grid:    14771 G-vectors     FFT dimensions: (  36,  36,  36)

     Smooth grid:     5281 G-vectors     FFT dimensions: (  24,  24,  24)

     Estimated max dynamical RAM per process >       8.13MB

     Estimated total allocated dynamical RAM >      32.53MB

     Initial potential from superposition of free atoms

     starting charge    8.99371, renormalised to    9.00000
     Starting wfc are    5 randomized atomic wfcs +    4 random wfc

     Writing output data file na.bcc.save

     total cpu time spent up to now is        8.2 secs

     per-process dynamical memory:    19.5 Mb

     Self-consistent Calculation

     iteration #  1     ecut=    40.00 Ry     beta=0.70
     Davidson diagonalization with overlap
     ethr =  1.00E-06,  avg # of iterations = 10.7

     total cpu time spent up to now is       10.8 secs

     total energy              =     -95.08540864 Ry
     Harris-Foulkes estimate   =     -95.08598556 Ry
     estimated scf accuracy    <       0.00154328 Ry

     iteration #  2     ecut=    40.00 Ry     beta=0.70
     Davidson diagonalization with overlap
     ethr =  1.71E-05,  avg # of iterations =  2.0

     total cpu time spent up to now is       11.7 secs

     total energy              =     -95.08562374 Ry
     Harris-Foulkes estimate   =     -95.08567187 Ry
     estimated scf accuracy    <       0.00018061 Ry

     iteration #  3     ecut=    40.00 Ry     beta=0.70
     Davidson diagonalization with overlap
     ethr =  2.01E-06,  avg # of iterations =  2.0

     total cpu time spent up to now is       12.6 secs

     total energy              =     -95.08564557 Ry
     Harris-Foulkes estimate   =     -95.08564685 Ry
     estimated scf accuracy    <       0.00001071 Ry

     iteration #  4     ecut=    40.00 Ry     beta=0.70
     Davidson diagonalization with overlap
     ethr =  1.19E-07,  avg # of iterations =  1.0

     total cpu time spent up to now is       13.4 secs

     total energy              =     -95.08564647 Ry
     Harris-Foulkes estimate   =     -95.08564641 Ry
     estimated scf accuracy    <       0.00000001 Ry

     iteration #  5     ecut=    40.00 Ry     beta=0.70
     Davidson diagonalization with overlap
     ethr =  1.51E-10,  avg # of iterations =  3.0

     total cpu time spent up to now is       14.5 secs

     End of self-consistent calculation

     Number of k-points >= 100: set verbosity='high' to print the bands.

     the Fermi energy is     4.3041 ev

!    total energy              =     -95.08564650 Ry
     Harris-Foulkes estimate   =     -95.08564650 Ry
     estimated scf accuracy    <          1.3E-09 Ry

     The total energy is the sum of the following terms:

     one-electron contribution =     -76.63650577 Ry
     hartree contribution      =      39.63102781 Ry
     xc contribution           =     -14.34300899 Ry
     ewald contribution        =     -43.73705465 Ry
     smearing contrib. (-TS)   =      -0.00010489 Ry

     convergence has been achieved in   5 iterations

     Forces acting on atoms (cartesian axes, Ry/au):

     atom    1 type  1   force =     0.00000000    0.00000000    0.00000000

     Total force =     0.000000     Total SCF correction =     0.000000


     Computing stress (Cartesian axis) and pressure

          total   stress  (Ry/bohr**3)                   (kbar)     P=   89.85
   0.00061081  -0.00000000   0.00000000         89.85     -0.00      0.00
  -0.00000000   0.00061081  -0.00000000         -0.00     89.85     -0.00
   0.00000000  -0.00000000   0.00061081          0.00     -0.00     89.85


     Writing output data file na.bcc.save

     init_run     :      1.13s CPU      1.15s WALL (       2 calls)
     electrons    :     12.07s CPU     12.48s WALL (       2 calls)
     forces       :      0.16s CPU      0.17s WALL (       2 calls)
     stress       :      0.81s CPU      0.81s WALL (       2 calls)

     Called by init_run:
     wfcinit      :      0.58s CPU      0.59s WALL (       2 calls)
     potinit      :      0.06s CPU      0.07s WALL (       2 calls)

     Called by electrons:
     c_bands      :     10.21s CPU     10.58s WALL (      11 calls)
     sum_band     :      1.67s CPU      1.72s WALL (      11 calls)
     v_of_rho     :      0.09s CPU      0.10s WALL (      12 calls)
     newd         :      0.11s CPU      0.11s WALL (      12 calls)
     mix_rho      :      0.00s CPU      0.01s WALL (      11 calls)

     Called by c_bands:
     init_us_2    :      0.55s CPU      0.53s WALL (    7000 calls)
     cegterg      :      9.75s CPU     10.11s WALL (    2750 calls)

     Called by sum_band:
     sum_band:bec :      0.01s CPU      0.01s WALL (    2750 calls)
     addusdens    :      0.12s CPU      0.12s WALL (      11 calls)

     Called by *egterg:
     h_psi        :      7.41s CPU      7.69s WALL (   12136 calls)
     s_psi        :      0.14s CPU      0.11s WALL (   12136 calls)
     g_psi        :      0.06s CPU      0.07s WALL (    8886 calls)
     cdiaghg      :      1.77s CPU      1.80s WALL (   11386 calls)

     Called by h_psi:
     h_psi:pot    :      7.38s CPU      7.65s WALL (   12136 calls)
     h_psi:calbec :      0.23s CPU      0.19s WALL (   12136 calls)
     vloc_psi     :      7.03s CPU      7.30s WALL (   12136 calls)
     add_vuspsi   :      0.09s CPU      0.13s WALL (   12136 calls)

     General routines
     calbec       :      0.32s CPU      0.28s WALL (   17386 calls)
     fft          :      0.04s CPU      0.05s WALL (     204 calls)
     ffts         :      0.00s CPU      0.00s WALL (      23 calls)
     fftw         :      7.54s CPU      7.32s WALL (  174400 calls)
     interpolate  :      0.01s CPU      0.01s WALL (      23 calls)
     davcio       :      0.00s CPU      0.00s WALL (     500 calls)

     Parallel routines
     fft_scatter  :      1.23s CPU      1.42s WALL (  174627 calls)

     PWSCF        :    14.69s CPU        15.15s WALL


   This run was terminated on:  17:40: 4  20Dec2017            

=------------------------------------------------------------------------------=
   JOB DONE.
=------------------------------------------------------------------------------=
