
     Program PWSCF v.6.1 (svn rev. 13369) starts on 20Dec2017 at 17:37:31 

     This program is part of the open-source Quantum ESPRESSO suite
     for quantum simulation of materials; please cite
         "P. Giannozzi et al., J. Phys.:Condens. Matter 21 395502 (2009);
          URL http://www.quantum-espresso.org", 
     in publications or presentations arising from this work. More details at
     http://www.quantum-espresso.org/quote

     Parallel version (MPI), running on     4 processors
     R & G space division:  proc/nbgrp/npool/nimage =       4
     Waiting for input...
     Reading input from standard input

     Current dimensions of program PWSCF are:
     Max number of different atomic species (ntypx) = 10
     Max number of k-points (npk) =  40000
     Max angular momentum in pseudopotentials (lmaxx) =  3

     Subspace diagonalization in iterative solution of the eigenvalue problem:
     a serial algorithm will be used


     Parallelization info
     --------------------
     sticks:   dense  smooth     PW     G-vecs:    dense   smooth      PW
     Min         236     118     38                 4651     1650     301
     Max         237     120     39                 4652     1651     302
     Sum         945     475    155                18605     6603    1205



     bravais-lattice index     =            3
     lattice parameter (alat)  =       7.2718  a.u.
     unit-cell volume          =     192.2621 (a.u.)^3
     number of atoms/cell      =            1
     number of atomic types    =            1
     number of electrons       =         9.00
     number of Kohn-Sham states=            9
     kinetic-energy cutoff     =      40.0000  Ry
     charge density cutoff     =     320.0000  Ry
     convergence threshold     =      1.0E-08
     mixing beta               =       0.7000
     number of iterations used =            8  plain     mixing
     Exchange-correlation      = SLA  PW   PBE  PBE ( 1  4  3  4 0 0)
     nstep                     =           50


     celldm(1)=   7.271788  celldm(2)=   0.000000  celldm(3)=   0.000000
     celldm(4)=   0.000000  celldm(5)=   0.000000  celldm(6)=   0.000000

     crystal axes: (cart. coord. in units of alat)
               a(1) = (   0.500000   0.500000   0.500000 )  
               a(2) = (  -0.500000   0.500000   0.500000 )  
               a(3) = (  -0.500000  -0.500000   0.500000 )  

     reciprocal axes: (cart. coord. in units 2 pi/alat)
               b(1) = (  1.000000  0.000000  1.000000 )  
               b(2) = ( -1.000000  1.000000  0.000000 )  
               b(3) = (  0.000000 -1.000000  1.000000 )  


     PseudoPot. # 1 for Na read from file:
     /home/s1333534/quantum_espresso/qe-6.1/pseudo/Na_pbe_v1.uspp.F.UPF
     MD5 check sum: 76a99c7e9422403d3e93cbc85ab7bccb
     Pseudo is Ultrasoft, Zval =  9.0
     Generated by new atomic code, or converted to UPF format
     Using radial grid of  819 points,  5 beta functions with: 
                l(1) =   0
                l(2) =   0
                l(3) =   1
                l(4) =   1
                l(5) =   2
     Q(r) pseudized with  8 coefficients,  rinner =    1.250   1.250   1.250
                                                       1.250   1.250

     atomic species   valence    mass     pseudopotential
        Na             9.00    22.99000     Na( 1.00)

     48 Sym. Ops., with inversion, found



   Cartesian axes

     site n.     atom                  positions (alat units)
         1           Na  tau(   1) = (   0.0000000   0.0000000   0.0000000  )

     number of k points=   250  Marzari-Vanderbilt smearing, width (Ry)=  0.0200

     Number of k-points >= 100: set verbosity='high' to print them.

     Dense  grid:    18605 G-vectors     FFT dimensions: (  36,  36,  36)

     Smooth grid:     6603 G-vectors     FFT dimensions: (  25,  25,  25)

     Estimated max dynamical RAM per process >      10.01MB

     Estimated total allocated dynamical RAM >      40.06MB

     Initial potential from superposition of free atoms

     starting charge    8.99371, renormalised to    9.00000
     Starting wfc are    5 randomized atomic wfcs +    4 random wfc

     total cpu time spent up to now is        0.8 secs

     per-process dynamical memory:    16.3 Mb

     Self-consistent Calculation

     iteration #  1     ecut=    40.00 Ry     beta=0.70
     Davidson diagonalization with overlap
     ethr =  1.00E-02,  avg # of iterations =  5.7

     Threshold (ethr) on eigenvalues was too large:
     Diagonalizing with lowered threshold

     Davidson diagonalization with overlap
     ethr =  1.20E-05,  avg # of iterations =  3.8

     total cpu time spent up to now is        3.7 secs

     total energy              =     -95.10117189 Ry
     Harris-Foulkes estimate   =     -95.10152490 Ry
     estimated scf accuracy    <       0.00108197 Ry

     iteration #  2     ecut=    40.00 Ry     beta=0.70
     Davidson diagonalization with overlap
     ethr =  1.20E-05,  avg # of iterations =  2.0

     total cpu time spent up to now is        4.8 secs

     total energy              =     -95.10131036 Ry
     Harris-Foulkes estimate   =     -95.10134074 Ry
     estimated scf accuracy    <       0.00012219 Ry

     iteration #  3     ecut=    40.00 Ry     beta=0.70
     Davidson diagonalization with overlap
     ethr =  1.36E-06,  avg # of iterations =  2.1

     total cpu time spent up to now is        5.9 secs

     total energy              =     -95.10132450 Ry
     Harris-Foulkes estimate   =     -95.10132568 Ry
     estimated scf accuracy    <       0.00000736 Ry

     iteration #  4     ecut=    40.00 Ry     beta=0.70
     Davidson diagonalization with overlap
     ethr =  8.18E-08,  avg # of iterations =  1.0

     total cpu time spent up to now is        6.7 secs

     End of self-consistent calculation

     Number of k-points >= 100: set verbosity='high' to print the bands.

     the Fermi energy is     2.8723 ev

!    total energy              =     -95.10132515 Ry
     Harris-Foulkes estimate   =     -95.10132509 Ry
     estimated scf accuracy    <          9.8E-09 Ry

     The total energy is the sum of the following terms:

     one-electron contribution =     -82.18328329 Ry
     hartree contribution      =      41.92453715 Ry
     xc contribution           =     -14.30527587 Ry
     ewald contribution        =     -40.53719937 Ry
     smearing contrib. (-TS)   =      -0.00010378 Ry

     convergence has been achieved in   4 iterations

     Forces acting on atoms (cartesian axes, Ry/au):

     atom    1 type  1   force =     0.00000000    0.00000000    0.00000000

     Total force =     0.000000     Total SCF correction =     0.000000


     Computing stress (Cartesian axis) and pressure

          total   stress  (Ry/bohr**3)                   (kbar)     P=   29.08
   0.00019766   0.00000000  -0.00000000         29.08      0.00     -0.00
   0.00000000   0.00019766   0.00000000          0.00     29.08      0.00
  -0.00000000   0.00000000   0.00019766         -0.00      0.00     29.08


     BFGS Geometry Optimization

     number of scf cycles    =   1
     number of bfgs steps    =   0

     enthalpy new            =     -95.0621160211 Ry

     new trust radius        =       0.0004354146 bohr
     new conv_thr            =       0.0000000100 Ry

     new unit-cell volume =    192.17151 a.u.^3 (    28.47688 Ang^3 )
     density =      1.34059 g/cm^3

CELL_PARAMETERS (alat=  7.27178774)
   0.499921495   0.499921495   0.499921495
  -0.499921495   0.499921495   0.499921495
  -0.499921495  -0.499921495   0.499921495

ATOMIC_POSITIONS (crystal)
Na       0.000000000   0.000000000   0.000000000



     Writing output data file na.bcc.save
     NEW-OLD atomic charge density approx. for the potential
     extrapolated charge    8.99576, renormalised to    9.00000

     total cpu time spent up to now is        7.8 secs

     per-process dynamical memory:    25.1 Mb

     Self-consistent Calculation

     iteration #  1     ecut=    40.00 Ry     beta=0.70
     Davidson diagonalization with overlap
     ethr =  1.00E-06,  avg # of iterations =  2.1

     Threshold (ethr) on eigenvalues was too large:
     Diagonalizing with lowered threshold

     Davidson diagonalization with overlap
     ethr =  7.29E-08,  avg # of iterations =  1.0

     total cpu time spent up to now is        9.8 secs

     total energy              =     -95.10129549 Ry
     Harris-Foulkes estimate   =     -95.13203005 Ry
     estimated scf accuracy    <       0.00000657 Ry

     iteration #  2     ecut=    40.00 Ry     beta=0.70
     Davidson diagonalization with overlap
     ethr =  7.30E-08,  avg # of iterations =  2.9

     total cpu time spent up to now is       11.0 secs

     total energy              =     -95.10130732 Ry
     Harris-Foulkes estimate   =     -95.10131211 Ry
     estimated scf accuracy    <       0.00001089 Ry

     iteration #  3     ecut=    40.00 Ry     beta=0.70
     Davidson diagonalization with overlap
     ethr =  7.30E-08,  avg # of iterations =  1.5

     total cpu time spent up to now is       12.0 secs

     total energy              =     -95.10130732 Ry
     Harris-Foulkes estimate   =     -95.10130804 Ry
     estimated scf accuracy    <       0.00000211 Ry

     iteration #  4     ecut=    40.00 Ry     beta=0.70
     Davidson diagonalization with overlap
     ethr =  2.35E-08,  avg # of iterations =  1.0

     total cpu time spent up to now is       12.8 secs

     total energy              =     -95.10130730 Ry
     Harris-Foulkes estimate   =     -95.10130742 Ry
     estimated scf accuracy    <       0.00000066 Ry

     iteration #  5     ecut=    40.00 Ry     beta=0.70
     Davidson diagonalization with overlap
     ethr =  7.30E-09,  avg # of iterations =  1.0

     total cpu time spent up to now is       13.7 secs

     total energy              =     -95.10130730 Ry
     Harris-Foulkes estimate   =     -95.10130731 Ry
     estimated scf accuracy    <       0.00000040 Ry

     iteration #  6     ecut=    40.00 Ry     beta=0.70
     Davidson diagonalization with overlap
     ethr =  4.48E-09,  avg # of iterations =  1.0

     total cpu time spent up to now is       14.6 secs

     total energy              =     -95.10130728 Ry
     Harris-Foulkes estimate   =     -95.10130730 Ry
     estimated scf accuracy    <       0.00000040 Ry

     iteration #  7     ecut=    40.00 Ry     beta=0.70
     Davidson diagonalization with overlap
     ethr =  4.42E-09,  avg # of iterations =  1.0

     total cpu time spent up to now is       15.5 secs

     total energy              =     -95.10130727 Ry
     Harris-Foulkes estimate   =     -95.10130729 Ry
     estimated scf accuracy    <       0.00000036 Ry

     iteration #  8     ecut=    40.00 Ry     beta=0.70
     Davidson diagonalization with overlap
     ethr =  3.96E-09,  avg # of iterations =  1.0

     total cpu time spent up to now is       16.4 secs

     total energy              =     -95.10130707 Ry
     Harris-Foulkes estimate   =     -95.10130727 Ry
     estimated scf accuracy    <       0.00000033 Ry

     iteration #  9     ecut=    40.00 Ry     beta=0.70
     Davidson diagonalization with overlap
     ethr =  3.67E-09,  avg # of iterations =  2.0

     total cpu time spent up to now is       17.4 secs

     total energy              =     -95.10130715 Ry
     Harris-Foulkes estimate   =     -95.10130717 Ry
     estimated scf accuracy    <       0.00000013 Ry

     iteration # 10     ecut=    40.00 Ry     beta=0.70
     Davidson diagonalization with overlap
     ethr =  1.44E-09,  avg # of iterations =  1.0

     total cpu time spent up to now is       18.3 secs

     total energy              =     -95.10130710 Ry
     Harris-Foulkes estimate   =     -95.10130716 Ry
     estimated scf accuracy    <       0.00000009 Ry

     iteration # 11     ecut=    40.00 Ry     beta=0.70
     Davidson diagonalization with overlap
     ethr =  1.02E-09,  avg # of iterations =  2.0

     total cpu time spent up to now is       19.4 secs

     End of self-consistent calculation

     Number of k-points >= 100: set verbosity='high' to print the bands.

     the Fermi energy is     2.8746 ev

!    total energy              =     -95.10130712 Ry
     Harris-Foulkes estimate   =     -95.10130712 Ry
     estimated scf accuracy    <          2.8E-09 Ry

     The total energy is the sum of the following terms:

     one-electron contribution =     -82.17216539 Ry
     hartree contribution      =      41.91986545 Ry
     xc contribution           =     -14.30533829 Ry
     ewald contribution        =     -40.54356509 Ry
     smearing contrib. (-TS)   =      -0.00010380 Ry

     convergence has been achieved in  11 iterations

     Forces acting on atoms (cartesian axes, Ry/au):

     atom    1 type  1   force =     0.00000000    0.00000000    0.00000000

     Total force =     0.000000     Total SCF correction =     0.000000


     Computing stress (Cartesian axis) and pressure

          total   stress  (Ry/bohr**3)                   (kbar)     P=   28.93
   0.00019664   0.00000000  -0.00000000         28.93      0.00     -0.00
   0.00000000   0.00019664   0.00000000          0.00     28.93      0.00
  -0.00000000   0.00000000   0.00019664         -0.00      0.00     28.93


     number of scf cycles    =   2
     number of bfgs steps    =   1

     enthalpy old            =     -95.0621160211 Ry
     enthalpy new            =     -95.0621164526 Ry

     CASE: enthalpy_new < enthalpy_old


     WARNING: bfgs curvature condition failed, Theta= 0.689
     uphill step: resetting bfgs history

     new trust radius        =       0.0005056813 bohr
     new conv_thr            =            1.0E-10 Ry

     new unit-cell volume =    192.06638 a.u.^3 (    28.46130 Ang^3 )
     density =      1.34132 g/cm^3

CELL_PARAMETERS (alat=  7.27178774)
   0.499830314   0.499830314   0.499830314
  -0.499830314   0.499830314   0.499830314
  -0.499830314  -0.499830314   0.499830314

ATOMIC_POSITIONS (crystal)
Na       0.000000000   0.000000000   0.000000000



     Writing output data file na.bcc.save
     NEW-OLD atomic charge density approx. for the potential
     extrapolated charge    8.99508, renormalised to    9.00000

     total cpu time spent up to now is       20.5 secs

     per-process dynamical memory:    25.1 Mb

     Self-consistent Calculation

     iteration #  1     ecut=    40.00 Ry     beta=0.70
     Davidson diagonalization with overlap
     ethr =  1.00E-06,  avg # of iterations =  2.0

     Threshold (ethr) on eigenvalues was too large:
     Diagonalizing with lowered threshold

     Davidson diagonalization with overlap
     ethr =  9.98E-08,  avg # of iterations =  1.0

     total cpu time spent up to now is       22.5 secs

     total energy              =     -95.10127030 Ry
     Harris-Foulkes estimate   =     -95.13697095 Ry
     estimated scf accuracy    <       0.00000898 Ry

     iteration #  2     ecut=    40.00 Ry     beta=0.70
     Davidson diagonalization with overlap
     ethr =  9.98E-08,  avg # of iterations =  2.9

     total cpu time spent up to now is       23.7 secs

     total energy              =     -95.10128633 Ry
     Harris-Foulkes estimate   =     -95.10129283 Ry
     estimated scf accuracy    <       0.00001473 Ry

     iteration #  3     ecut=    40.00 Ry     beta=0.70
     Davidson diagonalization with overlap
     ethr =  9.98E-08,  avg # of iterations =  1.4

     total cpu time spent up to now is       24.6 secs

     total energy              =     -95.10128659 Ry
     Harris-Foulkes estimate   =     -95.10128731 Ry
     estimated scf accuracy    <       0.00000284 Ry

     iteration #  4     ecut=    40.00 Ry     beta=0.70
     Davidson diagonalization with overlap
     ethr =  3.15E-08,  avg # of iterations =  1.0

     total cpu time spent up to now is       25.5 secs

     total energy              =     -95.10128629 Ry
     Harris-Foulkes estimate   =     -95.10128668 Ry
     estimated scf accuracy    <       0.00000130 Ry

     iteration #  5     ecut=    40.00 Ry     beta=0.70
     Davidson diagonalization with overlap
     ethr =  1.44E-08,  avg # of iterations =  1.0

     total cpu time spent up to now is       26.4 secs

     total energy              =     -95.10128611 Ry
     Harris-Foulkes estimate   =     -95.10128633 Ry
     estimated scf accuracy    <       0.00000054 Ry

     iteration #  6     ecut=    40.00 Ry     beta=0.70
     Davidson diagonalization with overlap
     ethr =  6.01E-09,  avg # of iterations =  1.0

     total cpu time spent up to now is       27.3 secs

     total energy              =     -95.10128607 Ry
     Harris-Foulkes estimate   =     -95.10128614 Ry
     estimated scf accuracy    <       0.00000014 Ry

     iteration #  7     ecut=    40.00 Ry     beta=0.70
     Davidson diagonalization with overlap
     ethr =  1.54E-09,  avg # of iterations =  1.9

     total cpu time spent up to now is       28.2 secs

     total energy              =     -95.10128607 Ry
     Harris-Foulkes estimate   =     -95.10128608 Ry
     estimated scf accuracy    <       0.00000001 Ry

     iteration #  8     ecut=    40.00 Ry     beta=0.70
     Davidson diagonalization with overlap
     ethr =  1.25E-10,  avg # of iterations =  2.0

     total cpu time spent up to now is       29.3 secs

     End of self-consistent calculation

     Number of k-points >= 100: set verbosity='high' to print the bands.

     the Fermi energy is     2.8777 ev

!    total energy              =     -95.10128608 Ry
     Harris-Foulkes estimate   =     -95.10128608 Ry
     estimated scf accuracy    <          2.6E-11 Ry

     The total energy is the sum of the following terms:

     one-electron contribution =     -82.15952196 Ry
     hartree contribution      =      41.91477581 Ry
     xc contribution           =     -14.30547491 Ry
     ewald contribution        =     -40.55096121 Ry
     smearing contrib. (-TS)   =      -0.00010381 Ry

     convergence has been achieved in   8 iterations

     Forces acting on atoms (cartesian axes, Ry/au):

     atom    1 type  1   force =     0.00000000    0.00000000    0.00000000

     Total force =     0.000000     Total SCF correction =     0.000000


     Computing stress (Cartesian axis) and pressure

          total   stress  (Ry/bohr**3)                   (kbar)     P=   29.55
   0.00020089  -0.00000000   0.00000000         29.55     -0.00      0.00
  -0.00000000   0.00020089  -0.00000000         -0.00     29.55     -0.00
   0.00000000  -0.00000000   0.00020089          0.00     -0.00     29.55


     bfgs converged in   3 scf cycles and   2 bfgs steps
     (criteria: energy <  1.0E-04 Ry, force <  1.0E-03Ry/Bohr, cell <  5.0E-01kbar)

     End of BFGS Geometry Optimization

     Final enthalpy =     -95.0621168499 Ry
Begin final coordinates
     new unit-cell volume =    192.06638 a.u.^3 (    28.46130 Ang^3 )
     density =      1.34132 g/cm^3

CELL_PARAMETERS (alat=  7.27178774)
   0.499830314   0.499830314   0.499830314
  -0.499830314   0.499830314   0.499830314
  -0.499830314  -0.499830314   0.499830314

ATOMIC_POSITIONS (crystal)
Na       0.000000000   0.000000000   0.000000000
End final coordinates



     A final scf calculation at the relaxed structure.
     The G-vectors are recalculated for the final unit cell
     Results may differ from those at the preceding step.

     Parallelization info
     --------------------
     sticks:   dense  smooth     PW     G-vecs:    dense   smooth      PW
     Min         236     118     38                 4651     1650     301
     Max         237     120     39                 4652     1651     302
     Sum         945     475    155                18605     6603    1205



     bravais-lattice index     =            3
     lattice parameter (alat)  =       7.2718  a.u.
     unit-cell volume          =     192.0664 (a.u.)^3
     number of atoms/cell      =            1
     number of atomic types    =            1
     number of electrons       =         9.00
     number of Kohn-Sham states=            9
     kinetic-energy cutoff     =      40.0000  Ry
     charge density cutoff     =     320.0000  Ry
     convergence threshold     =      1.0E-10
     mixing beta               =       0.7000
     number of iterations used =            8  plain     mixing
     Exchange-correlation      = SLA  PW   PBE  PBE ( 1  4  3  4 0 0)

     celldm(1)=   7.271788  celldm(2)=   0.000000  celldm(3)=   0.000000
     celldm(4)=   0.000000  celldm(5)=   0.000000  celldm(6)=   0.000000

     crystal axes: (cart. coord. in units of alat)
               a(1) = (   0.499830   0.499830   0.499830 )  
               a(2) = (  -0.499830   0.499830   0.499830 )  
               a(3) = (  -0.499830  -0.499830   0.499830 )  

     reciprocal axes: (cart. coord. in units 2 pi/alat)
               b(1) = (  1.000339  0.000000  1.000339 )  
               b(2) = ( -1.000339  1.000339  0.000000 )  
               b(3) = (  0.000000 -1.000339  1.000339 )  


     PseudoPot. # 1 for Na read from file:
     /home/s1333534/quantum_espresso/qe-6.1/pseudo/Na_pbe_v1.uspp.F.UPF
     MD5 check sum: 76a99c7e9422403d3e93cbc85ab7bccb
     Pseudo is Ultrasoft, Zval =  9.0
     Generated by new atomic code, or converted to UPF format
     Using radial grid of  819 points,  5 beta functions with: 
                l(1) =   0
                l(2) =   0
                l(3) =   1
                l(4) =   1
                l(5) =   2
     Q(r) pseudized with  8 coefficients,  rinner =    1.250   1.250   1.250
                                                       1.250   1.250

     atomic species   valence    mass     pseudopotential
        Na             9.00    22.99000     Na( 1.00)

     48 Sym. Ops., with inversion, found



   Cartesian axes

     site n.     atom                  positions (alat units)
         1           Na  tau(   1) = (   0.0000000   0.0000000   0.0000000  )

     number of k points=   250  Marzari-Vanderbilt smearing, width (Ry)=  0.0200

     Number of k-points >= 100: set verbosity='high' to print them.

     Dense  grid:    18605 G-vectors     FFT dimensions: (  36,  36,  36)

     Smooth grid:     6603 G-vectors     FFT dimensions: (  25,  25,  25)

     Estimated max dynamical RAM per process >      10.01MB

     Estimated total allocated dynamical RAM >      40.06MB

     Initial potential from superposition of free atoms

     starting charge    8.99371, renormalised to    9.00000
     Starting wfc are    5 randomized atomic wfcs +    4 random wfc

     Writing output data file na.bcc.save

     total cpu time spent up to now is       30.8 secs

     per-process dynamical memory:    21.5 Mb

     Self-consistent Calculation

     iteration #  1     ecut=    40.00 Ry     beta=0.70
     Davidson diagonalization with overlap
     ethr =  1.00E-06,  avg # of iterations = 11.2

     total cpu time spent up to now is       33.9 secs

     total energy              =     -95.10112264 Ry
     Harris-Foulkes estimate   =     -95.10147985 Ry
     estimated scf accuracy    <       0.00108791 Ry

     iteration #  2     ecut=    40.00 Ry     beta=0.70
     Davidson diagonalization with overlap
     ethr =  1.21E-05,  avg # of iterations =  2.0

     total cpu time spent up to now is       34.9 secs

     total energy              =     -95.10126570 Ry
     Harris-Foulkes estimate   =     -95.10129794 Ry
     estimated scf accuracy    <       0.00012568 Ry

     iteration #  3     ecut=    40.00 Ry     beta=0.70
     Davidson diagonalization with overlap
     ethr =  1.40E-06,  avg # of iterations =  2.0

     total cpu time spent up to now is       36.0 secs

     total energy              =     -95.10127997 Ry
     Harris-Foulkes estimate   =     -95.10128127 Ry
     estimated scf accuracy    <       0.00000768 Ry

     iteration #  4     ecut=    40.00 Ry     beta=0.70
     Davidson diagonalization with overlap
     ethr =  8.53E-08,  avg # of iterations =  1.0

     total cpu time spent up to now is       36.9 secs

     total energy              =     -95.10128064 Ry
     Harris-Foulkes estimate   =     -95.10128058 Ry
     estimated scf accuracy    <          9.6E-09 Ry

     iteration #  5     ecut=    40.00 Ry     beta=0.70
     Davidson diagonalization with overlap
     ethr =  1.07E-10,  avg # of iterations =  3.0

     total cpu time spent up to now is       38.1 secs

     total energy              =     -95.10128067 Ry
     Harris-Foulkes estimate   =     -95.10128066 Ry
     estimated scf accuracy    <          1.1E-09 Ry

     iteration #  6     ecut=    40.00 Ry     beta=0.70
     Davidson diagonalization with overlap
     ethr =  1.20E-11,  avg # of iterations =  1.5

     total cpu time spent up to now is       39.0 secs

     End of self-consistent calculation

     Number of k-points >= 100: set verbosity='high' to print the bands.

     the Fermi energy is     2.8777 ev

!    total energy              =     -95.10128067 Ry
     Harris-Foulkes estimate   =     -95.10128067 Ry
     estimated scf accuracy    <          2.5E-11 Ry

     The total energy is the sum of the following terms:

     one-electron contribution =     -82.15951335 Ry
     hartree contribution      =      41.91477053 Ry
     xc contribution           =     -14.30547283 Ry
     ewald contribution        =     -40.55096121 Ry
     smearing contrib. (-TS)   =      -0.00010381 Ry

     convergence has been achieved in   6 iterations

     Forces acting on atoms (cartesian axes, Ry/au):

     atom    1 type  1   force =     0.00000000    0.00000000    0.00000000

     Total force =     0.000000     Total SCF correction =     0.000000


     Computing stress (Cartesian axis) and pressure

          total   stress  (Ry/bohr**3)                   (kbar)     P=   29.53
   0.00020071  -0.00000000   0.00000000         29.53     -0.00      0.00
  -0.00000000   0.00020071  -0.00000000         -0.00     29.53     -0.00
   0.00000000  -0.00000000   0.00020071          0.00     -0.00     29.53


     Writing output data file na.bcc.save

     init_run     :      1.23s CPU      1.31s WALL (       2 calls)
     electrons    :     32.07s CPU     34.47s WALL (       4 calls)
     update_pot   :      0.34s CPU      0.35s WALL (       2 calls)
     forces       :      0.45s CPU      0.45s WALL (       4 calls)
     stress       :      2.13s CPU      2.13s WALL (       4 calls)

     Called by init_run:
     wfcinit      :      0.63s CPU      0.69s WALL (       2 calls)
     potinit      :      0.07s CPU      0.08s WALL (       2 calls)

     Called by electrons:
     c_bands      :     26.00s CPU     28.02s WALL (      32 calls)
     sum_band     :      5.49s CPU      5.86s WALL (      32 calls)
     v_of_rho     :      0.26s CPU      0.27s WALL (      33 calls)
     newd         :      0.35s CPU      0.35s WALL (      33 calls)
     mix_rho      :      0.02s CPU      0.02s WALL (      32 calls)

     Called by c_bands:
     init_us_2    :      1.78s CPU      1.64s WALL (   18500 calls)
     cegterg      :     24.38s CPU     26.41s WALL (    8000 calls)

     Called by sum_band:
     sum_band:bec :      0.01s CPU      0.02s WALL (    8000 calls)
     addusdens    :      0.45s CPU      0.46s WALL (      32 calls)

     Called by *egterg:
     h_psi        :     19.41s CPU     20.95s WALL (   25267 calls)
     s_psi        :      0.30s CPU      0.30s WALL (   25267 calls)
     g_psi        :      0.14s CPU      0.18s WALL (   16767 calls)
     cdiaghg      :      3.11s CPU      3.27s WALL (   23517 calls)

     Called by h_psi:
     h_psi:pot    :     19.31s CPU     20.83s WALL (   25267 calls)
     h_psi:calbec :      0.48s CPU      0.49s WALL (   25267 calls)
     vloc_psi     :     18.51s CPU     19.93s WALL (   25267 calls)
     add_vuspsi   :      0.29s CPU      0.33s WALL (   25267 calls)

     General routines
     calbec       :      0.81s CPU      0.86s WALL (   38267 calls)
     fft          :      0.13s CPU      0.13s WALL (     558 calls)
     ffts         :      0.01s CPU      0.01s WALL (      65 calls)
     fftw         :     19.73s CPU     20.82s WALL (  430142 calls)
     interpolate  :      0.02s CPU      0.02s WALL (      65 calls)
     davcio       :      0.00s CPU      0.00s WALL (     500 calls)

     Parallel routines
     fft_scatter  :      4.67s CPU      5.86s WALL (  430765 calls)

     PWSCF        :    37.23s CPU        39.78s WALL


   This run was terminated on:  17:38:11  20Dec2017            

=------------------------------------------------------------------------------=
   JOB DONE.
=------------------------------------------------------------------------------=
