
     Program PWSCF v.6.1 (svn rev. 13369) starts on 20Dec2017 at 17:39:34 

     This program is part of the open-source Quantum ESPRESSO suite
     for quantum simulation of materials; please cite
         "P. Giannozzi et al., J. Phys.:Condens. Matter 21 395502 (2009);
          URL http://www.quantum-espresso.org", 
     in publications or presentations arising from this work. More details at
     http://www.quantum-espresso.org/quote

     Parallel version (MPI), running on     4 processors
     R & G space division:  proc/nbgrp/npool/nimage =       4
     Waiting for input...
     Reading input from standard input

     Current dimensions of program PWSCF are:
     Max number of different atomic species (ntypx) = 10
     Max number of k-points (npk) =  40000
     Max angular momentum in pseudopotentials (lmaxx) =  3

     Subspace diagonalization in iterative solution of the eigenvalue problem:
     a serial algorithm will be used


     Parallelization info
     --------------------
     sticks:   dense  smooth     PW     G-vecs:    dense   smooth      PW
     Min         209     102     32                 3824     1354     239
     Max         211     103     33                 3825     1357     242
     Sum         841     411    129                15299     5425     959



     bravais-lattice index     =            3
     lattice parameter (alat)  =       6.8051  a.u.
     unit-cell volume          =     157.5693 (a.u.)^3
     number of atoms/cell      =            1
     number of atomic types    =            1
     number of electrons       =         9.00
     number of Kohn-Sham states=            9
     kinetic-energy cutoff     =      40.0000  Ry
     charge density cutoff     =     320.0000  Ry
     convergence threshold     =      1.0E-08
     mixing beta               =       0.7000
     number of iterations used =            8  plain     mixing
     Exchange-correlation      = SLA  PW   PBE  PBE ( 1  4  3  4 0 0)
     nstep                     =           50


     celldm(1)=   6.805091  celldm(2)=   0.000000  celldm(3)=   0.000000
     celldm(4)=   0.000000  celldm(5)=   0.000000  celldm(6)=   0.000000

     crystal axes: (cart. coord. in units of alat)
               a(1) = (   0.500000   0.500000   0.500000 )  
               a(2) = (  -0.500000   0.500000   0.500000 )  
               a(3) = (  -0.500000  -0.500000   0.500000 )  

     reciprocal axes: (cart. coord. in units 2 pi/alat)
               b(1) = (  1.000000  0.000000  1.000000 )  
               b(2) = ( -1.000000  1.000000  0.000000 )  
               b(3) = (  0.000000 -1.000000  1.000000 )  


     PseudoPot. # 1 for Na read from file:
     /home/s1333534/quantum_espresso/qe-6.1/pseudo/Na_pbe_v1.uspp.F.UPF
     MD5 check sum: 76a99c7e9422403d3e93cbc85ab7bccb
     Pseudo is Ultrasoft, Zval =  9.0
     Generated by new atomic code, or converted to UPF format
     Using radial grid of  819 points,  5 beta functions with: 
                l(1) =   0
                l(2) =   0
                l(3) =   1
                l(4) =   1
                l(5) =   2
     Q(r) pseudized with  8 coefficients,  rinner =    1.250   1.250   1.250
                                                       1.250   1.250

     atomic species   valence    mass     pseudopotential
        Na             9.00    22.99000     Na( 1.00)

     48 Sym. Ops., with inversion, found



   Cartesian axes

     site n.     atom                  positions (alat units)
         1           Na  tau(   1) = (   0.0000000   0.0000000   0.0000000  )

     number of k points=   250  Marzari-Vanderbilt smearing, width (Ry)=  0.0200

     Number of k-points >= 100: set verbosity='high' to print them.

     Dense  grid:    15299 G-vectors     FFT dimensions: (  36,  36,  36)

     Smooth grid:     5425 G-vectors     FFT dimensions: (  24,  24,  24)

     Estimated max dynamical RAM per process >       8.36MB

     Estimated total allocated dynamical RAM >      33.46MB

     Initial potential from superposition of free atoms

     starting charge    8.99371, renormalised to    9.00000
     Starting wfc are    5 randomized atomic wfcs +    4 random wfc

     total cpu time spent up to now is        0.7 secs

     per-process dynamical memory:    14.6 Mb

     Self-consistent Calculation

     iteration #  1     ecut=    40.00 Ry     beta=0.70
     Davidson diagonalization with overlap
     ethr =  1.00E-02,  avg # of iterations =  5.5

     Threshold (ethr) on eigenvalues was too large:
     Diagonalizing with lowered threshold

     Davidson diagonalization with overlap
     ethr =  1.63E-05,  avg # of iterations =  3.3

     total cpu time spent up to now is        3.2 secs

     total energy              =     -95.08814236 Ry
     Harris-Foulkes estimate   =     -95.08866543 Ry
     estimated scf accuracy    <       0.00146118 Ry

     iteration #  2     ecut=    40.00 Ry     beta=0.70
     Davidson diagonalization with overlap
     ethr =  1.62E-05,  avg # of iterations =  2.0

     total cpu time spent up to now is        4.1 secs

     total energy              =     -95.08834081 Ry
     Harris-Foulkes estimate   =     -95.08838327 Ry
     estimated scf accuracy    <       0.00016711 Ry

     iteration #  3     ecut=    40.00 Ry     beta=0.70
     Davidson diagonalization with overlap
     ethr =  1.86E-06,  avg # of iterations =  2.2

     total cpu time spent up to now is        5.0 secs

     total energy              =     -95.08836153 Ry
     Harris-Foulkes estimate   =     -95.08836262 Ry
     estimated scf accuracy    <       0.00000984 Ry

     iteration #  4     ecut=    40.00 Ry     beta=0.70
     Davidson diagonalization with overlap
     ethr =  1.09E-07,  avg # of iterations =  1.0

     total cpu time spent up to now is        5.8 secs

     total energy              =     -95.08836239 Ry
     Harris-Foulkes estimate   =     -95.08836233 Ry
     estimated scf accuracy    <       0.00000001 Ry

     iteration #  5     ecut=    40.00 Ry     beta=0.70
     Davidson diagonalization with overlap
     ethr =  1.47E-10,  avg # of iterations =  3.0

     total cpu time spent up to now is        6.9 secs

     End of self-consistent calculation

     Number of k-points >= 100: set verbosity='high' to print the bands.

     the Fermi energy is     4.1018 ev

!    total energy              =     -95.08836243 Ry
     Harris-Foulkes estimate   =     -95.08836242 Ry
     estimated scf accuracy    <          1.8E-09 Ry

     The total energy is the sum of the following terms:

     one-electron contribution =     -77.36152851 Ry
     hartree contribution      =      39.92840851 Ry
     xc contribution           =     -14.33787247 Ry
     ewald contribution        =     -43.31726465 Ry
     smearing contrib. (-TS)   =      -0.00010529 Ry

     convergence has been achieved in   5 iterations

     Forces acting on atoms (cartesian axes, Ry/au):

     atom    1 type  1   force =     0.00000000    0.00000000    0.00000000

     Total force =     0.000000     Total SCF correction =     0.000000


     Computing stress (Cartesian axis) and pressure

          total   stress  (Ry/bohr**3)                   (kbar)     P=   79.65
   0.00054144  -0.00000000   0.00000000         79.65     -0.00      0.00
  -0.00000000   0.00054144  -0.00000000         -0.00     79.65     -0.00
   0.00000000  -0.00000000   0.00054144          0.00     -0.00     79.65


     BFGS Geometry Optimization

     bfgs converged in   1 scf cycles and   0 bfgs steps
     (criteria: energy <  1.0E-04 Ry, force <  1.0E-03Ry/Bohr, cell <  5.0E-01kbar)

     End of BFGS Geometry Optimization

     Final enthalpy =     -95.0026716423 Ry
Begin final coordinates
     new unit-cell volume =    157.56935 a.u.^3 (    23.34937 Ang^3 )
     density =      1.63498 g/cm^3

CELL_PARAMETERS (alat=  6.80509057)
   0.500000000   0.500000000   0.500000000
  -0.500000000   0.500000000   0.500000000
  -0.500000000  -0.500000000   0.500000000

ATOMIC_POSITIONS (crystal)
Na       0.000000000   0.000000000   0.000000000
End final coordinates



     A final scf calculation at the relaxed structure.
     The G-vectors are recalculated for the final unit cell
     Results may differ from those at the preceding step.

     Parallelization info
     --------------------
     sticks:   dense  smooth     PW     G-vecs:    dense   smooth      PW
     Min         209     102     32                 3824     1354     239
     Max         211     103     33                 3825     1357     242
     Sum         841     411    129                15299     5425     959



     bravais-lattice index     =            3
     lattice parameter (alat)  =       6.8051  a.u.
     unit-cell volume          =     157.5693 (a.u.)^3
     number of atoms/cell      =            1
     number of atomic types    =            1
     number of electrons       =         9.00
     number of Kohn-Sham states=            9
     kinetic-energy cutoff     =      40.0000  Ry
     charge density cutoff     =     320.0000  Ry
     convergence threshold     =      1.0E-08
     mixing beta               =       0.7000
     number of iterations used =            8  plain     mixing
     Exchange-correlation      = SLA  PW   PBE  PBE ( 1  4  3  4 0 0)

     celldm(1)=   6.805091  celldm(2)=   0.000000  celldm(3)=   0.000000
     celldm(4)=   0.000000  celldm(5)=   0.000000  celldm(6)=   0.000000

     crystal axes: (cart. coord. in units of alat)
               a(1) = (   0.500000   0.500000   0.500000 )  
               a(2) = (  -0.500000   0.500000   0.500000 )  
               a(3) = (  -0.500000  -0.500000   0.500000 )  

     reciprocal axes: (cart. coord. in units 2 pi/alat)
               b(1) = (  1.000000  0.000000  1.000000 )  
               b(2) = ( -1.000000  1.000000  0.000000 )  
               b(3) = (  0.000000 -1.000000  1.000000 )  


     PseudoPot. # 1 for Na read from file:
     /home/s1333534/quantum_espresso/qe-6.1/pseudo/Na_pbe_v1.uspp.F.UPF
     MD5 check sum: 76a99c7e9422403d3e93cbc85ab7bccb
     Pseudo is Ultrasoft, Zval =  9.0
     Generated by new atomic code, or converted to UPF format
     Using radial grid of  819 points,  5 beta functions with: 
                l(1) =   0
                l(2) =   0
                l(3) =   1
                l(4) =   1
                l(5) =   2
     Q(r) pseudized with  8 coefficients,  rinner =    1.250   1.250   1.250
                                                       1.250   1.250

     atomic species   valence    mass     pseudopotential
        Na             9.00    22.99000     Na( 1.00)

     48 Sym. Ops., with inversion, found



   Cartesian axes

     site n.     atom                  positions (alat units)
         1           Na  tau(   1) = (   0.0000000   0.0000000   0.0000000  )

     number of k points=   250  Marzari-Vanderbilt smearing, width (Ry)=  0.0200

     Number of k-points >= 100: set verbosity='high' to print them.

     Dense  grid:    15299 G-vectors     FFT dimensions: (  36,  36,  36)

     Smooth grid:     5425 G-vectors     FFT dimensions: (  24,  24,  24)

     Estimated max dynamical RAM per process >       8.36MB

     Estimated total allocated dynamical RAM >      33.46MB

     Initial potential from superposition of free atoms

     starting charge    8.99371, renormalised to    9.00000
     Starting wfc are    5 randomized atomic wfcs +    4 random wfc

     Writing output data file na.bcc.save

     total cpu time spent up to now is        8.2 secs

     per-process dynamical memory:    19.8 Mb

     Self-consistent Calculation

     iteration #  1     ecut=    40.00 Ry     beta=0.70
     Davidson diagonalization with overlap
     c_bands:  1 eigenvalues not converged
     ethr =  1.00E-06,  avg # of iterations = 10.7

     total cpu time spent up to now is       10.9 secs

     total energy              =     -95.08813648 Ry
     Harris-Foulkes estimate   =     -95.08866582 Ry
     estimated scf accuracy    <       0.00146721 Ry

     iteration #  2     ecut=    40.00 Ry     beta=0.70
     Davidson diagonalization with overlap
     ethr =  1.63E-05,  avg # of iterations =  2.0

     total cpu time spent up to now is       11.8 secs

     total energy              =     -95.08834097 Ry
     Harris-Foulkes estimate   =     -95.08838584 Ry
     estimated scf accuracy    <       0.00017156 Ry

     iteration #  3     ecut=    40.00 Ry     beta=0.70
     Davidson diagonalization with overlap
     ethr =  1.91E-06,  avg # of iterations =  2.0

     total cpu time spent up to now is       12.7 secs

     total energy              =     -95.08836153 Ry
     Harris-Foulkes estimate   =     -95.08836274 Ry
     estimated scf accuracy    <       0.00001021 Ry

     iteration #  4     ecut=    40.00 Ry     beta=0.70
     Davidson diagonalization with overlap
     ethr =  1.13E-07,  avg # of iterations =  1.0

     total cpu time spent up to now is       13.4 secs

     total energy              =     -95.08836240 Ry
     Harris-Foulkes estimate   =     -95.08836234 Ry
     estimated scf accuracy    <       0.00000001 Ry

     iteration #  5     ecut=    40.00 Ry     beta=0.70
     Davidson diagonalization with overlap
     ethr =  1.43E-10,  avg # of iterations =  3.0

     total cpu time spent up to now is       14.5 secs

     End of self-consistent calculation

     Number of k-points >= 100: set verbosity='high' to print the bands.

     the Fermi energy is     4.1018 ev

!    total energy              =     -95.08836243 Ry
     Harris-Foulkes estimate   =     -95.08836242 Ry
     estimated scf accuracy    <          1.2E-09 Ry

     The total energy is the sum of the following terms:

     one-electron contribution =     -77.36155578 Ry
     hartree contribution      =      39.92844222 Ry
     xc contribution           =     -14.33787893 Ry
     ewald contribution        =     -43.31726465 Ry
     smearing contrib. (-TS)   =      -0.00010529 Ry

     convergence has been achieved in   5 iterations

     Forces acting on atoms (cartesian axes, Ry/au):

     atom    1 type  1   force =     0.00000000    0.00000000    0.00000000

     Total force =     0.000000     Total SCF correction =     0.000000


     Computing stress (Cartesian axis) and pressure

          total   stress  (Ry/bohr**3)                   (kbar)     P=   79.72
   0.00054189   0.00000000   0.00000000         79.72      0.00      0.00
   0.00000000   0.00054189   0.00000000          0.00     79.72      0.00
   0.00000000   0.00000000   0.00054189          0.00      0.00     79.72


     Writing output data file na.bcc.save

     init_run     :      1.13s CPU      1.16s WALL (       2 calls)
     electrons    :     12.06s CPU     12.47s WALL (       2 calls)
     forces       :      0.16s CPU      0.16s WALL (       2 calls)
     stress       :      0.83s CPU      0.84s WALL (       2 calls)

     Called by init_run:
     wfcinit      :      0.57s CPU      0.60s WALL (       2 calls)
     potinit      :      0.07s CPU      0.07s WALL (       2 calls)

     Called by electrons:
     c_bands      :     10.17s CPU     10.53s WALL (      11 calls)
     sum_band     :      1.72s CPU      1.76s WALL (      11 calls)
     v_of_rho     :      0.10s CPU      0.10s WALL (      12 calls)
     newd         :      0.11s CPU      0.11s WALL (      12 calls)
     mix_rho      :      0.00s CPU      0.01s WALL (      11 calls)

     Called by c_bands:
     init_us_2    :      0.56s CPU      0.55s WALL (    7000 calls)
     cegterg      :      9.70s CPU     10.06s WALL (    2750 calls)

     Called by sum_band:
     sum_band:bec :      0.01s CPU      0.01s WALL (    2750 calls)
     addusdens    :      0.12s CPU      0.13s WALL (      11 calls)

     Called by *egterg:
     h_psi        :      7.31s CPU      7.60s WALL (   12168 calls)
     s_psi        :      0.14s CPU      0.12s WALL (   12168 calls)
     g_psi        :      0.07s CPU      0.07s WALL (    8918 calls)
     cdiaghg      :      1.79s CPU      1.82s WALL (   11418 calls)

     Called by h_psi:
     h_psi:pot    :      7.28s CPU      7.55s WALL (   12168 calls)
     h_psi:calbec :      0.23s CPU      0.19s WALL (   12168 calls)
     vloc_psi     :      6.94s CPU      7.20s WALL (   12168 calls)
     add_vuspsi   :      0.10s CPU      0.13s WALL (   12168 calls)

     General routines
     calbec       :      0.32s CPU      0.29s WALL (   17418 calls)
     fft          :      0.05s CPU      0.05s WALL (     204 calls)
     ffts         :      0.00s CPU      0.00s WALL (      23 calls)
     fftw         :      7.49s CPU      7.25s WALL (  174758 calls)
     interpolate  :      0.01s CPU      0.01s WALL (      23 calls)
     davcio       :      0.00s CPU      0.00s WALL (     500 calls)

     Parallel routines
     fft_scatter  :      1.22s CPU      1.40s WALL (  174985 calls)

     PWSCF        :    14.71s CPU        15.18s WALL


   This run was terminated on:  17:39:49  20Dec2017            

=------------------------------------------------------------------------------=
   JOB DONE.
=------------------------------------------------------------------------------=
