
     Program PWSCF v.6.1 (svn rev. 13369) starts on 20Dec2017 at 17:40: 4 

     This program is part of the open-source Quantum ESPRESSO suite
     for quantum simulation of materials; please cite
         "P. Giannozzi et al., J. Phys.:Condens. Matter 21 395502 (2009);
          URL http://www.quantum-espresso.org", 
     in publications or presentations arising from this work. More details at
     http://www.quantum-espresso.org/quote

     Parallel version (MPI), running on     4 processors
     R & G space division:  proc/nbgrp/npool/nimage =       4
     Waiting for input...
     Reading input from standard input

     Current dimensions of program PWSCF are:
     Max number of different atomic species (ntypx) = 10
     Max number of k-points (npk) =  40000
     Max angular momentum in pseudopotentials (lmaxx) =  3

     Subspace diagonalization in iterative solution of the eigenvalue problem:
     a serial algorithm will be used


     Parallelization info
     --------------------
     sticks:   dense  smooth     PW     G-vecs:    dense   smooth      PW
     Min         202      99     32                 3644     1270     239
     Max         203     100     33                 3646     1273     242
     Sum         809     399    129                14579     5089     959



     bravais-lattice index     =            3
     lattice parameter (alat)  =       6.6830  a.u.
     unit-cell volume          =     149.2364 (a.u.)^3
     number of atoms/cell      =            1
     number of atomic types    =            1
     number of electrons       =         9.00
     number of Kohn-Sham states=            9
     kinetic-energy cutoff     =      40.0000  Ry
     charge density cutoff     =     320.0000  Ry
     convergence threshold     =      1.0E-08
     mixing beta               =       0.7000
     number of iterations used =            8  plain     mixing
     Exchange-correlation      = SLA  PW   PBE  PBE ( 1  4  3  4 0 0)
     nstep                     =           50


     celldm(1)=   6.682950  celldm(2)=   0.000000  celldm(3)=   0.000000
     celldm(4)=   0.000000  celldm(5)=   0.000000  celldm(6)=   0.000000

     crystal axes: (cart. coord. in units of alat)
               a(1) = (   0.500000   0.500000   0.500000 )  
               a(2) = (  -0.500000   0.500000   0.500000 )  
               a(3) = (  -0.500000  -0.500000   0.500000 )  

     reciprocal axes: (cart. coord. in units 2 pi/alat)
               b(1) = (  1.000000  0.000000  1.000000 )  
               b(2) = ( -1.000000  1.000000  0.000000 )  
               b(3) = (  0.000000 -1.000000  1.000000 )  


     PseudoPot. # 1 for Na read from file:
     /home/s1333534/quantum_espresso/qe-6.1/pseudo/Na_pbe_v1.uspp.F.UPF
     MD5 check sum: 76a99c7e9422403d3e93cbc85ab7bccb
     Pseudo is Ultrasoft, Zval =  9.0
     Generated by new atomic code, or converted to UPF format
     Using radial grid of  819 points,  5 beta functions with: 
                l(1) =   0
                l(2) =   0
                l(3) =   1
                l(4) =   1
                l(5) =   2
     Q(r) pseudized with  8 coefficients,  rinner =    1.250   1.250   1.250
                                                       1.250   1.250

     atomic species   valence    mass     pseudopotential
        Na             9.00    22.99000     Na( 1.00)

     48 Sym. Ops., with inversion, found



   Cartesian axes

     site n.     atom                  positions (alat units)
         1           Na  tau(   1) = (   0.0000000   0.0000000   0.0000000  )

     number of k points=   250  Marzari-Vanderbilt smearing, width (Ry)=  0.0200

     Number of k-points >= 100: set verbosity='high' to print them.

     Dense  grid:    14579 G-vectors     FFT dimensions: (  36,  36,  36)

     Smooth grid:     5089 G-vectors     FFT dimensions: (  24,  24,  24)

     Estimated max dynamical RAM per process >       7.97MB

     Estimated total allocated dynamical RAM >      31.89MB

     Initial potential from superposition of free atoms

     starting charge    8.99371, renormalised to    9.00000
     Starting wfc are    5 randomized atomic wfcs +    4 random wfc

     total cpu time spent up to now is        0.7 secs

     per-process dynamical memory:    14.3 Mb

     Self-consistent Calculation

     iteration #  1     ecut=    40.00 Ry     beta=0.70
     Davidson diagonalization with overlap
     ethr =  1.00E-02,  avg # of iterations =  5.5

     Threshold (ethr) on eigenvalues was too large:
     Diagonalizing with lowered threshold

     Davidson diagonalization with overlap
     ethr =  1.79E-05,  avg # of iterations =  3.2

     total cpu time spent up to now is        3.2 secs

     total energy              =     -95.08282170 Ry
     Harris-Foulkes estimate   =     -95.08341078 Ry
     estimated scf accuracy    <       0.00160802 Ry

     iteration #  2     ecut=    40.00 Ry     beta=0.70
     Davidson diagonalization with overlap
     ethr =  1.79E-05,  avg # of iterations =  2.0

     total cpu time spent up to now is        4.1 secs

     total energy              =     -95.08304120 Ry
     Harris-Foulkes estimate   =     -95.08308869 Ry
     estimated scf accuracy    <       0.00018438 Ry

     iteration #  3     ecut=    40.00 Ry     beta=0.70
     Davidson diagonalization with overlap
     ethr =  2.05E-06,  avg # of iterations =  2.2

     total cpu time spent up to now is        5.0 secs

     total energy              =     -95.08306455 Ry
     Harris-Foulkes estimate   =     -95.08306566 Ry
     estimated scf accuracy    <       0.00001081 Ry

     iteration #  4     ecut=    40.00 Ry     beta=0.70
     Davidson diagonalization with overlap
     ethr =  1.20E-07,  avg # of iterations =  1.0

     total cpu time spent up to now is        5.7 secs

     total energy              =     -95.08306548 Ry
     Harris-Foulkes estimate   =     -95.08306542 Ry
     estimated scf accuracy    <       0.00000001 Ry

     iteration #  5     ecut=    40.00 Ry     beta=0.70
     Davidson diagonalization with overlap
     ethr =  1.66E-10,  avg # of iterations =  3.0

     total cpu time spent up to now is        6.8 secs

     End of self-consistent calculation

     Number of k-points >= 100: set verbosity='high' to print the bands.

     the Fermi energy is     4.4872 ev

!    total energy              =     -95.08306552 Ry
     Harris-Foulkes estimate   =     -95.08306551 Ry
     estimated scf accuracy    <          2.0E-09 Ry

     The total energy is the sum of the following terms:

     one-electron contribution =     -75.99483952 Ry
     hartree contribution      =      39.36842300 Ry
     xc contribution           =     -14.34759748 Ry
     ewald contribution        =     -44.10894707 Ry
     smearing contrib. (-TS)   =      -0.00010445 Ry

     convergence has been achieved in   5 iterations

     Forces acting on atoms (cartesian axes, Ry/au):

     atom    1 type  1   force =     0.00000000    0.00000000    0.00000000

     Total force =     0.000000     Total SCF correction =     0.000000


     Computing stress (Cartesian axis) and pressure

          total   stress  (Ry/bohr**3)                   (kbar)     P=   99.45
   0.00067606   0.00000000  -0.00000000         99.45      0.00     -0.00
   0.00000000   0.00067606   0.00000000          0.00     99.45      0.00
  -0.00000000   0.00000000   0.00067606         -0.00      0.00     99.45


     BFGS Geometry Optimization

     number of scf cycles    =   1
     number of bfgs steps    =   0

     enthalpy new            =     -94.9816166648 Ry

     new trust radius        =       0.0002273759 bohr
     new conv_thr            =       0.0000000100 Ry

     new unit-cell volume =    149.19473 a.u.^3 (    22.10838 Ang^3 )
     density =      1.72676 g/cm^3

CELL_PARAMETERS (alat=  6.68295049)
   0.499953468   0.499953468   0.499953468
  -0.499953468   0.499953468   0.499953468
  -0.499953468  -0.499953468   0.499953468

ATOMIC_POSITIONS (crystal)
Na       0.000000000   0.000000000   0.000000000



     Writing output data file na.bcc.save
     NEW-OLD atomic charge density approx. for the potential
     extrapolated charge    8.99749, renormalised to    9.00000

     total cpu time spent up to now is        7.8 secs

     per-process dynamical memory:    21.3 Mb

     Self-consistent Calculation

     iteration #  1     ecut=    40.00 Ry     beta=0.70
     Davidson diagonalization with overlap
     ethr =  1.00E-06,  avg # of iterations =  2.1

     Threshold (ethr) on eigenvalues was too large:
     Diagonalizing with lowered threshold

     Davidson diagonalization with overlap
     ethr =  2.51E-08,  avg # of iterations =  1.0

     total cpu time spent up to now is        9.5 secs

     total energy              =     -95.08303333 Ry
     Harris-Foulkes estimate   =     -95.09980447 Ry
     estimated scf accuracy    <       0.00000226 Ry

     iteration #  2     ecut=    40.00 Ry     beta=0.70
     Davidson diagonalization with overlap
     ethr =  2.51E-08,  avg # of iterations =  2.9

     total cpu time spent up to now is       10.5 secs

     total energy              =     -95.08303737 Ry
     Harris-Foulkes estimate   =     -95.08303901 Ry
     estimated scf accuracy    <       0.00000373 Ry

     iteration #  3     ecut=    40.00 Ry     beta=0.70
     Davidson diagonalization with overlap
     ethr =  2.51E-08,  avg # of iterations =  1.3

     total cpu time spent up to now is       11.3 secs

     total energy              =     -95.08303745 Ry
     Harris-Foulkes estimate   =     -95.08303762 Ry
     estimated scf accuracy    <       0.00000072 Ry

     iteration #  4     ecut=    40.00 Ry     beta=0.70
     Davidson diagonalization with overlap
     ethr =  7.98E-09,  avg # of iterations =  1.0

     total cpu time spent up to now is       12.1 secs

     total energy              =     -95.08303740 Ry
     Harris-Foulkes estimate   =     -95.08303747 Ry
     estimated scf accuracy    <       0.00000036 Ry

     iteration #  5     ecut=    40.00 Ry     beta=0.70
     Davidson diagonalization with overlap
     ethr =  4.01E-09,  avg # of iterations =  1.0

     total cpu time spent up to now is       12.8 secs

     total energy              =     -95.08303732 Ry
     Harris-Foulkes estimate   =     -95.08303740 Ry
     estimated scf accuracy    <       0.00000021 Ry

     iteration #  6     ecut=    40.00 Ry     beta=0.70
     Davidson diagonalization with overlap
     ethr =  2.28E-09,  avg # of iterations =  1.0

     total cpu time spent up to now is       13.6 secs

     total energy              =     -95.08303730 Ry
     Harris-Foulkes estimate   =     -95.08303733 Ry
     estimated scf accuracy    <       0.00000006 Ry

     iteration #  7     ecut=    40.00 Ry     beta=0.70
     Davidson diagonalization with overlap
     ethr =  6.74E-10,  avg # of iterations =  1.1

     total cpu time spent up to now is       14.4 secs

     End of self-consistent calculation

     Number of k-points >= 100: set verbosity='high' to print the bands.

     the Fermi energy is     4.4892 ev

!    total energy              =     -95.08303730 Ry
     Harris-Foulkes estimate   =     -95.08303731 Ry
     estimated scf accuracy    <          8.3E-09 Ry

     The total energy is the sum of the following terms:

     one-electron contribution =     -75.98743324 Ry
     hartree contribution      =      39.36512736 Ry
     xc contribution           =     -14.34757460 Ry
     ewald contribution        =     -44.11305237 Ry
     smearing contrib. (-TS)   =      -0.00010445 Ry

     convergence has been achieved in   7 iterations

     Forces acting on atoms (cartesian axes, Ry/au):

     atom    1 type  1   force =     0.00000000    0.00000000    0.00000000

     Total force =     0.000000     Total SCF correction =     0.000000


     Computing stress (Cartesian axis) and pressure

          total   stress  (Ry/bohr**3)                   (kbar)     P=   98.49
   0.00066954  -0.00000000   0.00000000         98.49     -0.00      0.00
   0.00000000   0.00066954   0.00000000          0.00     98.49      0.00
   0.00000000  -0.00000000   0.00066954          0.00     -0.00     98.49


     number of scf cycles    =   2
     number of bfgs steps    =   1

     enthalpy old            =     -94.9816166648 Ry
     enthalpy new            =     -94.9816167700 Ry

     CASE: enthalpy_new < enthalpy_old


     WARNING: bfgs curvature condition failed, Theta= 0.291
     new trust radius        =       0.0003410480 bohr
     new conv_thr            =            1.0E-10 Ry

     new unit-cell volume =    149.13225 a.u.^3 (    22.09912 Ang^3 )
     density =      1.72748 g/cm^3

CELL_PARAMETERS (alat=  6.68295049)
   0.499883671   0.499883671   0.499883671
  -0.499883671   0.499883671   0.499883671
  -0.499883671  -0.499883671   0.499883671

ATOMIC_POSITIONS (crystal)
Na       0.000000000   0.000000000   0.000000000



     Writing output data file na.bcc.save
     NEW-OLD atomic charge density approx. for the potential
     extrapolated charge    8.99623, renormalised to    9.00000

     total cpu time spent up to now is       15.3 secs

     per-process dynamical memory:    21.3 Mb

     Self-consistent Calculation

     iteration #  1     ecut=    40.00 Ry     beta=0.70
     Davidson diagonalization with overlap
     ethr =  1.00E-06,  avg # of iterations =  2.0

     Threshold (ethr) on eigenvalues was too large:
     Diagonalizing with lowered threshold

     Davidson diagonalization with overlap
     ethr =  5.93E-08,  avg # of iterations =  1.0

     total cpu time spent up to now is       17.1 secs

     total energy              =     -95.08298580 Ry
     Harris-Foulkes estimate   =     -95.10814621 Ry
     estimated scf accuracy    <       0.00000534 Ry

     iteration #  2     ecut=    40.00 Ry     beta=0.70
     Davidson diagonalization with overlap
     ethr =  5.93E-08,  avg # of iterations =  2.9

     total cpu time spent up to now is       18.1 secs

     total energy              =     -95.08299505 Ry
     Harris-Foulkes estimate   =     -95.08299882 Ry
     estimated scf accuracy    <       0.00000849 Ry

     iteration #  3     ecut=    40.00 Ry     beta=0.70
     Davidson diagonalization with overlap
     ethr =  5.93E-08,  avg # of iterations =  1.3

     total cpu time spent up to now is       18.9 secs

     total energy              =     -95.08299523 Ry
     Harris-Foulkes estimate   =     -95.08299563 Ry
     estimated scf accuracy    <       0.00000159 Ry

     iteration #  4     ecut=    40.00 Ry     beta=0.70
     Davidson diagonalization with overlap
     ethr =  1.77E-08,  avg # of iterations =  1.0

     total cpu time spent up to now is       19.7 secs

     total energy              =     -95.08299510 Ry
     Harris-Foulkes estimate   =     -95.08299528 Ry
     estimated scf accuracy    <       0.00000074 Ry

     iteration #  5     ecut=    40.00 Ry     beta=0.70
     Davidson diagonalization with overlap
     ethr =  8.27E-09,  avg # of iterations =  1.0

     total cpu time spent up to now is       20.4 secs

     total energy              =     -95.08299496 Ry
     Harris-Foulkes estimate   =     -95.08299511 Ry
     estimated scf accuracy    <       0.00000039 Ry

     iteration #  6     ecut=    40.00 Ry     beta=0.70
     Davidson diagonalization with overlap
     ethr =  4.28E-09,  avg # of iterations =  1.0

     total cpu time spent up to now is       21.2 secs

     total energy              =     -95.08299493 Ry
     Harris-Foulkes estimate   =     -95.08299498 Ry
     estimated scf accuracy    <       0.00000010 Ry

     iteration #  7     ecut=    40.00 Ry     beta=0.70
     Davidson diagonalization with overlap
     ethr =  1.10E-09,  avg # of iterations =  1.2

     total cpu time spent up to now is       22.0 secs

     total energy              =     -95.08299493 Ry
     Harris-Foulkes estimate   =     -95.08299494 Ry
     estimated scf accuracy    <       0.00000001 Ry

     iteration #  8     ecut=    40.00 Ry     beta=0.70
     Davidson diagonalization with overlap
     ethr =  1.45E-10,  avg # of iterations =  2.0

     total cpu time spent up to now is       22.9 secs

     End of self-consistent calculation

     Number of k-points >= 100: set verbosity='high' to print the bands.

     the Fermi energy is     4.4922 ev

!    total energy              =     -95.08299493 Ry
     Harris-Foulkes estimate   =     -95.08299493 Ry
     estimated scf accuracy    <          3.6E-11 Ry

     The total energy is the sum of the following terms:

     one-electron contribution =     -75.97718257 Ry
     hartree contribution      =      39.36124017 Ry
     xc contribution           =     -14.34773636 Ry
     ewald contribution        =     -44.11921174 Ry
     smearing contrib. (-TS)   =      -0.00010444 Ry

     convergence has been achieved in   8 iterations

     Forces acting on atoms (cartesian axes, Ry/au):

     atom    1 type  1   force =     0.00000000    0.00000000    0.00000000

     Total force =     0.000000     Total SCF correction =     0.000000


     Computing stress (Cartesian axis) and pressure

          total   stress  (Ry/bohr**3)                   (kbar)     P=   99.78
   0.00067830  -0.00000000  -0.00000000         99.78     -0.00     -0.00
  -0.00000000   0.00067830   0.00000000         -0.00     99.78      0.00
  -0.00000000   0.00000000   0.00067830         -0.00      0.00     99.78


     bfgs converged in   3 scf cycles and   2 bfgs steps
     (criteria: energy <  1.0E-04 Ry, force <  1.0E-03Ry/Bohr, cell <  5.0E-01kbar)

     End of BFGS Geometry Optimization

     Final enthalpy =     -94.9816168737 Ry
Begin final coordinates
     new unit-cell volume =    149.13225 a.u.^3 (    22.09912 Ang^3 )
     density =      1.72748 g/cm^3

CELL_PARAMETERS (alat=  6.68295049)
   0.499883671   0.499883671   0.499883671
  -0.499883671   0.499883671   0.499883671
  -0.499883671  -0.499883671   0.499883671

ATOMIC_POSITIONS (crystal)
Na       0.000000000   0.000000000   0.000000000
End final coordinates



     A final scf calculation at the relaxed structure.
     The G-vectors are recalculated for the final unit cell
     Results may differ from those at the preceding step.

     Parallelization info
     --------------------
     sticks:   dense  smooth     PW     G-vecs:    dense   smooth      PW
     Min         200      99     32                 3590     1270     239
     Max         201     100     33                 3593     1273     242
     Sum         801     399    129                14363     5089     959



     bravais-lattice index     =            3
     lattice parameter (alat)  =       6.6830  a.u.
     unit-cell volume          =     149.1323 (a.u.)^3
     number of atoms/cell      =            1
     number of atomic types    =            1
     number of electrons       =         9.00
     number of Kohn-Sham states=            9
     kinetic-energy cutoff     =      40.0000  Ry
     charge density cutoff     =     320.0000  Ry
     convergence threshold     =      1.0E-10
     mixing beta               =       0.7000
     number of iterations used =            8  plain     mixing
     Exchange-correlation      = SLA  PW   PBE  PBE ( 1  4  3  4 0 0)

     celldm(1)=   6.682950  celldm(2)=   0.000000  celldm(3)=   0.000000
     celldm(4)=   0.000000  celldm(5)=   0.000000  celldm(6)=   0.000000

     crystal axes: (cart. coord. in units of alat)
               a(1) = (   0.499884   0.499884   0.499884 )  
               a(2) = (  -0.499884   0.499884   0.499884 )  
               a(3) = (  -0.499884  -0.499884   0.499884 )  

     reciprocal axes: (cart. coord. in units 2 pi/alat)
               b(1) = (  1.000233  0.000000  1.000233 )  
               b(2) = ( -1.000233  1.000233  0.000000 )  
               b(3) = (  0.000000 -1.000233  1.000233 )  


     PseudoPot. # 1 for Na read from file:
     /home/s1333534/quantum_espresso/qe-6.1/pseudo/Na_pbe_v1.uspp.F.UPF
     MD5 check sum: 76a99c7e9422403d3e93cbc85ab7bccb
     Pseudo is Ultrasoft, Zval =  9.0
     Generated by new atomic code, or converted to UPF format
     Using radial grid of  819 points,  5 beta functions with: 
                l(1) =   0
                l(2) =   0
                l(3) =   1
                l(4) =   1
                l(5) =   2
     Q(r) pseudized with  8 coefficients,  rinner =    1.250   1.250   1.250
                                                       1.250   1.250

     atomic species   valence    mass     pseudopotential
        Na             9.00    22.99000     Na( 1.00)

     48 Sym. Ops., with inversion, found



   Cartesian axes

     site n.     atom                  positions (alat units)
         1           Na  tau(   1) = (   0.0000000   0.0000000   0.0000000  )

     number of k points=   250  Marzari-Vanderbilt smearing, width (Ry)=  0.0200

     Number of k-points >= 100: set verbosity='high' to print them.

     Dense  grid:    14363 G-vectors     FFT dimensions: (  36,  36,  36)

     Smooth grid:     5089 G-vectors     FFT dimensions: (  24,  24,  24)

     Estimated max dynamical RAM per process >       7.95MB

     Estimated total allocated dynamical RAM >      31.80MB

     Initial potential from superposition of free atoms

     starting charge    8.99371, renormalised to    9.00000
     Starting wfc are    5 randomized atomic wfcs +    4 random wfc

     Writing output data file na.bcc.save

     total cpu time spent up to now is       24.2 secs

     per-process dynamical memory:    19.4 Mb

     Self-consistent Calculation

     iteration #  1     ecut=    40.00 Ry     beta=0.70
     Davidson diagonalization with overlap
     c_bands:  1 eigenvalues not converged
     ethr =  1.00E-06,  avg # of iterations = 10.6

     total cpu time spent up to now is       26.8 secs

     total energy              =     -95.08274089 Ry
     Harris-Foulkes estimate   =     -95.08334792 Ry
     estimated scf accuracy    <       0.00161673 Ry

     iteration #  2     ecut=    40.00 Ry     beta=0.70
     Davidson diagonalization with overlap
     ethr =  1.80E-05,  avg # of iterations =  2.0

     total cpu time spent up to now is       27.7 secs

     total energy              =     -95.08296673 Ry
     Harris-Foulkes estimate   =     -95.08301734 Ry
     estimated scf accuracy    <       0.00018932 Ry

     iteration #  3     ecut=    40.00 Ry     beta=0.70
     Davidson diagonalization with overlap
     ethr =  2.10E-06,  avg # of iterations =  2.0

     total cpu time spent up to now is       28.6 secs

     total energy              =     -95.08298985 Ry
     Harris-Foulkes estimate   =     -95.08299113 Ry
     estimated scf accuracy    <       0.00001120 Ry

     iteration #  4     ecut=    40.00 Ry     beta=0.70
     Davidson diagonalization with overlap
     ethr =  1.24E-07,  avg # of iterations =  1.0

     total cpu time spent up to now is       29.3 secs

     total energy              =     -95.08299078 Ry
     Harris-Foulkes estimate   =     -95.08299072 Ry
     estimated scf accuracy    <       0.00000001 Ry

     iteration #  5     ecut=    40.00 Ry     beta=0.70
     Davidson diagonalization with overlap
     ethr =  1.59E-10,  avg # of iterations =  3.0

     total cpu time spent up to now is       30.4 secs

     total energy              =     -95.08299081 Ry
     Harris-Foulkes estimate   =     -95.08299081 Ry
     estimated scf accuracy    <          1.4E-09 Ry

     iteration #  6     ecut=    40.00 Ry     beta=0.70
     Davidson diagonalization with overlap
     ethr =  1.57E-11,  avg # of iterations =  1.6

     total cpu time spent up to now is       31.2 secs

     total energy              =     -95.08299081 Ry
     Harris-Foulkes estimate   =     -95.08299081 Ry
     estimated scf accuracy    <          1.7E-10 Ry

     iteration #  7     ecut=    40.00 Ry     beta=0.70
     Davidson diagonalization with overlap
     ethr =  1.87E-12,  avg # of iterations =  2.0

     total cpu time spent up to now is       32.1 secs

     End of self-consistent calculation

     Number of k-points >= 100: set verbosity='high' to print the bands.

     the Fermi energy is     4.4923 ev

!    total energy              =     -95.08299081 Ry
     Harris-Foulkes estimate   =     -95.08299081 Ry
     estimated scf accuracy    <          2.9E-12 Ry

     The total energy is the sum of the following terms:

     one-electron contribution =     -75.97719403 Ry
     hartree contribution      =      39.36125931 Ry
     xc contribution           =     -14.34773992 Ry
     ewald contribution        =     -44.11921174 Ry
     smearing contrib. (-TS)   =      -0.00010444 Ry

     convergence has been achieved in   7 iterations

     Forces acting on atoms (cartesian axes, Ry/au):

     atom    1 type  1   force =     0.00000000    0.00000000    0.00000000

     Total force =     0.000000     Total SCF correction =     0.000000


     Computing stress (Cartesian axis) and pressure

          total   stress  (Ry/bohr**3)                   (kbar)     P=   99.80
   0.00067845   0.00000000  -0.00000000         99.80      0.00     -0.00
   0.00000000   0.00067845   0.00000000          0.00     99.80      0.00
  -0.00000000   0.00000000   0.00067845         -0.00      0.00     99.80


     Writing output data file na.bcc.save

     init_run     :      1.11s CPU      1.14s WALL (       2 calls)
     electrons    :     27.38s CPU     28.28s WALL (       4 calls)
     update_pot   :      0.28s CPU      0.28s WALL (       2 calls)
     forces       :      0.35s CPU      0.35s WALL (       4 calls)
     stress       :      1.68s CPU      1.68s WALL (       4 calls)

     Called by init_run:
     wfcinit      :      0.57s CPU      0.59s WALL (       2 calls)
     potinit      :      0.06s CPU      0.06s WALL (       2 calls)

     Called by electrons:
     c_bands      :     22.36s CPU     23.12s WALL (      30 calls)
     sum_band     :      4.54s CPU      4.68s WALL (      30 calls)
     v_of_rho     :      0.24s CPU      0.25s WALL (      31 calls)
     newd         :      0.27s CPU      0.27s WALL (      31 calls)
     mix_rho      :      0.01s CPU      0.01s WALL (      30 calls)

     Called by c_bands:
     init_us_2    :      1.33s CPU      1.29s WALL (   17500 calls)
     cegterg      :     21.13s CPU     21.91s WALL (    7500 calls)

     Called by sum_band:
     sum_band:bec :      0.02s CPU      0.02s WALL (    7500 calls)
     addusdens    :      0.33s CPU      0.33s WALL (      30 calls)

     Called by *egterg:
     h_psi        :     16.48s CPU     17.08s WALL (   23897 calls)
     s_psi        :      0.31s CPU      0.24s WALL (   23897 calls)
     g_psi        :      0.15s CPU      0.13s WALL (   15897 calls)
     cdiaghg      :      3.01s CPU      3.07s WALL (   22147 calls)

     Called by h_psi:
     h_psi:pot    :     16.41s CPU     16.98s WALL (   23897 calls)
     h_psi:calbec :      0.50s CPU      0.41s WALL (   23897 calls)
     vloc_psi     :     15.70s CPU     16.25s WALL (   23897 calls)
     add_vuspsi   :      0.17s CPU      0.26s WALL (   23897 calls)

     General routines
     calbec       :      0.73s CPU      0.65s WALL (   36397 calls)
     fft          :      0.12s CPU      0.12s WALL (     526 calls)
     ffts         :      0.01s CPU      0.01s WALL (      61 calls)
     fftw         :     17.45s CPU     16.81s WALL (  405644 calls)
     interpolate  :      0.02s CPU      0.02s WALL (      61 calls)
     davcio       :      0.00s CPU      0.00s WALL (     500 calls)

     Parallel routines
     fft_scatter  :      2.87s CPU      3.20s WALL (  406231 calls)

     PWSCF        :    31.81s CPU        32.79s WALL


   This run was terminated on:  17:40:37  20Dec2017            

=------------------------------------------------------------------------------=
   JOB DONE.
=------------------------------------------------------------------------------=
