
     Program PWSCF v.6.1 (svn rev. 13369) starts on 20Dec2017 at 17:38:28 

     This program is part of the open-source Quantum ESPRESSO suite
     for quantum simulation of materials; please cite
         "P. Giannozzi et al., J. Phys.:Condens. Matter 21 395502 (2009);
          URL http://www.quantum-espresso.org", 
     in publications or presentations arising from this work. More details at
     http://www.quantum-espresso.org/quote

     Parallel version (MPI), running on     4 processors
     R & G space division:  proc/nbgrp/npool/nimage =       4
     Waiting for input...
     Reading input from standard input

     Current dimensions of program PWSCF are:
     Max number of different atomic species (ntypx) = 10
     Max number of k-points (npk) =  40000
     Max angular momentum in pseudopotentials (lmaxx) =  3

     Subspace diagonalization in iterative solution of the eigenvalue problem:
     a serial algorithm will be used


     Parallelization info
     --------------------
     sticks:   dense  smooth     PW     G-vecs:    dense   smooth      PW
     Min         226     112     34                 4237     1494     265
     Max         227     113     35                 4238     1496     266
     Sum         905     451    139                16949     5979    1061



     bravais-lattice index     =            3
     lattice parameter (alat)  =       7.0456  a.u.
     unit-cell volume          =     174.8733 (a.u.)^3
     number of atoms/cell      =            1
     number of atomic types    =            1
     number of electrons       =         9.00
     number of Kohn-Sham states=            9
     kinetic-energy cutoff     =      40.0000  Ry
     charge density cutoff     =     320.0000  Ry
     convergence threshold     =      1.0E-08
     mixing beta               =       0.7000
     number of iterations used =            8  plain     mixing
     Exchange-correlation      = SLA  PW   PBE  PBE ( 1  4  3  4 0 0)
     nstep                     =           50


     celldm(1)=   7.045597  celldm(2)=   0.000000  celldm(3)=   0.000000
     celldm(4)=   0.000000  celldm(5)=   0.000000  celldm(6)=   0.000000

     crystal axes: (cart. coord. in units of alat)
               a(1) = (   0.500000   0.500000   0.500000 )  
               a(2) = (  -0.500000   0.500000   0.500000 )  
               a(3) = (  -0.500000  -0.500000   0.500000 )  

     reciprocal axes: (cart. coord. in units 2 pi/alat)
               b(1) = (  1.000000  0.000000  1.000000 )  
               b(2) = ( -1.000000  1.000000  0.000000 )  
               b(3) = (  0.000000 -1.000000  1.000000 )  


     PseudoPot. # 1 for Na read from file:
     /home/s1333534/quantum_espresso/qe-6.1/pseudo/Na_pbe_v1.uspp.F.UPF
     MD5 check sum: 76a99c7e9422403d3e93cbc85ab7bccb
     Pseudo is Ultrasoft, Zval =  9.0
     Generated by new atomic code, or converted to UPF format
     Using radial grid of  819 points,  5 beta functions with: 
                l(1) =   0
                l(2) =   0
                l(3) =   1
                l(4) =   1
                l(5) =   2
     Q(r) pseudized with  8 coefficients,  rinner =    1.250   1.250   1.250
                                                       1.250   1.250

     atomic species   valence    mass     pseudopotential
        Na             9.00    22.99000     Na( 1.00)

     48 Sym. Ops., with inversion, found



   Cartesian axes

     site n.     atom                  positions (alat units)
         1           Na  tau(   1) = (   0.0000000   0.0000000   0.0000000  )

     number of k points=   250  Marzari-Vanderbilt smearing, width (Ry)=  0.0200

     Number of k-points >= 100: set verbosity='high' to print them.

     Dense  grid:    16949 G-vectors     FFT dimensions: (  36,  36,  36)

     Smooth grid:     5979 G-vectors     FFT dimensions: (  25,  25,  25)

     Estimated max dynamical RAM per process >       9.17MB

     Estimated total allocated dynamical RAM >      36.69MB

     Initial potential from superposition of free atoms

     starting charge    8.99371, renormalised to    9.00000
     Starting wfc are    5 randomized atomic wfcs +    4 random wfc

     total cpu time spent up to now is        0.7 secs

     per-process dynamical memory:    15.4 Mb

     Self-consistent Calculation

     iteration #  1     ecut=    40.00 Ry     beta=0.70
     Davidson diagonalization with overlap
     ethr =  1.00E-02,  avg # of iterations =  5.6

     Threshold (ethr) on eigenvalues was too large:
     Diagonalizing with lowered threshold

     Davidson diagonalization with overlap
     ethr =  1.37E-05,  avg # of iterations =  3.5

     total cpu time spent up to now is        3.5 secs

     total energy              =     -95.09612992 Ry
     Harris-Foulkes estimate   =     -95.09656644 Ry
     estimated scf accuracy    <       0.00123335 Ry

     iteration #  2     ecut=    40.00 Ry     beta=0.70
     Davidson diagonalization with overlap
     ethr =  1.37E-05,  avg # of iterations =  2.0

     total cpu time spent up to now is        4.4 secs

     total energy              =     -95.09629236 Ry
     Harris-Foulkes estimate   =     -95.09632805 Ry
     estimated scf accuracy    <       0.00014002 Ry

     iteration #  3     ecut=    40.00 Ry     beta=0.70
     Davidson diagonalization with overlap
     ethr =  1.56E-06,  avg # of iterations =  2.1

     total cpu time spent up to now is        5.4 secs

     total energy              =     -95.09630908 Ry
     Harris-Foulkes estimate   =     -95.09631025 Ry
     estimated scf accuracy    <       0.00000832 Ry

     iteration #  4     ecut=    40.00 Ry     beta=0.70
     Davidson diagonalization with overlap
     ethr =  9.25E-08,  avg # of iterations =  1.0

     total cpu time spent up to now is        6.2 secs

     total energy              =     -95.09630981 Ry
     Harris-Foulkes estimate   =     -95.09630975 Ry
     estimated scf accuracy    <       0.00000001 Ry

     iteration #  5     ecut=    40.00 Ry     beta=0.70
     Davidson diagonalization with overlap
     ethr =  1.21E-10,  avg # of iterations =  3.0

     total cpu time spent up to now is        7.3 secs

     End of self-consistent calculation

     Number of k-points >= 100: set verbosity='high' to print the bands.

     the Fermi energy is     3.4244 ev

!    total energy              =     -95.09630984 Ry
     Harris-Foulkes estimate   =     -95.09630984 Ry
     estimated scf accuracy    <          1.5E-09 Ry

     The total energy is the sum of the following terms:

     one-electron contribution =     -79.92184952 Ry
     hartree contribution      =      40.98449930 Ry
     xc contribution           =     -14.32025662 Ry
     ewald contribution        =     -41.83859758 Ry
     smearing contrib. (-TS)   =      -0.00010542 Ry

     convergence has been achieved in   5 iterations

     Forces acting on atoms (cartesian axes, Ry/au):

     atom    1 type  1   force =     0.00000000    0.00000000    0.00000000

     Total force =     0.000000     Total SCF correction =     0.000000


     Computing stress (Cartesian axis) and pressure

          total   stress  (Ry/bohr**3)                   (kbar)     P=   49.55
   0.00033684   0.00000000  -0.00000000         49.55      0.00     -0.00
   0.00000000   0.00033684   0.00000000          0.00     49.55      0.00
  -0.00000000   0.00000000   0.00033684         -0.00      0.00     49.55


     BFGS Geometry Optimization

     bfgs converged in   1 scf cycles and   0 bfgs steps
     (criteria: energy <  1.0E-04 Ry, force <  1.0E-03Ry/Bohr, cell <  5.0E-01kbar)

     End of BFGS Geometry Optimization

     Final enthalpy =     -95.0368716137 Ry
Begin final coordinates
     new unit-cell volume =    174.87328 a.u.^3 (    25.91355 Ang^3 )
     density =      1.47320 g/cm^3

CELL_PARAMETERS (alat=  7.04559728)
   0.500000000   0.500000000   0.500000000
  -0.500000000   0.500000000   0.500000000
  -0.500000000  -0.500000000   0.500000000

ATOMIC_POSITIONS (crystal)
Na       0.000000000   0.000000000   0.000000000
End final coordinates



     A final scf calculation at the relaxed structure.
     The G-vectors are recalculated for the final unit cell
     Results may differ from those at the preceding step.

     Parallelization info
     --------------------
     sticks:   dense  smooth     PW     G-vecs:    dense   smooth      PW
     Min         226     112     34                 4237     1494     265
     Max         227     113     35                 4238     1496     266
     Sum         905     451    139                16949     5979    1061



     bravais-lattice index     =            3
     lattice parameter (alat)  =       7.0456  a.u.
     unit-cell volume          =     174.8733 (a.u.)^3
     number of atoms/cell      =            1
     number of atomic types    =            1
     number of electrons       =         9.00
     number of Kohn-Sham states=            9
     kinetic-energy cutoff     =      40.0000  Ry
     charge density cutoff     =     320.0000  Ry
     convergence threshold     =      1.0E-08
     mixing beta               =       0.7000
     number of iterations used =            8  plain     mixing
     Exchange-correlation      = SLA  PW   PBE  PBE ( 1  4  3  4 0 0)

     celldm(1)=   7.045597  celldm(2)=   0.000000  celldm(3)=   0.000000
     celldm(4)=   0.000000  celldm(5)=   0.000000  celldm(6)=   0.000000

     crystal axes: (cart. coord. in units of alat)
               a(1) = (   0.500000   0.500000   0.500000 )  
               a(2) = (  -0.500000   0.500000   0.500000 )  
               a(3) = (  -0.500000  -0.500000   0.500000 )  

     reciprocal axes: (cart. coord. in units 2 pi/alat)
               b(1) = (  1.000000  0.000000  1.000000 )  
               b(2) = ( -1.000000  1.000000  0.000000 )  
               b(3) = (  0.000000 -1.000000  1.000000 )  


     PseudoPot. # 1 for Na read from file:
     /home/s1333534/quantum_espresso/qe-6.1/pseudo/Na_pbe_v1.uspp.F.UPF
     MD5 check sum: 76a99c7e9422403d3e93cbc85ab7bccb
     Pseudo is Ultrasoft, Zval =  9.0
     Generated by new atomic code, or converted to UPF format
     Using radial grid of  819 points,  5 beta functions with: 
                l(1) =   0
                l(2) =   0
                l(3) =   1
                l(4) =   1
                l(5) =   2
     Q(r) pseudized with  8 coefficients,  rinner =    1.250   1.250   1.250
                                                       1.250   1.250

     atomic species   valence    mass     pseudopotential
        Na             9.00    22.99000     Na( 1.00)

     48 Sym. Ops., with inversion, found



   Cartesian axes

     site n.     atom                  positions (alat units)
         1           Na  tau(   1) = (   0.0000000   0.0000000   0.0000000  )

     number of k points=   250  Marzari-Vanderbilt smearing, width (Ry)=  0.0200

     Number of k-points >= 100: set verbosity='high' to print them.

     Dense  grid:    16949 G-vectors     FFT dimensions: (  36,  36,  36)

     Smooth grid:     5979 G-vectors     FFT dimensions: (  25,  25,  25)

     Estimated max dynamical RAM per process >       9.17MB

     Estimated total allocated dynamical RAM >      36.69MB

     Initial potential from superposition of free atoms

     starting charge    8.99371, renormalised to    9.00000
     Starting wfc are    5 randomized atomic wfcs +    4 random wfc

     Writing output data file na.bcc.save

     total cpu time spent up to now is        8.8 secs

     per-process dynamical memory:    20.6 Mb

     Self-consistent Calculation

     iteration #  1     ecut=    40.00 Ry     beta=0.70
     Davidson diagonalization with overlap
     c_bands:  1 eigenvalues not converged
     c_bands:  1 eigenvalues not converged
     ethr =  1.00E-06,  avg # of iterations = 11.0

     total cpu time spent up to now is       11.6 secs

     total energy              =     -95.09612463 Ry
     Harris-Foulkes estimate   =     -95.09656674 Ry
     estimated scf accuracy    <       0.00123874 Ry

     iteration #  2     ecut=    40.00 Ry     beta=0.70
     Davidson diagonalization with overlap
     ethr =  1.38E-05,  avg # of iterations =  2.0

     total cpu time spent up to now is       12.6 secs

     total energy              =     -95.09629232 Ry
     Harris-Foulkes estimate   =     -95.09633019 Ry
     estimated scf accuracy    <       0.00014398 Ry

     iteration #  3     ecut=    40.00 Ry     beta=0.70
     Davidson diagonalization with overlap
     ethr =  1.60E-06,  avg # of iterations =  2.0

     total cpu time spent up to now is       13.5 secs

     total energy              =     -95.09630907 Ry
     Harris-Foulkes estimate   =     -95.09631036 Ry
     estimated scf accuracy    <       0.00000867 Ry

     iteration #  4     ecut=    40.00 Ry     beta=0.70
     Davidson diagonalization with overlap
     ethr =  9.63E-08,  avg # of iterations =  1.0

     total cpu time spent up to now is       14.3 secs

     total energy              =     -95.09630981 Ry
     Harris-Foulkes estimate   =     -95.09630976 Ry
     estimated scf accuracy    <       0.00000001 Ry

     iteration #  5     ecut=    40.00 Ry     beta=0.70
     Davidson diagonalization with overlap
     ethr =  1.21E-10,  avg # of iterations =  3.0

     total cpu time spent up to now is       15.5 secs

     End of self-consistent calculation

     Number of k-points >= 100: set verbosity='high' to print the bands.

     the Fermi energy is     3.4244 ev

!    total energy              =     -95.09630984 Ry
     Harris-Foulkes estimate   =     -95.09630984 Ry
     estimated scf accuracy    <          1.1E-09 Ry

     The total energy is the sum of the following terms:

     one-electron contribution =     -79.92188170 Ry
     hartree contribution      =      40.98453901 Ry
     xc contribution           =     -14.32026415 Ry
     ewald contribution        =     -41.83859758 Ry
     smearing contrib. (-TS)   =      -0.00010542 Ry

     convergence has been achieved in   5 iterations

     Forces acting on atoms (cartesian axes, Ry/au):

     atom    1 type  1   force =     0.00000000    0.00000000    0.00000000

     Total force =     0.000000     Total SCF correction =     0.000000


     Computing stress (Cartesian axis) and pressure

          total   stress  (Ry/bohr**3)                   (kbar)     P=   49.62
   0.00033733  -0.00000000   0.00000000         49.62     -0.00      0.00
  -0.00000000   0.00033733   0.00000000         -0.00     49.62      0.00
   0.00000000   0.00000000   0.00033733          0.00      0.00     49.62


     Writing output data file na.bcc.save

     init_run     :      1.19s CPU      1.23s WALL (       2 calls)
     electrons    :     12.89s CPU     13.33s WALL (       2 calls)
     forces       :      0.18s CPU      0.18s WALL (       2 calls)
     stress       :      0.91s CPU      0.92s WALL (       2 calls)

     Called by init_run:
     wfcinit      :      0.61s CPU      0.63s WALL (       2 calls)
     potinit      :      0.07s CPU      0.07s WALL (       2 calls)

     Called by electrons:
     c_bands      :     10.85s CPU     11.24s WALL (      11 calls)
     sum_band     :      1.82s CPU      1.88s WALL (      11 calls)
     v_of_rho     :      0.10s CPU      0.10s WALL (      12 calls)
     newd         :      0.13s CPU      0.14s WALL (      12 calls)
     mix_rho      :      0.00s CPU      0.01s WALL (      11 calls)

     Called by c_bands:
     init_us_2    :      0.60s CPU      0.57s WALL (    7000 calls)
     cegterg      :     10.35s CPU     10.73s WALL (    2750 calls)

     Called by sum_band:
     sum_band:bec :      0.01s CPU      0.01s WALL (    2750 calls)
     addusdens    :      0.14s CPU      0.14s WALL (      11 calls)

     Called by *egterg:
     h_psi        :      7.86s CPU      8.16s WALL (   12320 calls)
     s_psi        :      0.15s CPU      0.13s WALL (   12320 calls)
     g_psi        :      0.07s CPU      0.07s WALL (    9070 calls)
     cdiaghg      :      1.82s CPU      1.86s WALL (   11570 calls)

     Called by h_psi:
     h_psi:pot    :      7.83s CPU      8.11s WALL (   12320 calls)
     h_psi:calbec :      0.25s CPU      0.20s WALL (   12320 calls)
     vloc_psi     :      7.45s CPU      7.74s WALL (   12320 calls)
     add_vuspsi   :      0.10s CPU      0.14s WALL (   12320 calls)

     General routines
     calbec       :      0.38s CPU      0.33s WALL (   17570 calls)
     fft          :      0.05s CPU      0.05s WALL (     204 calls)
     ffts         :      0.00s CPU      0.00s WALL (      23 calls)
     fftw         :      7.88s CPU      7.75s WALL (  175680 calls)
     interpolate  :      0.01s CPU      0.01s WALL (      23 calls)
     davcio       :      0.00s CPU      0.00s WALL (     500 calls)

     Parallel routines
     fft_scatter  :      1.48s CPU      1.72s WALL (  175907 calls)

     PWSCF        :    15.69s CPU        16.21s WALL


   This run was terminated on:  17:38:45  20Dec2017            

=------------------------------------------------------------------------------=
   JOB DONE.
=------------------------------------------------------------------------------=
