
     Program PWSCF v.6.1 (svn rev. 13369) starts on 20Dec2017 at 17:36: 8 

     This program is part of the open-source Quantum ESPRESSO suite
     for quantum simulation of materials; please cite
         "P. Giannozzi et al., J. Phys.:Condens. Matter 21 395502 (2009);
          URL http://www.quantum-espresso.org", 
     in publications or presentations arising from this work. More details at
     http://www.quantum-espresso.org/quote

     Parallel version (MPI), running on     4 processors
     R & G space division:  proc/nbgrp/npool/nimage =       4
     Waiting for input...
     Reading input from standard input

     Current dimensions of program PWSCF are:
     Max number of different atomic species (ntypx) = 10
     Max number of k-points (npk) =  40000
     Max angular momentum in pseudopotentials (lmaxx) =  3

     Subspace diagonalization in iterative solution of the eigenvalue problem:
     a serial algorithm will be used


     Parallelization info
     --------------------
     sticks:   dense  smooth     PW     G-vecs:    dense   smooth      PW
     Min         258     130     42                 5274     1854     352
     Max         260     131     43                 5275     1855     353
     Sum        1035     523    169                21097     7419    1409



     bravais-lattice index     =            3
     lattice parameter (alat)  =       7.5980  a.u.
     unit-cell volume          =     219.3105 (a.u.)^3
     number of atoms/cell      =            1
     number of atomic types    =            1
     number of electrons       =         9.00
     number of Kohn-Sham states=            9
     kinetic-energy cutoff     =      40.0000  Ry
     charge density cutoff     =     320.0000  Ry
     convergence threshold     =      1.0E-08
     mixing beta               =       0.7000
     number of iterations used =            8  plain     mixing
     Exchange-correlation      = SLA  PW   PBE  PBE ( 1  4  3  4 0 0)
     nstep                     =           50


     celldm(1)=   7.597951  celldm(2)=   0.000000  celldm(3)=   0.000000
     celldm(4)=   0.000000  celldm(5)=   0.000000  celldm(6)=   0.000000

     crystal axes: (cart. coord. in units of alat)
               a(1) = (   0.500000   0.500000   0.500000 )  
               a(2) = (  -0.500000   0.500000   0.500000 )  
               a(3) = (  -0.500000  -0.500000   0.500000 )  

     reciprocal axes: (cart. coord. in units 2 pi/alat)
               b(1) = (  1.000000  0.000000  1.000000 )  
               b(2) = ( -1.000000  1.000000  0.000000 )  
               b(3) = (  0.000000 -1.000000  1.000000 )  


     PseudoPot. # 1 for Na read from file:
     /home/s1333534/quantum_espresso/qe-6.1/pseudo/Na_pbe_v1.uspp.F.UPF
     MD5 check sum: 76a99c7e9422403d3e93cbc85ab7bccb
     Pseudo is Ultrasoft, Zval =  9.0
     Generated by new atomic code, or converted to UPF format
     Using radial grid of  819 points,  5 beta functions with: 
                l(1) =   0
                l(2) =   0
                l(3) =   1
                l(4) =   1
                l(5) =   2
     Q(r) pseudized with  8 coefficients,  rinner =    1.250   1.250   1.250
                                                       1.250   1.250

     atomic species   valence    mass     pseudopotential
        Na             9.00    22.99000     Na( 1.00)

     48 Sym. Ops., with inversion, found



   Cartesian axes

     site n.     atom                  positions (alat units)
         1           Na  tau(   1) = (   0.0000000   0.0000000   0.0000000  )

     number of k points=   250  Marzari-Vanderbilt smearing, width (Ry)=  0.0200

     Number of k-points >= 100: set verbosity='high' to print them.

     Dense  grid:    21097 G-vectors     FFT dimensions: (  40,  40,  40)

     Smooth grid:     7419 G-vectors     FFT dimensions: (  27,  27,  27)

     Estimated max dynamical RAM per process >      11.60MB

     Estimated total allocated dynamical RAM >      46.38MB

     Initial potential from superposition of free atoms

     starting charge    8.99371, renormalised to    9.00000
     Starting wfc are    5 randomized atomic wfcs +    4 random wfc

     total cpu time spent up to now is        0.9 secs

     per-process dynamical memory:    17.8 Mb

     Self-consistent Calculation

     iteration #  1     ecut=    40.00 Ry     beta=0.70
     Davidson diagonalization with overlap
     ethr =  1.00E-02,  avg # of iterations =  5.7

     Threshold (ethr) on eigenvalues was too large:
     Diagonalizing with lowered threshold

     Davidson diagonalization with overlap
     ethr =  1.06E-05,  avg # of iterations =  4.3

     total cpu time spent up to now is        5.3 secs

     total energy              =     -95.10521331 Ry
     Harris-Foulkes estimate   =     -95.10550202 Ry
     estimated scf accuracy    <       0.00094799 Ry

     iteration #  2     ecut=    40.00 Ry     beta=0.70
     Davidson diagonalization with overlap
     ethr =  1.05E-05,  avg # of iterations =  2.0

     total cpu time spent up to now is        6.8 secs

     total energy              =     -95.10532701 Ry
     Harris-Foulkes estimate   =     -95.10535296 Ry
     estimated scf accuracy    <       0.00010589 Ry

     iteration #  3     ecut=    40.00 Ry     beta=0.70
     Davidson diagonalization with overlap
     ethr =  1.18E-06,  avg # of iterations =  2.1

     total cpu time spent up to now is        8.3 secs

     total energy              =     -95.10533898 Ry
     Harris-Foulkes estimate   =     -95.10534022 Ry
     estimated scf accuracy    <       0.00000651 Ry

     iteration #  4     ecut=    40.00 Ry     beta=0.70
     Davidson diagonalization with overlap
     ethr =  7.23E-08,  avg # of iterations =  1.0

     total cpu time spent up to now is        9.6 secs

     End of self-consistent calculation

     Number of k-points >= 100: set verbosity='high' to print the bands.

     the Fermi energy is     2.1944 ev

!    total energy              =     -95.10533957 Ry
     Harris-Foulkes estimate   =     -95.10533952 Ry
     estimated scf accuracy    <          9.6E-09 Ry

     The total energy is the sum of the following terms:

     one-electron contribution =     -85.21925180 Ry
     hartree contribution      =      43.19706850 Ry
     xc contribution           =     -14.28602913 Ry
     ewald contribution        =     -38.79702809 Ry
     smearing contrib. (-TS)   =      -0.00009905 Ry

     convergence has been achieved in   4 iterations

     Forces acting on atoms (cartesian axes, Ry/au):

     atom    1 type  1   force =     0.00000000    0.00000000    0.00000000

     Total force =     0.000000     Total SCF correction =     0.000000


     Computing stress (Cartesian axis) and pressure

          total   stress  (Ry/bohr**3)                   (kbar)     P=    9.39
   0.00006382  -0.00000000   0.00000000          9.39     -0.00      0.00
  -0.00000000   0.00006382  -0.00000000         -0.00      9.39     -0.00
   0.00000000  -0.00000000   0.00006382          0.00     -0.00      9.39


     BFGS Geometry Optimization

     number of scf cycles    =   1
     number of bfgs steps    =   0

     enthalpy new            =     -95.0904311445 Ry

     new trust radius        =       0.0003079250 bohr
     new conv_thr            =       0.0000000100 Ry

     new unit-cell volume =    219.24211 a.u.^3 (    32.48833 Ang^3 )
     density =      1.17506 g/cm^3

CELL_PARAMETERS (alat=  7.59795077)
   0.499948018   0.499948018   0.499948018
  -0.499948018   0.499948018   0.499948018
  -0.499948018  -0.499948018   0.499948018

ATOMIC_POSITIONS (crystal)
Na       0.000000000   0.000000000   0.000000000



     Writing output data file na.bcc.save
     NEW-OLD atomic charge density approx. for the potential
     extrapolated charge    8.99719, renormalised to    9.00000

     total cpu time spent up to now is       10.8 secs

     per-process dynamical memory:    27.7 Mb

     Self-consistent Calculation

     iteration #  1     ecut=    40.00 Ry     beta=0.70
     Davidson diagonalization with overlap
     ethr =  1.00E-06,  avg # of iterations =  2.1

     Threshold (ethr) on eigenvalues was too large:
     Diagonalizing with lowered threshold

     Davidson diagonalization with overlap
     ethr =  3.29E-08,  avg # of iterations =  1.0

     total cpu time spent up to now is       13.7 secs

     total energy              =     -95.10532992 Ry
     Harris-Foulkes estimate   =     -95.12647909 Ry
     estimated scf accuracy    <       0.00000297 Ry

     iteration #  2     ecut=    40.00 Ry     beta=0.70
     Davidson diagonalization with overlap
     ethr =  3.30E-08,  avg # of iterations =  3.0

     total cpu time spent up to now is       15.4 secs

     total energy              =     -95.10533522 Ry
     Harris-Foulkes estimate   =     -95.10533736 Ry
     estimated scf accuracy    <       0.00000485 Ry

     iteration #  3     ecut=    40.00 Ry     beta=0.70
     Davidson diagonalization with overlap
     ethr =  3.30E-08,  avg # of iterations =  1.5

     total cpu time spent up to now is       16.7 secs

     total energy              =     -95.10533518 Ry
     Harris-Foulkes estimate   =     -95.10533554 Ry
     estimated scf accuracy    <       0.00000093 Ry

     iteration #  4     ecut=    40.00 Ry     beta=0.70
     Davidson diagonalization with overlap
     ethr =  1.04E-08,  avg # of iterations =  1.0

     total cpu time spent up to now is       18.0 secs

     total energy              =     -95.10533521 Ry
     Harris-Foulkes estimate   =     -95.10533524 Ry
     estimated scf accuracy    <       0.00000023 Ry

     iteration #  5     ecut=    40.00 Ry     beta=0.70
     Davidson diagonalization with overlap
     ethr =  2.55E-09,  avg # of iterations =  1.0

     total cpu time spent up to now is       19.3 secs

     total energy              =     -95.10533524 Ry
     Harris-Foulkes estimate   =     -95.10533522 Ry
     estimated scf accuracy    <       0.00000019 Ry

     iteration #  6     ecut=    40.00 Ry     beta=0.70
     Davidson diagonalization with overlap
     ethr =  2.12E-09,  avg # of iterations =  1.0

     total cpu time spent up to now is       20.6 secs

     total energy              =     -95.10533522 Ry
     Harris-Foulkes estimate   =     -95.10533524 Ry
     estimated scf accuracy    <       0.00000023 Ry

     iteration #  7     ecut=    40.00 Ry     beta=0.70
     Davidson diagonalization with overlap
     ethr =  2.12E-09,  avg # of iterations =  1.0

     total cpu time spent up to now is       21.9 secs

     total energy              =     -95.10533511 Ry
     Harris-Foulkes estimate   =     -95.10533522 Ry
     estimated scf accuracy    <       0.00000020 Ry

     iteration #  8     ecut=    40.00 Ry     beta=0.70
     Davidson diagonalization with overlap
     ethr =  2.12E-09,  avg # of iterations =  2.0

     total cpu time spent up to now is       23.4 secs

     End of self-consistent calculation

     Number of k-points >= 100: set verbosity='high' to print the bands.

     the Fermi energy is     2.1957 ev

!    total energy              =     -95.10533513 Ry
     Harris-Foulkes estimate   =     -95.10533514 Ry
     estimated scf accuracy    <          9.0E-09 Ry

     The total energy is the sum of the following terms:

     one-electron contribution =     -85.21203190 Ry
     hartree contribution      =      43.19389362 Ry
     xc contribution           =     -14.28603576 Ry
     ewald contribution        =     -38.80106202 Ry
     smearing contrib. (-TS)   =      -0.00009906 Ry

     convergence has been achieved in   8 iterations

     Forces acting on atoms (cartesian axes, Ry/au):

     atom    1 type  1   force =     0.00000000    0.00000000    0.00000000

     Total force =     0.000000     Total SCF correction =     0.000000


     Computing stress (Cartesian axis) and pressure

          total   stress  (Ry/bohr**3)                   (kbar)     P=    8.74
   0.00005945  -0.00000000   0.00000000          8.74     -0.00      0.00
  -0.00000000   0.00005945  -0.00000000         -0.00      8.74     -0.00
   0.00000000  -0.00000000   0.00005945          0.00     -0.00      8.74


     number of scf cycles    =   2
     number of bfgs steps    =   1

     enthalpy old            =     -95.0904311445 Ry
     enthalpy new            =     -95.0904313523 Ry

     CASE: enthalpy_new < enthalpy_old


     WARNING: bfgs curvature condition failed, Theta= 0.390
     new trust radius        =       0.0002941388 bohr
     new conv_thr            =            1.0E-10 Ry

     new unit-cell volume =    219.17679 a.u.^3 (    32.47865 Ang^3 )
     density =      1.17541 g/cm^3

CELL_PARAMETERS (alat=  7.59795077)
   0.499898360   0.499898360   0.499898360
  -0.499898360   0.499898360   0.499898360
  -0.499898360  -0.499898360   0.499898360

ATOMIC_POSITIONS (crystal)
Na       0.000000000   0.000000000   0.000000000



     Writing output data file na.bcc.save
     NEW-OLD atomic charge density approx. for the potential
     extrapolated charge    8.99732, renormalised to    9.00000

     total cpu time spent up to now is       24.7 secs

     per-process dynamical memory:    27.7 Mb

     Self-consistent Calculation

     iteration #  1     ecut=    40.00 Ry     beta=0.70
     Davidson diagonalization with overlap
     ethr =  1.00E-06,  avg # of iterations =  2.0

     Threshold (ethr) on eigenvalues was too large:
     Diagonalizing with lowered threshold

     Davidson diagonalization with overlap
     ethr =  3.19E-08,  avg # of iterations =  1.0

     total cpu time spent up to now is       27.5 secs

     total energy              =     -95.10532597 Ry
     Harris-Foulkes estimate   =     -95.12552949 Ry
     estimated scf accuracy    <       0.00000287 Ry

     iteration #  2     ecut=    40.00 Ry     beta=0.70
     Davidson diagonalization with overlap
     ethr =  3.19E-08,  avg # of iterations =  2.9

     total cpu time spent up to now is       29.2 secs

     total energy              =     -95.10533091 Ry
     Harris-Foulkes estimate   =     -95.10533291 Ry
     estimated scf accuracy    <       0.00000449 Ry

     iteration #  3     ecut=    40.00 Ry     beta=0.70
     Davidson diagonalization with overlap
     ethr =  3.19E-08,  avg # of iterations =  1.4

     total cpu time spent up to now is       30.6 secs

     total energy              =     -95.10533098 Ry
     Harris-Foulkes estimate   =     -95.10533121 Ry
     estimated scf accuracy    <       0.00000084 Ry

     iteration #  4     ecut=    40.00 Ry     beta=0.70
     Davidson diagonalization with overlap
     ethr =  9.31E-09,  avg # of iterations =  1.0

     total cpu time spent up to now is       31.9 secs

     total energy              =     -95.10533090 Ry
     Harris-Foulkes estimate   =     -95.10533102 Ry
     estimated scf accuracy    <       0.00000036 Ry

     iteration #  5     ecut=    40.00 Ry     beta=0.70
     Davidson diagonalization with overlap
     ethr =  3.96E-09,  avg # of iterations =  1.0

     total cpu time spent up to now is       33.2 secs

     total energy              =     -95.10533086 Ry
     Harris-Foulkes estimate   =     -95.10533091 Ry
     estimated scf accuracy    <       0.00000013 Ry

     iteration #  6     ecut=    40.00 Ry     beta=0.70
     Davidson diagonalization with overlap
     ethr =  1.45E-09,  avg # of iterations =  1.0

     total cpu time spent up to now is       34.5 secs

     total energy              =     -95.10533084 Ry
     Harris-Foulkes estimate   =     -95.10533086 Ry
     estimated scf accuracy    <       0.00000003 Ry

     iteration #  7     ecut=    40.00 Ry     beta=0.70
     Davidson diagonalization with overlap
     ethr =  3.76E-10,  avg # of iterations =  2.0

     total cpu time spent up to now is       36.0 secs

     total energy              =     -95.10533085 Ry
     Harris-Foulkes estimate   =     -95.10533085 Ry
     estimated scf accuracy    <          1.5E-09 Ry

     iteration #  8     ecut=    40.00 Ry     beta=0.70
     Davidson diagonalization with overlap
     ethr =  1.61E-11,  avg # of iterations =  2.0

     total cpu time spent up to now is       37.6 secs

     End of self-consistent calculation

     Number of k-points >= 100: set verbosity='high' to print the bands.

     the Fermi energy is     2.1971 ev

!    total energy              =     -95.10533085 Ry
     Harris-Foulkes estimate   =     -95.10533085 Ry
     estimated scf accuracy    <          4.1E-11 Ry

     The total energy is the sum of the following terms:

     one-electron contribution =     -85.20571213 Ry
     hartree contribution      =      43.19156791 Ry
     xc contribution           =     -14.28617121 Ry
     ewald contribution        =     -38.80491634 Ry
     smearing contrib. (-TS)   =      -0.00009908 Ry

     convergence has been achieved in   8 iterations

     Forces acting on atoms (cartesian axes, Ry/au):

     atom    1 type  1   force =     0.00000000    0.00000000    0.00000000

     Total force =     0.000000     Total SCF correction =     0.000000


     Computing stress (Cartesian axis) and pressure

          total   stress  (Ry/bohr**3)                   (kbar)     P=    9.73
   0.00006612   0.00000000   0.00000000          9.73      0.00      0.00
   0.00000000   0.00006612   0.00000000          0.00      9.73      0.00
  -0.00000000   0.00000000   0.00006612         -0.00      0.00      9.73


     bfgs converged in   3 scf cycles and   2 bfgs steps
     (criteria: energy <  1.0E-04 Ry, force <  1.0E-03Ry/Bohr, cell <  5.0E-01kbar)

     End of BFGS Geometry Optimization

     Final enthalpy =     -95.0904315115 Ry
Begin final coordinates
     new unit-cell volume =    219.17679 a.u.^3 (    32.47865 Ang^3 )
     density =      1.17541 g/cm^3

CELL_PARAMETERS (alat=  7.59795077)
   0.499898360   0.499898360   0.499898360
  -0.499898360   0.499898360   0.499898360
  -0.499898360  -0.499898360   0.499898360

ATOMIC_POSITIONS (crystal)
Na       0.000000000   0.000000000   0.000000000
End final coordinates



     A final scf calculation at the relaxed structure.
     The G-vectors are recalculated for the final unit cell
     Results may differ from those at the preceding step.

     Parallelization info
     --------------------
     sticks:   dense  smooth     PW     G-vecs:    dense   smooth      PW
     Min         258     130     42                 5274     1854     352
     Max         260     131     43                 5275     1855     353
     Sum        1035     523    169                21097     7419    1409



     bravais-lattice index     =            3
     lattice parameter (alat)  =       7.5980  a.u.
     unit-cell volume          =     219.1768 (a.u.)^3
     number of atoms/cell      =            1
     number of atomic types    =            1
     number of electrons       =         9.00
     number of Kohn-Sham states=            9
     kinetic-energy cutoff     =      40.0000  Ry
     charge density cutoff     =     320.0000  Ry
     convergence threshold     =      1.0E-10
     mixing beta               =       0.7000
     number of iterations used =            8  plain     mixing
     Exchange-correlation      = SLA  PW   PBE  PBE ( 1  4  3  4 0 0)

     celldm(1)=   7.597951  celldm(2)=   0.000000  celldm(3)=   0.000000
     celldm(4)=   0.000000  celldm(5)=   0.000000  celldm(6)=   0.000000

     crystal axes: (cart. coord. in units of alat)
               a(1) = (   0.499898   0.499898   0.499898 )  
               a(2) = (  -0.499898   0.499898   0.499898 )  
               a(3) = (  -0.499898  -0.499898   0.499898 )  

     reciprocal axes: (cart. coord. in units 2 pi/alat)
               b(1) = (  1.000203  0.000000  1.000203 )  
               b(2) = ( -1.000203  1.000203  0.000000 )  
               b(3) = (  0.000000 -1.000203  1.000203 )  


     PseudoPot. # 1 for Na read from file:
     /home/s1333534/quantum_espresso/qe-6.1/pseudo/Na_pbe_v1.uspp.F.UPF
     MD5 check sum: 76a99c7e9422403d3e93cbc85ab7bccb
     Pseudo is Ultrasoft, Zval =  9.0
     Generated by new atomic code, or converted to UPF format
     Using radial grid of  819 points,  5 beta functions with: 
                l(1) =   0
                l(2) =   0
                l(3) =   1
                l(4) =   1
                l(5) =   2
     Q(r) pseudized with  8 coefficients,  rinner =    1.250   1.250   1.250
                                                       1.250   1.250

     atomic species   valence    mass     pseudopotential
        Na             9.00    22.99000     Na( 1.00)

     48 Sym. Ops., with inversion, found



   Cartesian axes

     site n.     atom                  positions (alat units)
         1           Na  tau(   1) = (   0.0000000   0.0000000   0.0000000  )

     number of k points=   250  Marzari-Vanderbilt smearing, width (Ry)=  0.0200

     Number of k-points >= 100: set verbosity='high' to print them.

     Dense  grid:    21097 G-vectors     FFT dimensions: (  40,  40,  40)

     Smooth grid:     7419 G-vectors     FFT dimensions: (  27,  27,  27)

     Estimated max dynamical RAM per process >      11.60MB

     Estimated total allocated dynamical RAM >      46.38MB

     Initial potential from superposition of free atoms

     starting charge    8.99371, renormalised to    9.00000
     Starting wfc are    5 randomized atomic wfcs +    4 random wfc

     Writing output data file na.bcc.save

     total cpu time spent up to now is       39.4 secs

     per-process dynamical memory:    23.2 Mb

     Self-consistent Calculation

     iteration #  1     ecut=    40.00 Ry     beta=0.70
     Davidson diagonalization with overlap
     c_bands:  1 eigenvalues not converged
     c_bands:  1 eigenvalues not converged
     c_bands:  1 eigenvalues not converged
     ethr =  1.00E-06,  avg # of iterations = 11.7

     total cpu time spent up to now is       43.7 secs

     total energy              =     -95.10519928 Ry
     Harris-Foulkes estimate   =     -95.10549159 Ry
     estimated scf accuracy    <       0.00095192 Ry

     iteration #  2     ecut=    40.00 Ry     beta=0.70
     Davidson diagonalization with overlap
     ethr =  1.06E-05,  avg # of iterations =  2.0

     total cpu time spent up to now is       45.2 secs

     total energy              =     -95.10531672 Ry
     Harris-Foulkes estimate   =     -95.10534414 Ry
     estimated scf accuracy    <       0.00010865 Ry

     iteration #  3     ecut=    40.00 Ry     beta=0.70
     Davidson diagonalization with overlap
     ethr =  1.21E-06,  avg # of iterations =  2.0

     total cpu time spent up to now is       46.7 secs

     total energy              =     -95.10532865 Ry
     Harris-Foulkes estimate   =     -95.10533000 Ry
     estimated scf accuracy    <       0.00000680 Ry

     iteration #  4     ecut=    40.00 Ry     beta=0.70
     Davidson diagonalization with overlap
     ethr =  7.56E-08,  avg # of iterations =  1.0

     total cpu time spent up to now is       48.0 secs

     total energy              =     -95.10532924 Ry
     Harris-Foulkes estimate   =     -95.10532920 Ry
     estimated scf accuracy    <          8.9E-09 Ry

     iteration #  5     ecut=    40.00 Ry     beta=0.70
     Davidson diagonalization with overlap
     ethr =  9.85E-11,  avg # of iterations =  3.0

     total cpu time spent up to now is       49.8 secs

     total energy              =     -95.10532927 Ry
     Harris-Foulkes estimate   =     -95.10532927 Ry
     estimated scf accuracy    <          1.3E-09 Ry

     iteration #  6     ecut=    40.00 Ry     beta=0.70
     Davidson diagonalization with overlap
     ethr =  1.48E-11,  avg # of iterations =  1.6

     total cpu time spent up to now is       51.2 secs

     End of self-consistent calculation

     Number of k-points >= 100: set verbosity='high' to print the bands.

     the Fermi energy is     2.1971 ev

!    total energy              =     -95.10532927 Ry
     Harris-Foulkes estimate   =     -95.10532927 Ry
     estimated scf accuracy    <          9.3E-11 Ry

     The total energy is the sum of the following terms:

     one-electron contribution =     -85.20570525 Ry
     hartree contribution      =      43.19156069 Ry
     xc contribution           =     -14.28616930 Ry
     ewald contribution        =     -38.80491634 Ry
     smearing contrib. (-TS)   =      -0.00009908 Ry

     convergence has been achieved in   6 iterations

     Forces acting on atoms (cartesian axes, Ry/au):

     atom    1 type  1   force =     0.00000000    0.00000000    0.00000000

     Total force =     0.000000     Total SCF correction =     0.000000


     Computing stress (Cartesian axis) and pressure

          total   stress  (Ry/bohr**3)                   (kbar)     P=    9.72
   0.00006609  -0.00000000   0.00000000          9.72     -0.00      0.00
  -0.00000000   0.00006609   0.00000000         -0.00      9.72      0.00
  -0.00000000   0.00000000   0.00006609         -0.00      0.00      9.72


     Writing output data file na.bcc.save

     init_run     :      1.62s CPU      1.68s WALL (       2 calls)
     electrons    :     43.67s CPU     45.94s WALL (       4 calls)
     update_pot   :      0.40s CPU      0.40s WALL (       2 calls)
     forces       :      0.49s CPU      0.50s WALL (       4 calls)
     stress       :      2.40s CPU      2.41s WALL (       4 calls)

     Called by init_run:
     wfcinit      :      0.97s CPU      1.02s WALL (       2 calls)
     potinit      :      0.10s CPU      0.10s WALL (       2 calls)

     Called by electrons:
     c_bands      :     35.60s CPU     37.51s WALL (      29 calls)
     sum_band     :      7.41s CPU      7.75s WALL (      29 calls)
     v_of_rho     :      0.34s CPU      0.35s WALL (      30 calls)
     newd         :      0.37s CPU      0.38s WALL (      30 calls)
     mix_rho      :      0.02s CPU      0.02s WALL (      29 calls)

     Called by c_bands:
     init_us_2    :      1.77s CPU      1.74s WALL (   17000 calls)
     cegterg      :     33.97s CPU     35.86s WALL (    7250 calls)

     Called by sum_band:
     sum_band:bec :      0.02s CPU      0.02s WALL (    7250 calls)
     addusdens    :      0.46s CPU      0.47s WALL (      29 calls)

     Called by *egterg:
     h_psi        :     28.88s CPU     30.53s WALL (   23778 calls)
     s_psi        :      0.41s CPU      0.32s WALL (   23778 calls)
     g_psi        :      0.21s CPU      0.18s WALL (   16028 calls)
     cdiaghg      :      3.08s CPU      3.19s WALL (   22028 calls)

     Called by h_psi:
     h_psi:pot    :     28.80s CPU     30.40s WALL (   23778 calls)
     h_psi:calbec :      0.68s CPU      0.53s WALL (   23778 calls)
     vloc_psi     :     27.88s CPU     29.47s WALL (   23778 calls)
     add_vuspsi   :      0.21s CPU      0.35s WALL (   23778 calls)

     General routines
     calbec       :      0.96s CPU      0.84s WALL (   36028 calls)
     fft          :      0.17s CPU      0.18s WALL (     510 calls)
     ffts         :      0.01s CPU      0.01s WALL (      59 calls)
     fftw         :     31.33s CPU     31.45s WALL (  394484 calls)
     interpolate  :      0.03s CPU      0.03s WALL (      59 calls)
     davcio       :      0.00s CPU      0.01s WALL (     500 calls)

     Parallel routines
     fft_scatter  :      4.76s CPU      5.81s WALL (  395053 calls)

     PWSCF        :    49.60s CPU        52.00s WALL


   This run was terminated on:  17:37: 0  20Dec2017            

=------------------------------------------------------------------------------=
   JOB DONE.
=------------------------------------------------------------------------------=
