
     Program PWSCF v.6.1 (svn rev. 13369) starts on 20Dec2017 at 17:38:11 

     This program is part of the open-source Quantum ESPRESSO suite
     for quantum simulation of materials; please cite
         "P. Giannozzi et al., J. Phys.:Condens. Matter 21 395502 (2009);
          URL http://www.quantum-espresso.org", 
     in publications or presentations arising from this work. More details at
     http://www.quantum-espresso.org/quote

     Parallel version (MPI), running on     4 processors
     R & G space division:  proc/nbgrp/npool/nimage =       4
     Waiting for input...
     Reading input from standard input

     Current dimensions of program PWSCF are:
     Max number of different atomic species (ntypx) = 10
     Max number of k-points (npk) =  40000
     Max angular momentum in pseudopotentials (lmaxx) =  3

     Subspace diagonalization in iterative solution of the eigenvalue problem:
     a serial algorithm will be used


     Parallelization info
     --------------------
     sticks:   dense  smooth     PW     G-vecs:    dense   smooth      PW
     Min         229     116     37                 4446     1584     289
     Max         231     117     38                 4448     1585     290
     Sum         921     467    151                17789     6339    1157



     bravais-lattice index     =            3
     lattice parameter (alat)  =       7.1485  a.u.
     unit-cell volume          =     182.6509 (a.u.)^3
     number of atoms/cell      =            1
     number of atomic types    =            1
     number of electrons       =         9.00
     number of Kohn-Sham states=            9
     kinetic-energy cutoff     =      40.0000  Ry
     charge density cutoff     =     320.0000  Ry
     convergence threshold     =      1.0E-08
     mixing beta               =       0.7000
     number of iterations used =            8  plain     mixing
     Exchange-correlation      = SLA  PW   PBE  PBE ( 1  4  3  4 0 0)
     nstep                     =           50


     celldm(1)=   7.148538  celldm(2)=   0.000000  celldm(3)=   0.000000
     celldm(4)=   0.000000  celldm(5)=   0.000000  celldm(6)=   0.000000

     crystal axes: (cart. coord. in units of alat)
               a(1) = (   0.500000   0.500000   0.500000 )  
               a(2) = (  -0.500000   0.500000   0.500000 )  
               a(3) = (  -0.500000  -0.500000   0.500000 )  

     reciprocal axes: (cart. coord. in units 2 pi/alat)
               b(1) = (  1.000000  0.000000  1.000000 )  
               b(2) = ( -1.000000  1.000000  0.000000 )  
               b(3) = (  0.000000 -1.000000  1.000000 )  


     PseudoPot. # 1 for Na read from file:
     /home/s1333534/quantum_espresso/qe-6.1/pseudo/Na_pbe_v1.uspp.F.UPF
     MD5 check sum: 76a99c7e9422403d3e93cbc85ab7bccb
     Pseudo is Ultrasoft, Zval =  9.0
     Generated by new atomic code, or converted to UPF format
     Using radial grid of  819 points,  5 beta functions with: 
                l(1) =   0
                l(2) =   0
                l(3) =   1
                l(4) =   1
                l(5) =   2
     Q(r) pseudized with  8 coefficients,  rinner =    1.250   1.250   1.250
                                                       1.250   1.250

     atomic species   valence    mass     pseudopotential
        Na             9.00    22.99000     Na( 1.00)

     48 Sym. Ops., with inversion, found



   Cartesian axes

     site n.     atom                  positions (alat units)
         1           Na  tau(   1) = (   0.0000000   0.0000000   0.0000000  )

     number of k points=   250  Marzari-Vanderbilt smearing, width (Ry)=  0.0200

     Number of k-points >= 100: set verbosity='high' to print them.

     Dense  grid:    17789 G-vectors     FFT dimensions: (  36,  36,  36)

     Smooth grid:     6339 G-vectors     FFT dimensions: (  25,  25,  25)

     Estimated max dynamical RAM per process >       9.58MB

     Estimated total allocated dynamical RAM >      38.31MB

     Initial potential from superposition of free atoms

     starting charge    8.99371, renormalised to    9.00000
     Starting wfc are    5 randomized atomic wfcs +    4 random wfc

     total cpu time spent up to now is        0.7 secs

     per-process dynamical memory:    15.8 Mb

     Self-consistent Calculation

     iteration #  1     ecut=    40.00 Ry     beta=0.70
     Davidson diagonalization with overlap
     ethr =  1.00E-02,  avg # of iterations =  5.7

     Threshold (ethr) on eigenvalues was too large:
     Diagonalizing with lowered threshold

     Davidson diagonalization with overlap
     ethr =  1.29E-05,  avg # of iterations =  3.5

     total cpu time spent up to now is        3.7 secs

     total energy              =     -95.09868887 Ry
     Harris-Foulkes estimate   =     -95.09908284 Ry
     estimated scf accuracy    <       0.00115769 Ry

     iteration #  2     ecut=    40.00 Ry     beta=0.70
     Davidson diagonalization with overlap
     ethr =  1.29E-05,  avg # of iterations =  2.0

     total cpu time spent up to now is        4.7 secs

     total energy              =     -95.09883944 Ry
     Harris-Foulkes estimate   =     -95.09887265 Ry
     estimated scf accuracy    <       0.00013112 Ry

     iteration #  3     ecut=    40.00 Ry     beta=0.70
     Davidson diagonalization with overlap
     ethr =  1.46E-06,  avg # of iterations =  2.2

     total cpu time spent up to now is        5.7 secs

     total energy              =     -95.09885485 Ry
     Harris-Foulkes estimate   =     -95.09885603 Ry
     estimated scf accuracy    <       0.00000783 Ry

     iteration #  4     ecut=    40.00 Ry     beta=0.70
     Davidson diagonalization with overlap
     ethr =  8.70E-08,  avg # of iterations =  1.0

     total cpu time spent up to now is        6.6 secs

     total energy              =     -95.09885554 Ry
     Harris-Foulkes estimate   =     -95.09885548 Ry
     estimated scf accuracy    <       0.00000001 Ry

     iteration #  5     ecut=    40.00 Ry     beta=0.70
     Davidson diagonalization with overlap
     ethr =  1.15E-10,  avg # of iterations =  3.0

     total cpu time spent up to now is        7.8 secs

     End of self-consistent calculation

     Number of k-points >= 100: set verbosity='high' to print the bands.

     the Fermi energy is     3.1637 ev

!    total energy              =     -95.09885557 Ry
     Harris-Foulkes estimate   =     -95.09885557 Ry
     estimated scf accuracy    <          1.4E-09 Ry

     The total energy is the sum of the following terms:

     one-electron contribution =     -80.96791171 Ry
     hartree contribution      =      41.41854412 Ry
     xc contribution           =     -14.31327376 Ry
     ewald contribution        =     -41.23610935 Ry
     smearing contrib. (-TS)   =      -0.00010487 Ry

     convergence has been achieved in   5 iterations

     Forces acting on atoms (cartesian axes, Ry/au):

     atom    1 type  1   force =     0.00000000    0.00000000    0.00000000

     Total force =     0.000000     Total SCF correction =     0.000000


     Computing stress (Cartesian axis) and pressure

          total   stress  (Ry/bohr**3)                   (kbar)     P=   39.54
   0.00026878  -0.00000000   0.00000000         39.54     -0.00      0.00
  -0.00000000   0.00026878  -0.00000000         -0.00     39.54     -0.00
   0.00000000  -0.00000000   0.00026878          0.00     -0.00     39.54


     BFGS Geometry Optimization

     bfgs converged in   1 scf cycles and   0 bfgs steps
     (criteria: energy <  1.0E-04 Ry, force <  1.0E-03Ry/Bohr, cell <  5.0E-01kbar)

     End of BFGS Geometry Optimization

     Final enthalpy =     -95.0491901478 Ry
Begin final coordinates
     new unit-cell volume =    182.65088 a.u.^3 (    27.06607 Ang^3 )
     density =      1.41047 g/cm^3

CELL_PARAMETERS (alat=  7.14853836)
   0.500000000   0.500000000   0.500000000
  -0.500000000   0.500000000   0.500000000
  -0.500000000  -0.500000000   0.500000000

ATOMIC_POSITIONS (crystal)
Na       0.000000000   0.000000000   0.000000000
End final coordinates



     A final scf calculation at the relaxed structure.
     The G-vectors are recalculated for the final unit cell
     Results may differ from those at the preceding step.

     Parallelization info
     --------------------
     sticks:   dense  smooth     PW     G-vecs:    dense   smooth      PW
     Min         229     116     37                 4446     1584     289
     Max         231     117     38                 4448     1585     290
     Sum         921     467    151                17789     6339    1157



     bravais-lattice index     =            3
     lattice parameter (alat)  =       7.1485  a.u.
     unit-cell volume          =     182.6509 (a.u.)^3
     number of atoms/cell      =            1
     number of atomic types    =            1
     number of electrons       =         9.00
     number of Kohn-Sham states=            9
     kinetic-energy cutoff     =      40.0000  Ry
     charge density cutoff     =     320.0000  Ry
     convergence threshold     =      1.0E-08
     mixing beta               =       0.7000
     number of iterations used =            8  plain     mixing
     Exchange-correlation      = SLA  PW   PBE  PBE ( 1  4  3  4 0 0)

     celldm(1)=   7.148538  celldm(2)=   0.000000  celldm(3)=   0.000000
     celldm(4)=   0.000000  celldm(5)=   0.000000  celldm(6)=   0.000000

     crystal axes: (cart. coord. in units of alat)
               a(1) = (   0.500000   0.500000   0.500000 )  
               a(2) = (  -0.500000   0.500000   0.500000 )  
               a(3) = (  -0.500000  -0.500000   0.500000 )  

     reciprocal axes: (cart. coord. in units 2 pi/alat)
               b(1) = (  1.000000  0.000000  1.000000 )  
               b(2) = ( -1.000000  1.000000  0.000000 )  
               b(3) = (  0.000000 -1.000000  1.000000 )  


     PseudoPot. # 1 for Na read from file:
     /home/s1333534/quantum_espresso/qe-6.1/pseudo/Na_pbe_v1.uspp.F.UPF
     MD5 check sum: 76a99c7e9422403d3e93cbc85ab7bccb
     Pseudo is Ultrasoft, Zval =  9.0
     Generated by new atomic code, or converted to UPF format
     Using radial grid of  819 points,  5 beta functions with: 
                l(1) =   0
                l(2) =   0
                l(3) =   1
                l(4) =   1
                l(5) =   2
     Q(r) pseudized with  8 coefficients,  rinner =    1.250   1.250   1.250
                                                       1.250   1.250

     atomic species   valence    mass     pseudopotential
        Na             9.00    22.99000     Na( 1.00)

     48 Sym. Ops., with inversion, found



   Cartesian axes

     site n.     atom                  positions (alat units)
         1           Na  tau(   1) = (   0.0000000   0.0000000   0.0000000  )

     number of k points=   250  Marzari-Vanderbilt smearing, width (Ry)=  0.0200

     Number of k-points >= 100: set verbosity='high' to print them.

     Dense  grid:    17789 G-vectors     FFT dimensions: (  36,  36,  36)

     Smooth grid:     6339 G-vectors     FFT dimensions: (  25,  25,  25)

     Estimated max dynamical RAM per process >       9.58MB

     Estimated total allocated dynamical RAM >      38.31MB

     Initial potential from superposition of free atoms

     starting charge    8.99371, renormalised to    9.00000
     Starting wfc are    5 randomized atomic wfcs +    4 random wfc

     Writing output data file na.bcc.save

     total cpu time spent up to now is        9.3 secs

     per-process dynamical memory:    21.0 Mb

     Self-consistent Calculation

     iteration #  1     ecut=    40.00 Ry     beta=0.70
     Davidson diagonalization with overlap
     c_bands:  1 eigenvalues not converged
     ethr =  1.00E-06,  avg # of iterations = 11.1

     total cpu time spent up to now is       12.3 secs

     total energy              =     -95.09868395 Ry
     Harris-Foulkes estimate   =     -95.09908314 Ry
     estimated scf accuracy    <       0.00116281 Ry

     iteration #  2     ecut=    40.00 Ry     beta=0.70
     Davidson diagonalization with overlap
     ethr =  1.29E-05,  avg # of iterations =  2.0

     total cpu time spent up to now is       13.3 secs

     total energy              =     -95.09883933 Ry
     Harris-Foulkes estimate   =     -95.09887460 Ry
     estimated scf accuracy    <       0.00013482 Ry

     iteration #  3     ecut=    40.00 Ry     beta=0.70
     Davidson diagonalization with overlap
     ethr =  1.50E-06,  avg # of iterations =  2.0

     total cpu time spent up to now is       14.3 secs

     total energy              =     -95.09885484 Ry
     Harris-Foulkes estimate   =     -95.09885614 Ry
     estimated scf accuracy    <       0.00000816 Ry

     iteration #  4     ecut=    40.00 Ry     beta=0.70
     Davidson diagonalization with overlap
     ethr =  9.07E-08,  avg # of iterations =  1.0

     total cpu time spent up to now is       15.2 secs

     total energy              =     -95.09885554 Ry
     Harris-Foulkes estimate   =     -95.09885549 Ry
     estimated scf accuracy    <       0.00000001 Ry

     iteration #  5     ecut=    40.00 Ry     beta=0.70
     Davidson diagonalization with overlap
     ethr =  1.14E-10,  avg # of iterations =  3.0

     total cpu time spent up to now is       16.4 secs

     End of self-consistent calculation

     Number of k-points >= 100: set verbosity='high' to print the bands.

     the Fermi energy is     3.1637 ev

!    total energy              =     -95.09885557 Ry
     Harris-Foulkes estimate   =     -95.09885557 Ry
     estimated scf accuracy    <          1.0E-09 Ry

     The total energy is the sum of the following terms:

     one-electron contribution =     -80.96794316 Ry
     hartree contribution      =      41.41858292 Ry
     xc contribution           =     -14.31328111 Ry
     ewald contribution        =     -41.23610935 Ry
     smearing contrib. (-TS)   =      -0.00010487 Ry

     convergence has been achieved in   5 iterations

     Forces acting on atoms (cartesian axes, Ry/au):

     atom    1 type  1   force =     0.00000000    0.00000000    0.00000000

     Total force =     0.000000     Total SCF correction =     0.000000


     Computing stress (Cartesian axis) and pressure

          total   stress  (Ry/bohr**3)                   (kbar)     P=   39.61
   0.00026924   0.00000000  -0.00000000         39.61      0.00     -0.00
   0.00000000   0.00026924   0.00000000          0.00     39.61      0.00
  -0.00000000   0.00000000   0.00026924         -0.00      0.00     39.61


     Writing output data file na.bcc.save

     init_run     :      1.23s CPU      1.28s WALL (       2 calls)
     electrons    :     13.27s CPU     14.17s WALL (       2 calls)
     forces       :      0.18s CPU      0.18s WALL (       2 calls)
     stress       :      0.97s CPU      0.97s WALL (       2 calls)

     Called by init_run:
     wfcinit      :      0.63s CPU      0.68s WALL (       2 calls)
     potinit      :      0.08s CPU      0.08s WALL (       2 calls)

     Called by electrons:
     c_bands      :     11.22s CPU     11.97s WALL (      11 calls)
     sum_band     :      1.84s CPU      1.98s WALL (      11 calls)
     v_of_rho     :      0.10s CPU      0.10s WALL (      12 calls)
     newd         :      0.13s CPU      0.14s WALL (      12 calls)
     mix_rho      :      0.01s CPU      0.01s WALL (      11 calls)

     Called by c_bands:
     init_us_2    :      0.66s CPU      0.61s WALL (    7000 calls)
     cegterg      :     10.67s CPU     11.44s WALL (    2750 calls)

     Called by sum_band:
     sum_band:bec :      0.01s CPU      0.01s WALL (    2750 calls)
     addusdens    :      0.14s CPU      0.15s WALL (      11 calls)

     Called by *egterg:
     h_psi        :      8.26s CPU      8.85s WALL (   12357 calls)
     s_psi        :      0.15s CPU      0.13s WALL (   12357 calls)
     g_psi        :      0.06s CPU      0.08s WALL (    9107 calls)
     cdiaghg      :      1.81s CPU      1.87s WALL (   11607 calls)

     Called by h_psi:
     h_psi:pot    :      8.22s CPU      8.80s WALL (   12357 calls)
     h_psi:calbec :      0.19s CPU      0.21s WALL (   12357 calls)
     vloc_psi     :      7.89s CPU      8.41s WALL (   12357 calls)
     add_vuspsi   :      0.11s CPU      0.15s WALL (   12357 calls)

     General routines
     calbec       :      0.29s CPU      0.33s WALL (   17607 calls)
     fft          :      0.05s CPU      0.05s WALL (     204 calls)
     ffts         :      0.00s CPU      0.00s WALL (      23 calls)
     fftw         :      8.19s CPU      8.49s WALL (  176196 calls)
     interpolate  :      0.01s CPU      0.01s WALL (      23 calls)
     davcio       :      0.00s CPU      0.00s WALL (     500 calls)

     Parallel routines
     fft_scatter  :      2.00s CPU      2.34s WALL (  176423 calls)

     PWSCF        :    16.15s CPU        17.15s WALL


   This run was terminated on:  17:38:28  20Dec2017            

=------------------------------------------------------------------------------=
   JOB DONE.
=------------------------------------------------------------------------------=
