
     Program PWSCF v.6.1 (svn rev. 13369) starts on 20Dec2017 at 17:34:35 

     This program is part of the open-source Quantum ESPRESSO suite
     for quantum simulation of materials; please cite
         "P. Giannozzi et al., J. Phys.:Condens. Matter 21 395502 (2009);
          URL http://www.quantum-espresso.org", 
     in publications or presentations arising from this work. More details at
     http://www.quantum-espresso.org/quote

     Parallel version (MPI), running on     4 processors
     R & G space division:  proc/nbgrp/npool/nimage =       4
     Waiting for input...
     Reading input from standard input

     Current dimensions of program PWSCF are:
     Max number of different atomic species (ntypx) = 10
     Max number of k-points (npk) =  40000
     Max angular momentum in pseudopotentials (lmaxx) =  3

     Subspace diagonalization in iterative solution of the eigenvalue problem:
     a serial algorithm will be used


     Parallelization info
     --------------------
     sticks:   dense  smooth     PW     G-vecs:    dense   smooth      PW
     Min         305     154     45                 6736     2399     400
     Max         306     155     46                 6737     2400     401
     Sum        1223     619    181                26947     9597    1601



     bravais-lattice index     =            3
     lattice parameter (alat)  =       8.2338  a.u.
     unit-cell volume          =     279.1083 (a.u.)^3
     number of atoms/cell      =            1
     number of atomic types    =            1
     number of electrons       =         9.00
     number of Kohn-Sham states=            9
     kinetic-energy cutoff     =      40.0000  Ry
     charge density cutoff     =     320.0000  Ry
     convergence threshold     =      1.0E-08
     mixing beta               =       0.7000
     number of iterations used =            8  plain     mixing
     Exchange-correlation      = SLA  PW   PBE  PBE ( 1  4  3  4 0 0)
     nstep                     =           50


     celldm(1)=   8.233811  celldm(2)=   0.000000  celldm(3)=   0.000000
     celldm(4)=   0.000000  celldm(5)=   0.000000  celldm(6)=   0.000000

     crystal axes: (cart. coord. in units of alat)
               a(1) = (   0.500000   0.500000   0.500000 )  
               a(2) = (  -0.500000   0.500000   0.500000 )  
               a(3) = (  -0.500000  -0.500000   0.500000 )  

     reciprocal axes: (cart. coord. in units 2 pi/alat)
               b(1) = (  1.000000  0.000000  1.000000 )  
               b(2) = ( -1.000000  1.000000  0.000000 )  
               b(3) = (  0.000000 -1.000000  1.000000 )  


     PseudoPot. # 1 for Na read from file:
     /home/s1333534/quantum_espresso/qe-6.1/pseudo/Na_pbe_v1.uspp.F.UPF
     MD5 check sum: 76a99c7e9422403d3e93cbc85ab7bccb
     Pseudo is Ultrasoft, Zval =  9.0
     Generated by new atomic code, or converted to UPF format
     Using radial grid of  819 points,  5 beta functions with: 
                l(1) =   0
                l(2) =   0
                l(3) =   1
                l(4) =   1
                l(5) =   2
     Q(r) pseudized with  8 coefficients,  rinner =    1.250   1.250   1.250
                                                       1.250   1.250

     atomic species   valence    mass     pseudopotential
        Na             9.00    22.99000     Na( 1.00)

     48 Sym. Ops., with inversion, found



   Cartesian axes

     site n.     atom                  positions (alat units)
         1           Na  tau(   1) = (   0.0000000   0.0000000   0.0000000  )

     number of k points=   250  Marzari-Vanderbilt smearing, width (Ry)=  0.0200

     Number of k-points >= 100: set verbosity='high' to print them.

     Dense  grid:    26947 G-vectors     FFT dimensions: (  45,  45,  45)

     Smooth grid:     9597 G-vectors     FFT dimensions: (  30,  30,  30)

     Estimated max dynamical RAM per process >      15.03MB

     Estimated total allocated dynamical RAM >      60.13MB

     Initial potential from superposition of free atoms

     starting charge    8.99371, renormalised to    9.00000
     Starting wfc are    5 randomized atomic wfcs +    4 random wfc

     total cpu time spent up to now is        1.2 secs

     per-process dynamical memory:    20.9 Mb

     Self-consistent Calculation

     iteration #  1     ecut=    40.00 Ry     beta=0.70
     Davidson diagonalization with overlap
     ethr =  1.00E-02,  avg # of iterations =  5.9

     Threshold (ethr) on eigenvalues was too large:
     Diagonalizing with lowered threshold

     Davidson diagonalization with overlap
     ethr =  9.83E-06,  avg # of iterations =  5.1

     total cpu time spent up to now is        6.9 secs

     total energy              =     -95.10565562 Ry
     Harris-Foulkes estimate   =     -95.10580426 Ry
     estimated scf accuracy    <       0.00088453 Ry

     iteration #  2     ecut=    40.00 Ry     beta=0.70
     Davidson diagonalization with overlap
     ethr =  9.83E-06,  avg # of iterations =  1.9

     total cpu time spent up to now is        8.7 secs

     total energy              =     -95.10574805 Ry
     Harris-Foulkes estimate   =     -95.10576587 Ry
     estimated scf accuracy    <       0.00009636 Ry

     iteration #  3     ecut=    40.00 Ry     beta=0.70
     Davidson diagonalization with overlap
     ethr =  1.07E-06,  avg # of iterations =  2.1

     total cpu time spent up to now is       10.7 secs

     total energy              =     -95.10576049 Ry
     Harris-Foulkes estimate   =     -95.10576123 Ry
     estimated scf accuracy    <       0.00000578 Ry

     iteration #  4     ecut=    40.00 Ry     beta=0.70
     Davidson diagonalization with overlap
     ethr =  6.42E-08,  avg # of iterations =  1.0

     total cpu time spent up to now is       12.4 secs

     total energy              =     -95.10576106 Ry
     Harris-Foulkes estimate   =     -95.10576101 Ry
     estimated scf accuracy    <       0.00000002 Ry

     iteration #  5     ecut=    40.00 Ry     beta=0.70
     Davidson diagonalization with overlap
     ethr =  2.14E-10,  avg # of iterations =  3.0

     total cpu time spent up to now is       14.7 secs

     End of self-consistent calculation

     Number of k-points >= 100: set verbosity='high' to print the bands.

     the Fermi energy is     1.1773 ev

!    total energy              =     -95.10576109 Ry
     Harris-Foulkes estimate   =     -95.10576108 Ry
     estimated scf accuracy    <          1.6E-09 Ry

     The total energy is the sum of the following terms:

     one-electron contribution =     -90.47924170 Ry
     hartree contribution      =      45.42936028 Ry
     xc contribution           =     -14.25488523 Ry
     ewald contribution        =     -35.80090722 Ry
     smearing contrib. (-TS)   =      -0.00008721 Ry

     convergence has been achieved in   5 iterations

     Forces acting on atoms (cartesian axes, Ry/au):

     atom    1 type  1   force =     0.00000000    0.00000000    0.00000000

     Total force =     0.000000     Total SCF correction =     0.000000


     Computing stress (Cartesian axis) and pressure

          total   stress  (Ry/bohr**3)                   (kbar)     P=   -9.38
  -0.00006376  -0.00000000   0.00000000         -9.38     -0.00      0.00
  -0.00000000  -0.00006376  -0.00000000         -0.00     -9.38     -0.00
   0.00000000  -0.00000000  -0.00006376          0.00     -0.00     -9.38


     BFGS Geometry Optimization

     number of scf cycles    =   1
     number of bfgs steps    =   0

     enthalpy new            =     -95.1247344854 Ry

     new trust radius        =       0.0003520064 bohr
     new conv_thr            =       0.0000000100 Ry

     new unit-cell volume =    279.19650 a.u.^3 (    41.37265 Ang^3 )
     density =      0.92273 g/cm^3

CELL_PARAMETERS (alat=  8.23381116)
   0.500052675   0.500052675   0.500052675
  -0.500052675   0.500052675   0.500052675
  -0.500052675  -0.500052675   0.500052675

ATOMIC_POSITIONS (crystal)
Na       0.000000000   0.000000000   0.000000000



     Writing output data file na.bcc.save
     NEW-OLD atomic charge density approx. for the potential
     extrapolated charge    9.00284, renormalised to    9.00000

     total cpu time spent up to now is       16.2 secs

     per-process dynamical memory:    33.5 Mb

     Self-consistent Calculation

     iteration #  1     ecut=    40.00 Ry     beta=0.70
     Davidson diagonalization with overlap
     ethr =  1.00E-06,  avg # of iterations =  2.0

     Threshold (ethr) on eigenvalues was too large:
     Diagonalizing with lowered threshold

     Davidson diagonalization with overlap
     ethr =  3.40E-08,  avg # of iterations =  1.0

     total cpu time spent up to now is       19.8 secs

     total energy              =     -95.10574991 Ry
     Harris-Foulkes estimate   =     -95.08291014 Ry
     estimated scf accuracy    <       0.00000306 Ry

     iteration #  2     ecut=    40.00 Ry     beta=0.70
     Davidson diagonalization with overlap
     ethr =  3.40E-08,  avg # of iterations =  3.0

     total cpu time spent up to now is       22.1 secs

     total energy              =     -95.10575544 Ry
     Harris-Foulkes estimate   =     -95.10575767 Ry
     estimated scf accuracy    <       0.00000506 Ry

     iteration #  3     ecut=    40.00 Ry     beta=0.70
     Davidson diagonalization with overlap
     ethr =  3.40E-08,  avg # of iterations =  1.8

     total cpu time spent up to now is       23.9 secs

     total energy              =     -95.10575546 Ry
     Harris-Foulkes estimate   =     -95.10575578 Ry
     estimated scf accuracy    <       0.00000098 Ry

     iteration #  4     ecut=    40.00 Ry     beta=0.70
     Davidson diagonalization with overlap
     ethr =  1.09E-08,  avg # of iterations =  1.0

     total cpu time spent up to now is       25.6 secs

     total energy              =     -95.10575538 Ry
     Harris-Foulkes estimate   =     -95.10575550 Ry
     estimated scf accuracy    <       0.00000034 Ry

     iteration #  5     ecut=    40.00 Ry     beta=0.70
     Davidson diagonalization with overlap
     ethr =  3.75E-09,  avg # of iterations =  1.0

     total cpu time spent up to now is       27.2 secs

     total energy              =     -95.10575536 Ry
     Harris-Foulkes estimate   =     -95.10575540 Ry
     estimated scf accuracy    <       0.00000010 Ry

     iteration #  6     ecut=    40.00 Ry     beta=0.70
     Davidson diagonalization with overlap
     ethr =  1.15E-09,  avg # of iterations =  1.0

     total cpu time spent up to now is       28.9 secs

     total energy              =     -95.10575535 Ry
     Harris-Foulkes estimate   =     -95.10575536 Ry
     estimated scf accuracy    <       0.00000004 Ry

     iteration #  7     ecut=    40.00 Ry     beta=0.70
     Davidson diagonalization with overlap
     ethr =  3.99E-10,  avg # of iterations =  1.3

     total cpu time spent up to now is       30.7 secs

     End of self-consistent calculation

     Number of k-points >= 100: set verbosity='high' to print the bands.

     the Fermi energy is     1.1761 ev

!    total energy              =     -95.10575535 Ry
     Harris-Foulkes estimate   =     -95.10575535 Ry
     estimated scf accuracy    <          3.0E-09 Ry

     The total energy is the sum of the following terms:

     one-electron contribution =     -90.48605151 Ry
     hartree contribution      =      45.43240413 Ry
     xc contribution           =     -14.25488477 Ry
     ewald contribution        =     -35.79713600 Ry
     smearing contrib. (-TS)   =      -0.00008720 Ry

     convergence has been achieved in   7 iterations

     Forces acting on atoms (cartesian axes, Ry/au):

     atom    1 type  1   force =     0.00000000    0.00000000    0.00000000

     Total force =     0.000000     Total SCF correction =     0.000000


     Computing stress (Cartesian axis) and pressure

          total   stress  (Ry/bohr**3)                   (kbar)     P=   -9.19
  -0.00006248  -0.00000000   0.00000000         -9.19     -0.00      0.00
  -0.00000000  -0.00006248  -0.00000000         -0.00     -9.19     -0.00
   0.00000000  -0.00000000  -0.00006248          0.00     -0.00     -9.19


     number of scf cycles    =   2
     number of bfgs steps    =   1

     enthalpy old            =     -95.1247344854 Ry
     enthalpy new            =     -95.1247347417 Ry

     CASE: enthalpy_new < enthalpy_old


     WARNING: bfgs curvature condition failed, Theta= 0.613
     uphill step: resetting bfgs history

     new trust radius        =       0.0003872274 bohr
     new conv_thr            =            1.0E-10 Ry

     new unit-cell volume =    279.29356 a.u.^3 (    41.38704 Ang^3 )
     density =      0.92241 g/cm^3

CELL_PARAMETERS (alat=  8.23381116)
   0.500110617   0.500110617   0.500110617
  -0.500110617   0.500110617   0.500110617
  -0.500110617  -0.500110617   0.500110617

ATOMIC_POSITIONS (crystal)
Na       0.000000000   0.000000000   0.000000000



     Writing output data file na.bcc.save
     NEW-OLD atomic charge density approx. for the potential
     extrapolated charge    9.00313, renormalised to    9.00000

     total cpu time spent up to now is       32.2 secs

     per-process dynamical memory:    33.5 Mb

     Self-consistent Calculation

     iteration #  1     ecut=    40.00 Ry     beta=0.70
     Davidson diagonalization with overlap
     ethr =  1.00E-06,  avg # of iterations =  2.0

     Threshold (ethr) on eigenvalues was too large:
     Diagonalizing with lowered threshold

     Davidson diagonalization with overlap
     ethr =  4.25E-08,  avg # of iterations =  1.0

     total cpu time spent up to now is       35.8 secs

     total energy              =     -95.10574235 Ry
     Harris-Foulkes estimate   =     -95.08062014 Ry
     estimated scf accuracy    <       0.00000383 Ry

     iteration #  2     ecut=    40.00 Ry     beta=0.70
     Davidson diagonalization with overlap
     ethr =  4.25E-08,  avg # of iterations =  2.9

     total cpu time spent up to now is       38.0 secs

     total energy              =     -95.10574912 Ry
     Harris-Foulkes estimate   =     -95.10575185 Ry
     estimated scf accuracy    <       0.00000617 Ry

     iteration #  3     ecut=    40.00 Ry     beta=0.70
     Davidson diagonalization with overlap
     ethr =  4.25E-08,  avg # of iterations =  1.7

     total cpu time spent up to now is       39.8 secs

     total energy              =     -95.10574917 Ry
     Harris-Foulkes estimate   =     -95.10574953 Ry
     estimated scf accuracy    <       0.00000118 Ry

     iteration #  4     ecut=    40.00 Ry     beta=0.70
     Davidson diagonalization with overlap
     ethr =  1.31E-08,  avg # of iterations =  1.0

     total cpu time spent up to now is       41.5 secs

     total energy              =     -95.10574907 Ry
     Harris-Foulkes estimate   =     -95.10574922 Ry
     estimated scf accuracy    <       0.00000043 Ry

     iteration #  5     ecut=    40.00 Ry     beta=0.70
     Davidson diagonalization with overlap
     ethr =  4.78E-09,  avg # of iterations =  1.0

     total cpu time spent up to now is       43.2 secs

     total energy              =     -95.10574904 Ry
     Harris-Foulkes estimate   =     -95.10574909 Ry
     estimated scf accuracy    <       0.00000015 Ry

     iteration #  6     ecut=    40.00 Ry     beta=0.70
     Davidson diagonalization with overlap
     ethr =  1.68E-09,  avg # of iterations =  1.0

     total cpu time spent up to now is       44.9 secs

     total energy              =     -95.10574902 Ry
     Harris-Foulkes estimate   =     -95.10574904 Ry
     estimated scf accuracy    <       0.00000005 Ry

     iteration #  7     ecut=    40.00 Ry     beta=0.70
     Davidson diagonalization with overlap
     ethr =  5.78E-10,  avg # of iterations =  1.6

     total cpu time spent up to now is       46.7 secs

     total energy              =     -95.10574902 Ry
     Harris-Foulkes estimate   =     -95.10574902 Ry
     estimated scf accuracy    <          4.3E-09 Ry

     iteration #  8     ecut=    40.00 Ry     beta=0.70
     Davidson diagonalization with overlap
     ethr =  4.82E-11,  avg # of iterations =  2.0

     total cpu time spent up to now is       48.7 secs

     End of self-consistent calculation

     Number of k-points >= 100: set verbosity='high' to print the bands.

     the Fermi energy is     1.1748 ev

!    total energy              =     -95.10574902 Ry
     Harris-Foulkes estimate   =     -95.10574902 Ry
     estimated scf accuracy    <          1.9E-11 Ry

     The total energy is the sum of the following terms:

     one-electron contribution =     -90.49309065 Ry
     hartree contribution      =      45.43520005 Ry
     xc contribution           =     -14.25478267 Ry
     ewald contribution        =     -35.79298857 Ry
     smearing contrib. (-TS)   =      -0.00008718 Ry

     convergence has been achieved in   8 iterations

     Forces acting on atoms (cartesian axes, Ry/au):

     atom    1 type  1   force =     0.00000000    0.00000000    0.00000000

     Total force =     0.000000     Total SCF correction =     0.000000


     Computing stress (Cartesian axis) and pressure

          total   stress  (Ry/bohr**3)                   (kbar)     P=   -9.63
  -0.00006549  -0.00000000   0.00000000         -9.63     -0.00      0.00
  -0.00000000  -0.00006549  -0.00000000         -0.00     -9.63     -0.00
   0.00000000  -0.00000000  -0.00006549          0.00     -0.00     -9.63


     bfgs converged in   3 scf cycles and   2 bfgs steps
     (criteria: energy <  1.0E-04 Ry, force <  1.0E-03Ry/Bohr, cell <  5.0E-01kbar)

     End of BFGS Geometry Optimization

     Final enthalpy =     -95.1247350126 Ry
Begin final coordinates
     new unit-cell volume =    279.29356 a.u.^3 (    41.38704 Ang^3 )
     density =      0.92241 g/cm^3

CELL_PARAMETERS (alat=  8.23381116)
   0.500110617   0.500110617   0.500110617
  -0.500110617   0.500110617   0.500110617
  -0.500110617  -0.500110617   0.500110617

ATOMIC_POSITIONS (crystal)
Na       0.000000000   0.000000000   0.000000000
End final coordinates



     A final scf calculation at the relaxed structure.
     The G-vectors are recalculated for the final unit cell
     Results may differ from those at the preceding step.

     Parallelization info
     --------------------
     sticks:   dense  smooth     PW     G-vecs:    dense   smooth      PW
     Min         305     154     45                 6736     2399     400
     Max         306     155     46                 6737     2400     401
     Sum        1223     619    181                26947     9597    1601



     bravais-lattice index     =            3
     lattice parameter (alat)  =       8.2338  a.u.
     unit-cell volume          =     279.2936 (a.u.)^3
     number of atoms/cell      =            1
     number of atomic types    =            1
     number of electrons       =         9.00
     number of Kohn-Sham states=            9
     kinetic-energy cutoff     =      40.0000  Ry
     charge density cutoff     =     320.0000  Ry
     convergence threshold     =      1.0E-10
     mixing beta               =       0.7000
     number of iterations used =            8  plain     mixing
     Exchange-correlation      = SLA  PW   PBE  PBE ( 1  4  3  4 0 0)

     celldm(1)=   8.233811  celldm(2)=   0.000000  celldm(3)=   0.000000
     celldm(4)=   0.000000  celldm(5)=   0.000000  celldm(6)=   0.000000

     crystal axes: (cart. coord. in units of alat)
               a(1) = (   0.500111   0.500111   0.500111 )  
               a(2) = (  -0.500111   0.500111   0.500111 )  
               a(3) = (  -0.500111  -0.500111   0.500111 )  

     reciprocal axes: (cart. coord. in units 2 pi/alat)
               b(1) = (  0.999779  0.000000  0.999779 )  
               b(2) = ( -0.999779  0.999779  0.000000 )  
               b(3) = (  0.000000 -0.999779  0.999779 )  


     PseudoPot. # 1 for Na read from file:
     /home/s1333534/quantum_espresso/qe-6.1/pseudo/Na_pbe_v1.uspp.F.UPF
     MD5 check sum: 76a99c7e9422403d3e93cbc85ab7bccb
     Pseudo is Ultrasoft, Zval =  9.0
     Generated by new atomic code, or converted to UPF format
     Using radial grid of  819 points,  5 beta functions with: 
                l(1) =   0
                l(2) =   0
                l(3) =   1
                l(4) =   1
                l(5) =   2
     Q(r) pseudized with  8 coefficients,  rinner =    1.250   1.250   1.250
                                                       1.250   1.250

     atomic species   valence    mass     pseudopotential
        Na             9.00    22.99000     Na( 1.00)

     48 Sym. Ops., with inversion, found



   Cartesian axes

     site n.     atom                  positions (alat units)
         1           Na  tau(   1) = (   0.0000000   0.0000000   0.0000000  )

     number of k points=   250  Marzari-Vanderbilt smearing, width (Ry)=  0.0200

     Number of k-points >= 100: set verbosity='high' to print them.

     Dense  grid:    26947 G-vectors     FFT dimensions: (  45,  45,  45)

     Smooth grid:     9597 G-vectors     FFT dimensions: (  30,  30,  30)

     Estimated max dynamical RAM per process >      15.03MB

     Estimated total allocated dynamical RAM >      60.13MB

     Initial potential from superposition of free atoms

     starting charge    8.99371, renormalised to    9.00000
     Starting wfc are    5 randomized atomic wfcs +    4 random wfc

     Writing output data file na.bcc.save

     total cpu time spent up to now is       50.9 secs

     per-process dynamical memory:    26.5 Mb

     Self-consistent Calculation

     iteration #  1     ecut=    40.00 Ry     beta=0.70
     Davidson diagonalization with overlap
     c_bands:  1 eigenvalues not converged
     c_bands:  1 eigenvalues not converged
     c_bands:  1 eigenvalues not converged
     c_bands:  1 eigenvalues not converged
     c_bands:  1 eigenvalues not converged
     c_bands:  1 eigenvalues not converged
     ethr =  1.00E-06,  avg # of iterations = 12.5

     total cpu time spent up to now is       56.6 secs

     total energy              =     -95.10564367 Ry
     Harris-Foulkes estimate   =     -95.10579629 Ry
     estimated scf accuracy    <       0.00088763 Ry

     iteration #  2     ecut=    40.00 Ry     beta=0.70
     Davidson diagonalization with overlap
     ethr =  9.86E-06,  avg # of iterations =  2.0

     total cpu time spent up to now is       58.4 secs

     total energy              =     -95.10573945 Ry
     Harris-Foulkes estimate   =     -95.10575851 Ry
     estimated scf accuracy    <       0.00009862 Ry

     iteration #  3     ecut=    40.00 Ry     beta=0.70
     Davidson diagonalization with overlap
     ethr =  1.10E-06,  avg # of iterations =  2.0

     total cpu time spent up to now is       60.4 secs

     total energy              =     -95.10575137 Ry
     Harris-Foulkes estimate   =     -95.10575230 Ry
     estimated scf accuracy    <       0.00000616 Ry

     iteration #  4     ecut=    40.00 Ry     beta=0.70
     Davidson diagonalization with overlap
     ethr =  6.84E-08,  avg # of iterations =  1.0

     total cpu time spent up to now is       62.1 secs

     total energy              =     -95.10575195 Ry
     Harris-Foulkes estimate   =     -95.10575191 Ry
     estimated scf accuracy    <       0.00000002 Ry

     iteration #  5     ecut=    40.00 Ry     beta=0.70
     Davidson diagonalization with overlap
     ethr =  1.78E-10,  avg # of iterations =  3.0

     total cpu time spent up to now is       64.4 secs

     total energy              =     -95.10575199 Ry
     Harris-Foulkes estimate   =     -95.10575198 Ry
     estimated scf accuracy    <          1.9E-09 Ry

     iteration #  6     ecut=    40.00 Ry     beta=0.70
     Davidson diagonalization with overlap
     ethr =  2.13E-11,  avg # of iterations =  1.1

     total cpu time spent up to now is       66.1 secs

     total energy              =     -95.10575199 Ry
     Harris-Foulkes estimate   =     -95.10575199 Ry
     estimated scf accuracy    <          1.1E-10 Ry

     iteration #  7     ecut=    40.00 Ry     beta=0.70
     Davidson diagonalization with overlap
     ethr =  1.24E-12,  avg # of iterations =  2.0

     total cpu time spent up to now is       68.1 secs

     End of self-consistent calculation

     Number of k-points >= 100: set verbosity='high' to print the bands.

     the Fermi energy is     1.1748 ev

!    total energy              =     -95.10575199 Ry
     Harris-Foulkes estimate   =     -95.10575199 Ry
     estimated scf accuracy    <          1.4E-12 Ry

     The total energy is the sum of the following terms:

     one-electron contribution =     -90.49311327 Ry
     hartree contribution      =      45.43522512 Ry
     xc contribution           =     -14.25478808 Ry
     ewald contribution        =     -35.79298857 Ry
     smearing contrib. (-TS)   =      -0.00008718 Ry

     convergence has been achieved in   7 iterations

     Forces acting on atoms (cartesian axes, Ry/au):

     atom    1 type  1   force =     0.00000000    0.00000000    0.00000000

     Total force =     0.000000     Total SCF correction =     0.000000


     Computing stress (Cartesian axis) and pressure

          total   stress  (Ry/bohr**3)                   (kbar)     P=   -9.59
  -0.00006520  -0.00000000   0.00000000         -9.59     -0.00      0.00
  -0.00000000  -0.00006520  -0.00000000         -0.00     -9.59     -0.00
   0.00000000  -0.00000000  -0.00006520          0.00     -0.00     -9.59


     Writing output data file na.bcc.save

     init_run     :      1.99s CPU      2.08s WALL (       2 calls)
     electrons    :     58.70s CPU     61.63s WALL (       4 calls)
     update_pot   :      0.52s CPU      0.52s WALL (       2 calls)
     forces       :      0.61s CPU      0.61s WALL (       4 calls)
     stress       :      3.10s CPU      3.13s WALL (       4 calls)

     Called by init_run:
     wfcinit      :      1.23s CPU      1.31s WALL (       2 calls)
     potinit      :      0.12s CPU      0.13s WALL (       2 calls)

     Called by electrons:
     c_bands      :     47.43s CPU     49.88s WALL (      30 calls)
     sum_band     :     10.28s CPU     10.75s WALL (      30 calls)
     v_of_rho     :      0.56s CPU      0.56s WALL (      31 calls)
     newd         :      0.48s CPU      0.49s WALL (      31 calls)
     mix_rho      :      0.04s CPU      0.04s WALL (      30 calls)

     Called by c_bands:
     init_us_2    :      2.20s CPU      2.16s WALL (   17500 calls)
     cegterg      :     45.29s CPU     47.69s WALL (    7500 calls)

     Called by sum_band:
     sum_band:bec :      0.01s CPU      0.03s WALL (    7500 calls)
     addusdens    :      0.62s CPU      0.63s WALL (      30 calls)

     Called by *egterg:
     h_psi        :     39.05s CPU     41.24s WALL (   25205 calls)
     s_psi        :      0.45s CPU      0.41s WALL (   25205 calls)
     g_psi        :      0.19s CPU      0.24s WALL (   17205 calls)
     cdiaghg      :      3.33s CPU      3.44s WALL (   23455 calls)

     Called by h_psi:
     h_psi:pot    :     38.94s CPU     41.06s WALL (   25205 calls)
     h_psi:calbec :      0.84s CPU      0.67s WALL (   25205 calls)
     vloc_psi     :     37.78s CPU     39.89s WALL (   25205 calls)
     add_vuspsi   :      0.28s CPU      0.44s WALL (   25205 calls)

     General routines
     calbec       :      1.60s CPU      1.39s WALL (   37705 calls)
     fft          :      0.30s CPU      0.30s WALL (     526 calls)
     ffts         :      0.01s CPU      0.01s WALL (      61 calls)
     fftw         :     40.19s CPU     41.75s WALL (  409392 calls)
     interpolate  :      0.05s CPU      0.05s WALL (      61 calls)
     davcio       :      0.00s CPU      0.01s WALL (     500 calls)

     Parallel routines
     fft_scatter  :      5.03s CPU      7.13s WALL (  409979 calls)

     PWSCF        :  1m 5.95s CPU     1m 9.08s WALL


   This run was terminated on:  17:35:44  20Dec2017            

=------------------------------------------------------------------------------=
   JOB DONE.
=------------------------------------------------------------------------------=
