
     Program PHONON v.6.1 (svn rev. 13369) starts on 14Feb2018 at  2:46:56 

     This program is part of the open-source Quantum ESPRESSO suite
     for quantum simulation of materials; please cite
         "P. Giannozzi et al., J. Phys.:Condens. Matter 21 395502 (2009);
          URL http://www.quantum-espresso.org", 
     in publications or presentations arising from this work. More details at
     http://www.quantum-espresso.org/quote

     Parallel version (MPI), running on    64 processors
     K-points division:     npool     =       4
     R & G space division:  proc/nbgrp/npool/nimage =      16

     Reading data from directory:
     ./na.bcc.save

   Info: using nr1, nr2, nr3 values from input

   Info: using nr1, nr2, nr3 values from input

     IMPORTANT: XC functional enforced from input :
     Exchange-correlation      = SLA  PW   PBE  PBE ( 1  4  3  4 0 0)
     Any further DFT definition will be discarded
     Please, verify this is what you really want


     Parallelization info
     --------------------
     sticks:   dense  smooth     PW     G-vecs:    dense   smooth      PW
     Min          57      29      9                 1111      395      72
     Max          58      30     11                 1113      398      73
     Sum         921     467    151                17789     6339    1157



     Dynamical matrices for ( 6, 6, 6)  uniform grid of q-points
     (  16q-points):
       N         xq(1)         xq(2)         xq(3) 
       1   0.000000000   0.000000000   0.000000000
       2   0.000000000  -0.166666667   0.166666667
       3   0.000000000  -0.333333333   0.333333333
       4   0.000000000   0.500000000  -0.500000000
       5  -0.166666667  -0.166666667   0.333333333
       6  -0.166666667   0.666666667  -0.500000000
       7  -0.333333333   0.666666667  -0.333333333
       8   0.000000000   0.000000000   0.333333333
       9   0.000000000  -0.166666667   0.500000000
      10   0.000000000   0.666666667  -0.333333333
      11  -0.166666667   0.833333333  -0.333333333
      12   0.666666667  -0.666666667   0.333333333
      13   0.500000000  -0.500000000   0.333333333
      14   0.000000000   0.000000000   0.666666667
      15   0.000000000   0.833333333  -0.166666667
      16   0.000000000   0.000000000  -1.000000000

     Calculation of q =    0.0000000   0.0000000   0.0000000

                                                                                

     bravais-lattice index     =            3
     lattice parameter (alat)  =       7.1500  a.u.
     unit-cell volume          =     182.7629 (a.u.)^3
     number of atoms/cell      =            1
     number of atomic types    =            1
     kinetic-energy cut-off    =      40.0000  Ry
     charge density cut-off    =     320.0000  Ry
     convergence threshold     =      1.0E-16
     beta                      =       0.7000
     number of iterations used =            4
     Exchange-correlation      = SLA  PW   PBE  PBE ( 1  4  3  4 0 0)


     celldm(1)=    7.15000  celldm(2)=    0.00000  celldm(3)=    0.00000
     celldm(4)=    0.00000  celldm(5)=    0.00000  celldm(6)=    0.00000

     crystal axes: (cart. coord. in units of alat)
               a(1) = (  0.5000  0.5000  0.5000 )  
               a(2) = ( -0.5000  0.5000  0.5000 )  
               a(3) = ( -0.5000 -0.5000  0.5000 )  

     reciprocal axes: (cart. coord. in units 2 pi/alat)
               b(1) = (  1.0000  0.0000  1.0000 )  
               b(2) = ( -1.0000  1.0000  0.0000 )  
               b(3) = (  0.0000 -1.0000  1.0000 )  


     Atoms inside the unit cell: 

     Cartesian axes

     site n.  atom      mass           positions (alat units)
        1     Na  22.9900   tau(    1) = (    0.00000    0.00000    0.00000  )

     Computing dynamical matrix for 
                    q = (   0.0000000   0.0000000   0.0000000 )

     49 Sym.Ops. (with q -> -q+G )


     G cutoff =  414.3834  (   1113 G-vectors)     FFT grid: ( 36, 36, 36)
     G cutoff =  207.1917  (    398 G-vectors)  smooth grid: ( 25, 25, 25)

     number of k points=   250  Marzari-Vanderbilt smearing, width (Ry)=  0.0200

     PseudoPot. # 1 for Na read from file:
     /home/s1333534/quantum_espresso/qe-6.1/pseudo/Na_pbe_v1.uspp.F.UPF
     MD5 check sum: 76a99c7e9422403d3e93cbc85ab7bccb
     Pseudo is Ultrasoft, Zval =  9.0
     Generated by new atomic code, or converted to UPF format
     Using radial grid of  819 points,  5 beta functions with: 
                l(1) =   0
                l(2) =   0
                l(3) =   1
                l(4) =   1
                l(5) =   2
     Q(r) pseudized with  8 coefficients,  rinner =    1.250   1.250   1.250
                                                       1.250   1.250

     Mode symmetry, O_h (m-3m)  point group:


     Atomic displacements:
     There are   1 irreducible representations

     Representation     1      3 modes -T_1u G_15  G_4-  To be done



     Alpha used in Ewald sum =   2.8000
     PHONON       :     2.96s CPU         3.21s WALL



     Representation #  1 modes #   1  2  3

     Self-consistent Calculation

     Pert. #  1: Fermi energy shift (Ry) =     2.2403E-25     1.4106E-37
     Pert. #  2: Fermi energy shift (Ry) =     3.8774E-26    -3.3698E-37
     Pert. #  3: Fermi energy shift (Ry) =    -1.9818E-25     7.8366E-38

      iter #   1 total cpu time :     6.3 secs   av.it.:   5.5
      thresh= 1.000E-02 alpha_mix =  0.700 |ddv_scf|^2 =  1.361E-06

     Pert. #  1: Fermi energy shift (Ry) =     1.7233E-26    -2.4489E-39
     Pert. #  2: Fermi energy shift (Ry) =    -3.4466E-26     1.7143E-39
     Pert. #  3: Fermi energy shift (Ry) =     2.8004E-25     6.3673E-39

      iter #   2 total cpu time :     9.9 secs   av.it.:   8.5
      thresh= 1.167E-04 alpha_mix =  0.700 |ddv_scf|^2 =  2.648E-08

     Pert. #  1: Fermi energy shift (Ry) =    -6.8932E-26    -3.0612E-40
     Pert. #  2: Fermi energy shift (Ry) =     8.6165E-27     2.1428E-40
     Pert. #  3: Fermi energy shift (Ry) =     7.3240E-26     7.9591E-40

      iter #   3 total cpu time :    13.5 secs   av.it.:   8.6
      thresh= 1.627E-05 alpha_mix =  0.700 |ddv_scf|^2 =  3.190E-10

     Pert. #  1: Fermi energy shift (Ry) =    -8.6165E-27    -1.1097E-40
     Pert. #  2: Fermi energy shift (Ry) =     3.6620E-26    -4.5918E-41
     Pert. #  3: Fermi energy shift (Ry) =    -1.9387E-26     0.0000E+00

      iter #   4 total cpu time :    17.0 secs   av.it.:   8.2
      thresh= 1.786E-06 alpha_mix =  0.700 |ddv_scf|^2 =  1.232E-12

     Pert. #  1: Fermi energy shift (Ry) =     2.1110E-25     4.2091E-41
     Pert. #  2: Fermi energy shift (Ry) =     4.3082E-27     4.4005E-41
     Pert. #  3: Fermi energy shift (Ry) =     2.5849E-26     2.2959E-41

      iter #   5 total cpu time :    20.6 secs   av.it.:   8.4
      thresh= 1.110E-07 alpha_mix =  0.700 |ddv_scf|^2 =  4.080E-15

     Pert. #  1: Fermi energy shift (Ry) =     1.3786E-25     4.2091E-41
     Pert. #  2: Fermi energy shift (Ry) =     9.4781E-26     4.4005E-41
     Pert. #  3: Fermi energy shift (Ry) =     9.9089E-26     2.2959E-41

      iter #   6 total cpu time :    24.3 secs   av.it.:   8.3
      thresh= 6.388E-09 alpha_mix =  0.700 |ddv_scf|^2 =  5.580E-17

     End of self-consistent calculation

     Convergence has been achieved 

     Number of q in the star =    1
     List of q in the star:
          1   0.000000000   0.000000000   0.000000000

     Diagonalizing the dynamical matrix

     q = (    0.000000000   0.000000000   0.000000000 ) 

 **************************************************************************
     freq (    1) =      -0.264418 [THz] =      -8.820048 [cm-1]
     freq (    2) =      -0.264418 [THz] =      -8.820048 [cm-1]
     freq (    3) =      -0.264418 [THz] =      -8.820048 [cm-1]
 **************************************************************************

     Mode symmetry, O_h (m-3m)  point group:

     freq (  1 -  3) =         -8.8  [cm-1]   --> T_1u G_15  G_4- I  

     Calculation of q =    0.0000000  -0.1666667   0.1666667

   Info: using nr1, nr2, nr3 values from input

   Info: using nr1, nr2, nr3 values from input

     Parallelization info
     --------------------
     sticks:   dense  smooth     PW     G-vecs:    dense   smooth      PW
     Min          57      29      9                 1111      395      76
     Max          58      30     10                 1113      398      79
     Sum         921     467    159                17789     6339    1253



     bravais-lattice index     =            3
     lattice parameter (alat)  =       7.1500  a.u.
     unit-cell volume          =     182.7629 (a.u.)^3
     number of atoms/cell      =            1
     number of atomic types    =            1
     number of electrons       =         9.00
     number of Kohn-Sham states=            9
     kinetic-energy cutoff     =      40.0000  Ry
     charge density cutoff     =     320.0000  Ry
     Exchange-correlation      = SLA  PW   PBE  PBE ( 1  4  3  4 0 0)

     celldm(1)=   7.150000  celldm(2)=   0.000000  celldm(3)=   0.000000
     celldm(4)=   0.000000  celldm(5)=   0.000000  celldm(6)=   0.000000

     crystal axes: (cart. coord. in units of alat)
               a(1) = (   0.500000   0.500000   0.500000 )  
               a(2) = (  -0.500000   0.500000   0.500000 )  
               a(3) = (  -0.500000  -0.500000   0.500000 )  

     reciprocal axes: (cart. coord. in units 2 pi/alat)
               b(1) = (  1.000000  0.000000  1.000000 )  
               b(2) = ( -1.000000  1.000000  0.000000 )  
               b(3) = (  0.000000 -1.000000  1.000000 )  


     PseudoPot. # 1 for Na read from file:
     /home/s1333534/quantum_espresso/qe-6.1/pseudo/Na_pbe_v1.uspp.F.UPF
     MD5 check sum: 76a99c7e9422403d3e93cbc85ab7bccb
     Pseudo is Ultrasoft, Zval =  9.0
     Generated by new atomic code, or converted to UPF format
     Using radial grid of  819 points,  5 beta functions with: 
                l(1) =   0
                l(2) =   0
                l(3) =   1
                l(4) =   1
                l(5) =   2
     Q(r) pseudized with  8 coefficients,  rinner =    1.250   1.250   1.250
                                                       1.250   1.250

     atomic species   valence    mass     pseudopotential
        Na             9.00    22.99000     Na( 1.00)

     48 Sym. Ops., with inversion, found



   Cartesian axes

     site n.     atom                  positions (alat units)
         1           Na  tau(   1) = (   0.0000000   0.0000000   0.0000000  )

     number of k points=  4400  Marzari-Vanderbilt smearing, width (Ry)=  0.0200

     Number of k-points >= 100: set verbosity='high' to print them.

     Dense  grid:    17789 G-vectors     FFT dimensions: (  36,  36,  36)

     Smooth grid:     6339 G-vectors     FFT dimensions: (  25,  25,  25)

     Estimated max dynamical RAM per process >       0.61MB

     Estimated total allocated dynamical RAM >      39.09MB

     The potential is recalculated from file :
     ./_ph0/na.bcc.save/charge-density.dat

     Starting wfc are    5 atomic +    4 random wfc

     Band Structure Calculation
     Davidson diagonalization with overlap

     ethr =  1.11E-10,  avg # of iterations = 18.8

     total cpu time spent up to now is       54.8 secs

     End of band structure calculation

     Number of k-points >= 100: set verbosity='high' to print the bands.

     the Fermi energy is     3.1601 ev

     Writing output data file na.bcc.save

                                                                                

     bravais-lattice index     =            3
     lattice parameter (alat)  =       7.1500  a.u.
     unit-cell volume          =     182.7629 (a.u.)^3
     number of atoms/cell      =            1
     number of atomic types    =            1
     kinetic-energy cut-off    =      40.0000  Ry
     charge density cut-off    =     320.0000  Ry
     convergence threshold     =      1.0E-16
     beta                      =       0.7000
     number of iterations used =            4
     Exchange-correlation      = SLA  PW   PBE  PBE ( 1  4  3  4 0 0)


     celldm(1)=    7.15000  celldm(2)=    0.00000  celldm(3)=    0.00000
     celldm(4)=    0.00000  celldm(5)=    0.00000  celldm(6)=    0.00000

     crystal axes: (cart. coord. in units of alat)
               a(1) = (  0.5000  0.5000  0.5000 )  
               a(2) = ( -0.5000  0.5000  0.5000 )  
               a(3) = ( -0.5000 -0.5000  0.5000 )  

     reciprocal axes: (cart. coord. in units 2 pi/alat)
               b(1) = (  1.0000  0.0000  1.0000 )  
               b(2) = ( -1.0000  1.0000  0.0000 )  
               b(3) = (  0.0000 -1.0000  1.0000 )  


     Atoms inside the unit cell: 

     Cartesian axes

     site n.  atom      mass           positions (alat units)
        1     Na  22.9900   tau(    1) = (    0.00000    0.00000    0.00000  )

     Computing dynamical matrix for 
                    q = (   0.0000000  -0.1666667   0.1666667 )

      4 Sym.Ops. (no q -> -q+G )


     G cutoff =  414.3834  (   1113 G-vectors)     FFT grid: ( 36, 36, 36)
     G cutoff =  207.1917  (    398 G-vectors)  smooth grid: ( 25, 25, 25)

     number of k points=  4400  Marzari-Vanderbilt smearing, width (Ry)=  0.0200

     PseudoPot. # 1 for Na read from file:
     /home/s1333534/quantum_espresso/qe-6.1/pseudo/Na_pbe_v1.uspp.F.UPF
     MD5 check sum: 76a99c7e9422403d3e93cbc85ab7bccb
     Pseudo is Ultrasoft, Zval =  9.0
     Generated by new atomic code, or converted to UPF format
     Using radial grid of  819 points,  5 beta functions with: 
                l(1) =   0
                l(2) =   0
                l(3) =   1
                l(4) =   1
                l(5) =   2
     Q(r) pseudized with  8 coefficients,  rinner =    1.250   1.250   1.250
                                                       1.250   1.250

     Mode symmetry, C_2v (mm2)  point group:


     Atomic displacements:
     There are   3 irreducible representations

     Representation     1      1 modes -A_1  D_1  S_1  To be done

     Representation     2      1 modes -B_1  D_3  S_3  To be done

     Representation     3      1 modes -B_2  D_4  S_4  To be done



     Alpha used in Ewald sum =   2.8000
     PHONON       :  1m29.22s CPU     1m35.42s WALL



     Representation #  1 mode #   1

     Self-consistent Calculation

      iter #   1 total cpu time :   102.0 secs   av.it.:   5.7
      thresh= 1.000E-02 alpha_mix =  0.700 |ddv_scf|^2 =  3.388E-02

      iter #   2 total cpu time :   108.5 secs   av.it.:   6.6
      thresh= 1.000E-02 alpha_mix =  0.700 |ddv_scf|^2 =  4.432E+00

      iter #   3 total cpu time :   115.1 secs   av.it.:   6.6
      thresh= 1.000E-02 alpha_mix =  0.700 |ddv_scf|^2 =  9.308E-07

      iter #   4 total cpu time :   122.9 secs   av.it.:   7.6
      thresh= 9.648E-05 alpha_mix =  0.700 |ddv_scf|^2 =  1.008E-07

      iter #   5 total cpu time :   129.7 secs   av.it.:   7.4
      thresh= 3.175E-05 alpha_mix =  0.700 |ddv_scf|^2 =  3.888E-09

      iter #   6 total cpu time :   136.7 secs   av.it.:   7.5
      thresh= 6.235E-06 alpha_mix =  0.700 |ddv_scf|^2 =  5.442E-09

      iter #   7 total cpu time :   141.9 secs   av.it.:   5.0
      thresh= 7.377E-06 alpha_mix =  0.700 |ddv_scf|^2 =  3.288E-09

      iter #   8 total cpu time :   148.4 secs   av.it.:   6.6
      thresh= 5.734E-06 alpha_mix =  0.700 |ddv_scf|^2 =  4.943E-11

      iter #   9 total cpu time :   155.1 secs   av.it.:   7.2
      thresh= 7.031E-07 alpha_mix =  0.700 |ddv_scf|^2 =  1.669E-12

      iter #  10 total cpu time :   161.9 secs   av.it.:   7.1
      thresh= 1.292E-07 alpha_mix =  0.700 |ddv_scf|^2 =  8.268E-14

      iter #  11 total cpu time :   168.9 secs   av.it.:   7.2
      thresh= 2.875E-08 alpha_mix =  0.700 |ddv_scf|^2 =  5.147E-16

      iter #  12 total cpu time :   176.5 secs   av.it.:   7.9
      thresh= 2.269E-09 alpha_mix =  0.700 |ddv_scf|^2 =  3.646E-16

      iter #  13 total cpu time :   183.5 secs   av.it.:   7.1
      thresh= 1.909E-09 alpha_mix =  0.700 |ddv_scf|^2 =  6.718E-15

      iter #  14 total cpu time :   189.3 secs   av.it.:   5.7
      thresh= 8.196E-09 alpha_mix =  0.700 |ddv_scf|^2 =  8.427E-18

     End of self-consistent calculation

     Convergence has been achieved 


     Representation #  2 mode #   2

     Self-consistent Calculation

      iter #   1 total cpu time :   195.9 secs   av.it.:   5.4
      thresh= 1.000E-02 alpha_mix =  0.700 |ddv_scf|^2 =  1.239E-05

      iter #   2 total cpu time :   203.2 secs   av.it.:   7.7
      thresh= 3.520E-04 alpha_mix =  0.700 |ddv_scf|^2 =  2.352E-07

      iter #   3 total cpu time :   211.6 secs   av.it.:   7.9
      thresh= 4.849E-05 alpha_mix =  0.700 |ddv_scf|^2 =  3.200E-09

      iter #   4 total cpu time :   218.6 secs   av.it.:   7.4
      thresh= 5.657E-06 alpha_mix =  0.700 |ddv_scf|^2 =  1.199E-11

      iter #   5 total cpu time :   225.8 secs   av.it.:   7.6
      thresh= 3.462E-07 alpha_mix =  0.700 |ddv_scf|^2 =  3.456E-14

      iter #   6 total cpu time :   233.1 secs   av.it.:   7.5
      thresh= 1.859E-08 alpha_mix =  0.700 |ddv_scf|^2 =  5.615E-16

      iter #   7 total cpu time :   240.4 secs   av.it.:   7.6
      thresh= 2.370E-09 alpha_mix =  0.700 |ddv_scf|^2 =  4.106E-19

     End of self-consistent calculation

     Convergence has been achieved 


     Representation #  3 mode #   3

     Self-consistent Calculation

      iter #   1 total cpu time :   247.0 secs   av.it.:   5.4
      thresh= 1.000E-02 alpha_mix =  0.700 |ddv_scf|^2 =  1.284E-05

      iter #   2 total cpu time :   254.2 secs   av.it.:   7.7
      thresh= 3.583E-04 alpha_mix =  0.700 |ddv_scf|^2 =  2.331E-07

      iter #   3 total cpu time :   261.7 secs   av.it.:   7.9
      thresh= 4.828E-05 alpha_mix =  0.700 |ddv_scf|^2 =  4.204E-09

      iter #   4 total cpu time :   268.9 secs   av.it.:   7.5
      thresh= 6.484E-06 alpha_mix =  0.700 |ddv_scf|^2 =  1.558E-11

      iter #   5 total cpu time :   276.5 secs   av.it.:   7.7
      thresh= 3.947E-07 alpha_mix =  0.700 |ddv_scf|^2 =  3.548E-14

      iter #   6 total cpu time :   283.6 secs   av.it.:   7.3
      thresh= 1.884E-08 alpha_mix =  0.700 |ddv_scf|^2 =  1.118E-15

      iter #   7 total cpu time :   290.7 secs   av.it.:   7.7
      thresh= 3.344E-09 alpha_mix =  0.700 |ddv_scf|^2 =  1.257E-18

     End of self-consistent calculation

     Convergence has been achieved 

     Number of q in the star =   12
     List of q in the star:
          1   0.000000000  -0.166666667   0.166666667
          2  -0.166666667   0.000000000   0.166666667
          3   0.166666667   0.000000000   0.166666667
          4   0.000000000   0.166666667   0.166666667
          5   0.166666667   0.166666667   0.000000000
          6  -0.166666667   0.166666667   0.000000000
          7   0.166666667  -0.166666667   0.000000000
          8  -0.166666667  -0.166666667   0.000000000
          9  -0.166666667   0.000000000  -0.166666667
         10   0.000000000  -0.166666667  -0.166666667
         11   0.000000000   0.166666667  -0.166666667
         12   0.166666667   0.000000000  -0.166666667

     Diagonalizing the dynamical matrix

     q = (    0.000000000  -0.166666667   0.166666667 ) 

 **************************************************************************
     freq (    1) =       0.675480 [THz] =      22.531576 [cm-1]
     freq (    2) =       1.635742 [THz] =      54.562468 [cm-1]
     freq (    3) =       2.915239 [THz] =      97.241913 [cm-1]
 **************************************************************************

     Mode symmetry, C_2v (mm2)  point group:

     freq (  1 -  1) =         22.5  [cm-1]   --> B_1  D_3  S_3      
     freq (  2 -  2) =         54.6  [cm-1]   --> B_2  D_4  S_4      
     freq (  3 -  3) =         97.2  [cm-1]   --> A_1  D_1  S_1      

     Calculation of q =    0.0000000  -0.3333333   0.3333333

   Info: using nr1, nr2, nr3 values from input

   Info: using nr1, nr2, nr3 values from input

     Parallelization info
     --------------------
     sticks:   dense  smooth     PW     G-vecs:    dense   smooth      PW
     Min          57      29     10                 1111      395      87
     Max          58      30     11                 1113      398      89
     Sum         921     467    169                17789     6339    1409



     bravais-lattice index     =            3
     lattice parameter (alat)  =       7.1500  a.u.
     unit-cell volume          =     182.7629 (a.u.)^3
     number of atoms/cell      =            1
     number of atomic types    =            1
     number of electrons       =         9.00
     number of Kohn-Sham states=            9
     kinetic-energy cutoff     =      40.0000  Ry
     charge density cutoff     =     320.0000  Ry
     Exchange-correlation      = SLA  PW   PBE  PBE ( 1  4  3  4 0 0)

     celldm(1)=   7.150000  celldm(2)=   0.000000  celldm(3)=   0.000000
     celldm(4)=   0.000000  celldm(5)=   0.000000  celldm(6)=   0.000000

     crystal axes: (cart. coord. in units of alat)
               a(1) = (   0.500000   0.500000   0.500000 )  
               a(2) = (  -0.500000   0.500000   0.500000 )  
               a(3) = (  -0.500000  -0.500000   0.500000 )  

     reciprocal axes: (cart. coord. in units 2 pi/alat)
               b(1) = (  1.000000  0.000000  1.000000 )  
               b(2) = ( -1.000000  1.000000  0.000000 )  
               b(3) = (  0.000000 -1.000000  1.000000 )  


     PseudoPot. # 1 for Na read from file:
     /home/s1333534/quantum_espresso/qe-6.1/pseudo/Na_pbe_v1.uspp.F.UPF
     MD5 check sum: 76a99c7e9422403d3e93cbc85ab7bccb
     Pseudo is Ultrasoft, Zval =  9.0
     Generated by new atomic code, or converted to UPF format
     Using radial grid of  819 points,  5 beta functions with: 
                l(1) =   0
                l(2) =   0
                l(3) =   1
                l(4) =   1
                l(5) =   2
     Q(r) pseudized with  8 coefficients,  rinner =    1.250   1.250   1.250
                                                       1.250   1.250

     atomic species   valence    mass     pseudopotential
        Na             9.00    22.99000     Na( 1.00)

     48 Sym. Ops., with inversion, found



   Cartesian axes

     site n.     atom                  positions (alat units)
         1           Na  tau(   1) = (   0.0000000   0.0000000   0.0000000  )

     number of k points=  4400  Marzari-Vanderbilt smearing, width (Ry)=  0.0200

     Number of k-points >= 100: set verbosity='high' to print them.

     Dense  grid:    17789 G-vectors     FFT dimensions: (  36,  36,  36)

     Smooth grid:     6339 G-vectors     FFT dimensions: (  25,  25,  25)

     Estimated max dynamical RAM per process >       0.61MB

     Estimated total allocated dynamical RAM >      39.09MB

     The potential is recalculated from file :
     ./_ph0/na.bcc.save/charge-density.dat

     Starting wfc are    5 atomic +    4 random wfc

     Band Structure Calculation
     Davidson diagonalization with overlap

     ethr =  1.11E-10,  avg # of iterations = 18.8

     total cpu time spent up to now is      124.4 secs

     End of band structure calculation

     Number of k-points >= 100: set verbosity='high' to print the bands.

     the Fermi energy is     3.1601 ev

     Writing output data file na.bcc.save

                                                                                

     bravais-lattice index     =            3
     lattice parameter (alat)  =       7.1500  a.u.
     unit-cell volume          =     182.7629 (a.u.)^3
     number of atoms/cell      =            1
     number of atomic types    =            1
     kinetic-energy cut-off    =      40.0000  Ry
     charge density cut-off    =     320.0000  Ry
     convergence threshold     =      1.0E-16
     beta                      =       0.7000
     number of iterations used =            4
     Exchange-correlation      = SLA  PW   PBE  PBE ( 1  4  3  4 0 0)


     celldm(1)=    7.15000  celldm(2)=    0.00000  celldm(3)=    0.00000
     celldm(4)=    0.00000  celldm(5)=    0.00000  celldm(6)=    0.00000

     crystal axes: (cart. coord. in units of alat)
               a(1) = (  0.5000  0.5000  0.5000 )  
               a(2) = ( -0.5000  0.5000  0.5000 )  
               a(3) = ( -0.5000 -0.5000  0.5000 )  

     reciprocal axes: (cart. coord. in units 2 pi/alat)
               b(1) = (  1.0000  0.0000  1.0000 )  
               b(2) = ( -1.0000  1.0000  0.0000 )  
               b(3) = (  0.0000 -1.0000  1.0000 )  


     Atoms inside the unit cell: 

     Cartesian axes

     site n.  atom      mass           positions (alat units)
        1     Na  22.9900   tau(    1) = (    0.00000    0.00000    0.00000  )

     Computing dynamical matrix for 
                    q = (   0.0000000  -0.3333333   0.3333333 )

      4 Sym.Ops. (no q -> -q+G )


     G cutoff =  414.3834  (   1113 G-vectors)     FFT grid: ( 36, 36, 36)
     G cutoff =  207.1917  (    398 G-vectors)  smooth grid: ( 25, 25, 25)

     number of k points=  4400  Marzari-Vanderbilt smearing, width (Ry)=  0.0200

     PseudoPot. # 1 for Na read from file:
     /home/s1333534/quantum_espresso/qe-6.1/pseudo/Na_pbe_v1.uspp.F.UPF
     MD5 check sum: 76a99c7e9422403d3e93cbc85ab7bccb
     Pseudo is Ultrasoft, Zval =  9.0
     Generated by new atomic code, or converted to UPF format
     Using radial grid of  819 points,  5 beta functions with: 
                l(1) =   0
                l(2) =   0
                l(3) =   1
                l(4) =   1
                l(5) =   2
     Q(r) pseudized with  8 coefficients,  rinner =    1.250   1.250   1.250
                                                       1.250   1.250

     Mode symmetry, C_2v (mm2)  point group:


     Atomic displacements:
     There are   3 irreducible representations

     Representation     1      1 modes -A_1  D_1  S_1  To be done

     Representation     2      1 modes -B_1  D_3  S_3  To be done

     Representation     3      1 modes -B_2  D_4  S_4  To be done



     Alpha used in Ewald sum =   2.8000
     PHONON       :  5m30.39s CPU     6m 3.30s WALL



     Representation #  1 mode #   1

     Self-consistent Calculation

      iter #   1 total cpu time :   370.3 secs   av.it.:   5.7
      thresh= 1.000E-02 alpha_mix =  0.700 |ddv_scf|^2 =  5.783E-04

      iter #   2 total cpu time :   377.4 secs   av.it.:   6.7
      thresh= 2.405E-03 alpha_mix =  0.700 |ddv_scf|^2 =  2.933E-03

      iter #   3 total cpu time :   384.2 secs   av.it.:   6.0
      thresh= 5.416E-03 alpha_mix =  0.700 |ddv_scf|^2 =  6.081E-07

      iter #   4 total cpu time :   391.9 secs   av.it.:   7.7
      thresh= 7.798E-05 alpha_mix =  0.700 |ddv_scf|^2 =  8.857E-09

      iter #   5 total cpu time :   400.1 secs   av.it.:   8.3
      thresh= 9.411E-06 alpha_mix =  0.700 |ddv_scf|^2 =  6.659E-10

      iter #   6 total cpu time :   408.0 secs   av.it.:   8.0
      thresh= 2.580E-06 alpha_mix =  0.700 |ddv_scf|^2 =  1.506E-11

      iter #   7 total cpu time :   415.7 secs   av.it.:   7.6
      thresh= 3.881E-07 alpha_mix =  0.700 |ddv_scf|^2 =  5.240E-14

      iter #   8 total cpu time :   423.4 secs   av.it.:   7.7
      thresh= 2.289E-08 alpha_mix =  0.700 |ddv_scf|^2 =  5.042E-15

      iter #   9 total cpu time :   430.8 secs   av.it.:   7.2
      thresh= 7.101E-09 alpha_mix =  0.700 |ddv_scf|^2 =  1.513E-14

      iter #  10 total cpu time :   438.0 secs   av.it.:   6.7
      thresh= 1.230E-08 alpha_mix =  0.700 |ddv_scf|^2 =  6.374E-16

      iter #  11 total cpu time :   445.3 secs   av.it.:   6.9
      thresh= 2.525E-09 alpha_mix =  0.700 |ddv_scf|^2 =  3.732E-18

     End of self-consistent calculation

     Convergence has been achieved 


     Representation #  2 mode #   2

     Self-consistent Calculation

      iter #   1 total cpu time :   452.3 secs   av.it.:   5.5
      thresh= 1.000E-02 alpha_mix =  0.700 |ddv_scf|^2 =  1.276E-05

      iter #   2 total cpu time :   460.0 secs   av.it.:   7.7
      thresh= 3.572E-04 alpha_mix =  0.700 |ddv_scf|^2 =  2.262E-07

      iter #   3 total cpu time :   467.9 secs   av.it.:   7.9
      thresh= 4.756E-05 alpha_mix =  0.700 |ddv_scf|^2 =  4.264E-09

      iter #   4 total cpu time :   475.2 secs   av.it.:   7.4
      thresh= 6.530E-06 alpha_mix =  0.700 |ddv_scf|^2 =  1.453E-11

      iter #   5 total cpu time :   484.1 secs   av.it.:   7.7
      thresh= 3.812E-07 alpha_mix =  0.700 |ddv_scf|^2 =  2.835E-14

      iter #   6 total cpu time :   491.6 secs   av.it.:   7.5
      thresh= 1.684E-08 alpha_mix =  0.700 |ddv_scf|^2 =  6.523E-16

      iter #   7 total cpu time :   499.3 secs   av.it.:   7.7
      thresh= 2.554E-09 alpha_mix =  0.700 |ddv_scf|^2 =  4.864E-19

     End of self-consistent calculation

     Convergence has been achieved 


     Representation #  3 mode #   3

     Self-consistent Calculation

      iter #   1 total cpu time :   506.6 secs   av.it.:   5.5
      thresh= 1.000E-02 alpha_mix =  0.700 |ddv_scf|^2 =  1.415E-05

      iter #   2 total cpu time :   514.3 secs   av.it.:   7.7
      thresh= 3.762E-04 alpha_mix =  0.700 |ddv_scf|^2 =  2.209E-07

      iter #   3 total cpu time :   522.1 secs   av.it.:   7.9
      thresh= 4.700E-05 alpha_mix =  0.700 |ddv_scf|^2 =  7.720E-09

      iter #   4 total cpu time :   529.6 secs   av.it.:   7.5
      thresh= 8.786E-06 alpha_mix =  0.700 |ddv_scf|^2 =  2.782E-11

      iter #   5 total cpu time :   537.6 secs   av.it.:   7.7
      thresh= 5.274E-07 alpha_mix =  0.700 |ddv_scf|^2 =  3.564E-14

      iter #   6 total cpu time :   544.6 secs   av.it.:   6.8
      thresh= 1.888E-08 alpha_mix =  0.700 |ddv_scf|^2 =  1.985E-15

      iter #   7 total cpu time :   552.2 secs   av.it.:   7.6
      thresh= 4.456E-09 alpha_mix =  0.700 |ddv_scf|^2 =  1.944E-18

     End of self-consistent calculation

     Convergence has been achieved 

     Number of q in the star =   12
     List of q in the star:
          1   0.000000000  -0.333333333   0.333333333
          2  -0.333333333   0.000000000   0.333333333
          3   0.333333333   0.000000000   0.333333333
          4   0.000000000   0.333333333   0.333333333
          5   0.333333333   0.333333333   0.000000000
          6  -0.333333333   0.333333333   0.000000000
          7   0.333333333  -0.333333333   0.000000000
          8  -0.333333333  -0.333333333   0.000000000
          9  -0.333333333   0.000000000  -0.333333333
         10   0.000000000  -0.333333333  -0.333333333
         11   0.000000000   0.333333333  -0.333333333
         12   0.333333333   0.000000000  -0.333333333

     Diagonalizing the dynamical matrix

     q = (    0.000000000  -0.333333333   0.333333333 ) 

 **************************************************************************
     freq (    1) =       1.123393 [THz] =      37.472360 [cm-1]
     freq (    2) =       2.828699 [THz] =      94.355231 [cm-1]
     freq (    3) =       5.137010 [THz] =     171.352199 [cm-1]
 **************************************************************************

     Mode symmetry, C_2v (mm2)  point group:

     freq (  1 -  1) =         37.5  [cm-1]   --> B_1  D_3  S_3      
     freq (  2 -  2) =         94.4  [cm-1]   --> B_2  D_4  S_4      
     freq (  3 -  3) =        171.4  [cm-1]   --> A_1  D_1  S_1      

     Calculation of q =    0.0000000   0.5000000  -0.5000000

   Info: using nr1, nr2, nr3 values from input

   Info: using nr1, nr2, nr3 values from input

     Parallelization info
     --------------------
     sticks:   dense  smooth     PW     G-vecs:    dense   smooth      PW
     Min          57      29     10                 1111      395      90
     Max          58      30     11                 1113      398      94
     Sum         921     467    173                17789     6339    1481



     bravais-lattice index     =            3
     lattice parameter (alat)  =       7.1500  a.u.
     unit-cell volume          =     182.7629 (a.u.)^3
     number of atoms/cell      =            1
     number of atomic types    =            1
     number of electrons       =         9.00
     number of Kohn-Sham states=            9
     kinetic-energy cutoff     =      40.0000  Ry
     charge density cutoff     =     320.0000  Ry
     Exchange-correlation      = SLA  PW   PBE  PBE ( 1  4  3  4 0 0)

     celldm(1)=   7.150000  celldm(2)=   0.000000  celldm(3)=   0.000000
     celldm(4)=   0.000000  celldm(5)=   0.000000  celldm(6)=   0.000000

     crystal axes: (cart. coord. in units of alat)
               a(1) = (   0.500000   0.500000   0.500000 )  
               a(2) = (  -0.500000   0.500000   0.500000 )  
               a(3) = (  -0.500000  -0.500000   0.500000 )  

     reciprocal axes: (cart. coord. in units 2 pi/alat)
               b(1) = (  1.000000  0.000000  1.000000 )  
               b(2) = ( -1.000000  1.000000  0.000000 )  
               b(3) = (  0.000000 -1.000000  1.000000 )  


     PseudoPot. # 1 for Na read from file:
     /home/s1333534/quantum_espresso/qe-6.1/pseudo/Na_pbe_v1.uspp.F.UPF
     MD5 check sum: 76a99c7e9422403d3e93cbc85ab7bccb
     Pseudo is Ultrasoft, Zval =  9.0
     Generated by new atomic code, or converted to UPF format
     Using radial grid of  819 points,  5 beta functions with: 
                l(1) =   0
                l(2) =   0
                l(3) =   1
                l(4) =   1
                l(5) =   2
     Q(r) pseudized with  8 coefficients,  rinner =    1.250   1.250   1.250
                                                       1.250   1.250

     atomic species   valence    mass     pseudopotential
        Na             9.00    22.99000     Na( 1.00)

     48 Sym. Ops., with inversion, found



   Cartesian axes

     site n.     atom                  positions (alat units)
         1           Na  tau(   1) = (   0.0000000   0.0000000   0.0000000  )

     number of k points=  2310  Marzari-Vanderbilt smearing, width (Ry)=  0.0200

     Number of k-points >= 100: set verbosity='high' to print them.

     Dense  grid:    17789 G-vectors     FFT dimensions: (  36,  36,  36)

     Smooth grid:     6339 G-vectors     FFT dimensions: (  25,  25,  25)

     Estimated max dynamical RAM per process >       0.61MB

     Estimated total allocated dynamical RAM >      39.09MB

     The potential is recalculated from file :
     ./_ph0/na.bcc.save/charge-density.dat

     Starting wfc are    5 atomic +    4 random wfc

     Band Structure Calculation
     Davidson diagonalization with overlap

     ethr =  1.11E-10,  avg # of iterations = 18.8

     total cpu time spent up to now is      167.0 secs

     End of band structure calculation

     Number of k-points >= 100: set verbosity='high' to print the bands.

     the Fermi energy is     3.1601 ev

     Writing output data file na.bcc.save

                                                                                

     bravais-lattice index     =            3
     lattice parameter (alat)  =       7.1500  a.u.
     unit-cell volume          =     182.7629 (a.u.)^3
     number of atoms/cell      =            1
     number of atomic types    =            1
     kinetic-energy cut-off    =      40.0000  Ry
     charge density cut-off    =     320.0000  Ry
     convergence threshold     =      1.0E-16
     beta                      =       0.7000
     number of iterations used =            4
     Exchange-correlation      = SLA  PW   PBE  PBE ( 1  4  3  4 0 0)


     celldm(1)=    7.15000  celldm(2)=    0.00000  celldm(3)=    0.00000
     celldm(4)=    0.00000  celldm(5)=    0.00000  celldm(6)=    0.00000

     crystal axes: (cart. coord. in units of alat)
               a(1) = (  0.5000  0.5000  0.5000 )  
               a(2) = ( -0.5000  0.5000  0.5000 )  
               a(3) = ( -0.5000 -0.5000  0.5000 )  

     reciprocal axes: (cart. coord. in units 2 pi/alat)
               b(1) = (  1.0000  0.0000  1.0000 )  
               b(2) = ( -1.0000  1.0000  0.0000 )  
               b(3) = (  0.0000 -1.0000  1.0000 )  


     Atoms inside the unit cell: 

     Cartesian axes

     site n.  atom      mass           positions (alat units)
        1     Na  22.9900   tau(    1) = (    0.00000    0.00000    0.00000  )

     Computing dynamical matrix for 
                    q = (   0.0000000   0.5000000  -0.5000000 )

      9 Sym.Ops. (with q -> -q+G )


     G cutoff =  414.3834  (   1113 G-vectors)     FFT grid: ( 36, 36, 36)
     G cutoff =  207.1917  (    398 G-vectors)  smooth grid: ( 25, 25, 25)

     number of k points=  2310  Marzari-Vanderbilt smearing, width (Ry)=  0.0200

     PseudoPot. # 1 for Na read from file:
     /home/s1333534/quantum_espresso/qe-6.1/pseudo/Na_pbe_v1.uspp.F.UPF
     MD5 check sum: 76a99c7e9422403d3e93cbc85ab7bccb
     Pseudo is Ultrasoft, Zval =  9.0
     Generated by new atomic code, or converted to UPF format
     Using radial grid of  819 points,  5 beta functions with: 
                l(1) =   0
                l(2) =   0
                l(3) =   1
                l(4) =   1
                l(5) =   2
     Q(r) pseudized with  8 coefficients,  rinner =    1.250   1.250   1.250
                                                       1.250   1.250

     Mode symmetry, D_2h (mmm)  point group:


     Atomic displacements:
     There are   3 irreducible representations

     Representation     1      1 modes -B_1u  To be done

     Representation     2      1 modes -B_2u  To be done

     Representation     3      1 modes -B_3u  To be done



     Alpha used in Ewald sum =   2.8000
     PHONON       :  8m55.96s CPU     9m50.92s WALL



     Representation #  1 mode #   1

     Self-consistent Calculation

      iter #   1 total cpu time :   594.6 secs   av.it.:   5.5
      thresh= 1.000E-02 alpha_mix =  0.700 |ddv_scf|^2 =  1.487E-05

      iter #   2 total cpu time :   598.9 secs   av.it.:   7.7
      thresh= 3.856E-04 alpha_mix =  0.700 |ddv_scf|^2 =  2.152E-07

      iter #   3 total cpu time :   603.1 secs   av.it.:   7.8
      thresh= 4.639E-05 alpha_mix =  0.700 |ddv_scf|^2 =  9.942E-09

      iter #   4 total cpu time :   607.1 secs   av.it.:   7.3
      thresh= 9.971E-06 alpha_mix =  0.700 |ddv_scf|^2 =  3.584E-11

      iter #   5 total cpu time :   611.2 secs   av.it.:   7.6
      thresh= 5.987E-07 alpha_mix =  0.700 |ddv_scf|^2 =  3.739E-14

      iter #   6 total cpu time :   615.1 secs   av.it.:   6.6
      thresh= 1.934E-08 alpha_mix =  0.700 |ddv_scf|^2 =  2.333E-15

      iter #   7 total cpu time :   619.0 secs   av.it.:   7.4
      thresh= 4.830E-09 alpha_mix =  0.700 |ddv_scf|^2 =  1.851E-18

     End of self-consistent calculation

     Convergence has been achieved 


     Representation #  2 mode #   2

     Self-consistent Calculation

      iter #   1 total cpu time :   622.8 secs   av.it.:   5.5
      thresh= 1.000E-02 alpha_mix =  0.700 |ddv_scf|^2 =  1.298E-05

      iter #   2 total cpu time :   627.2 secs   av.it.:   7.7
      thresh= 3.603E-04 alpha_mix =  0.700 |ddv_scf|^2 =  2.210E-07

      iter #   3 total cpu time :   631.8 secs   av.it.:   7.9
      thresh= 4.701E-05 alpha_mix =  0.700 |ddv_scf|^2 =  5.027E-09

      iter #   4 total cpu time :   635.7 secs   av.it.:   7.2
      thresh= 7.090E-06 alpha_mix =  0.700 |ddv_scf|^2 =  1.599E-11

      iter #   5 total cpu time :   639.8 secs   av.it.:   7.6
      thresh= 3.999E-07 alpha_mix =  0.700 |ddv_scf|^2 =  2.459E-14

      iter #   6 total cpu time :   643.7 secs   av.it.:   7.3
      thresh= 1.568E-08 alpha_mix =  0.700 |ddv_scf|^2 =  6.281E-16

      iter #   7 total cpu time :   647.9 secs   av.it.:   7.6
      thresh= 2.506E-09 alpha_mix =  0.700 |ddv_scf|^2 =  2.206E-19

     End of self-consistent calculation

     Convergence has been achieved 


     Representation #  3 mode #   3

     Self-consistent Calculation

      iter #   1 total cpu time :   651.9 secs   av.it.:   5.7
      thresh= 1.000E-02 alpha_mix =  0.700 |ddv_scf|^2 =  1.183E-04

      iter #   2 total cpu time :   655.7 secs   av.it.:   6.8
      thresh= 1.088E-03 alpha_mix =  0.700 |ddv_scf|^2 =  5.596E-05

      iter #   3 total cpu time :   659.6 secs   av.it.:   6.8
      thresh= 7.481E-04 alpha_mix =  0.700 |ddv_scf|^2 =  7.938E-08

      iter #   4 total cpu time :   663.8 secs   av.it.:   7.8
      thresh= 2.817E-05 alpha_mix =  0.700 |ddv_scf|^2 =  2.555E-10

      iter #   5 total cpu time :   667.5 secs   av.it.:   6.6
      thresh= 1.598E-06 alpha_mix =  0.700 |ddv_scf|^2 =  5.545E-12

      iter #   6 total cpu time :   671.3 secs   av.it.:   6.8
      thresh= 2.355E-07 alpha_mix =  0.700 |ddv_scf|^2 =  1.637E-14

      iter #   7 total cpu time :   675.2 secs   av.it.:   7.1
      thresh= 1.279E-08 alpha_mix =  0.700 |ddv_scf|^2 =  3.030E-17

     End of self-consistent calculation

     Convergence has been achieved 

     Number of q in the star =    6
     List of q in the star:
          1   0.000000000   0.500000000  -0.500000000
          2  -0.500000000  -0.500000000   0.000000000
          3   0.500000000  -0.500000000   0.000000000
          4   0.500000000   0.000000000   0.500000000
          5   0.000000000  -0.500000000  -0.500000000
          6   0.500000000   0.000000000  -0.500000000

     Diagonalizing the dynamical matrix

     q = (    0.000000000   0.500000000  -0.500000000 ) 

 **************************************************************************
     freq (    1) =       1.272123 [THz] =      42.433447 [cm-1]
     freq (    2) =       3.267076 [THz] =     108.977935 [cm-1]
     freq (    3) =       5.957737 [THz] =     198.728699 [cm-1]
 **************************************************************************

     Mode symmetry, D_2h (mmm)  point group:

     freq (  1 -  1) =         42.4  [cm-1]   --> B_2u               
     freq (  2 -  2) =        109.0  [cm-1]   --> B_1u               
     freq (  3 -  3) =        198.7  [cm-1]   --> B_3u               

     Calculation of q =   -0.1666667  -0.1666667   0.3333333

   Info: using nr1, nr2, nr3 values from input

   Info: using nr1, nr2, nr3 values from input

     Parallelization info
     --------------------
     sticks:   dense  smooth     PW     G-vecs:    dense   smooth      PW
     Min          57      29     10                 1111      395      80
     Max          58      30     11                 1113      398      81
     Sum         921     467    165                17789     6339    1289



     bravais-lattice index     =            3
     lattice parameter (alat)  =       7.1500  a.u.
     unit-cell volume          =     182.7629 (a.u.)^3
     number of atoms/cell      =            1
     number of atomic types    =            1
     number of electrons       =         9.00
     number of Kohn-Sham states=            9
     kinetic-energy cutoff     =      40.0000  Ry
     charge density cutoff     =     320.0000  Ry
     Exchange-correlation      = SLA  PW   PBE  PBE ( 1  4  3  4 0 0)

     celldm(1)=   7.150000  celldm(2)=   0.000000  celldm(3)=   0.000000
     celldm(4)=   0.000000  celldm(5)=   0.000000  celldm(6)=   0.000000

     crystal axes: (cart. coord. in units of alat)
               a(1) = (   0.500000   0.500000   0.500000 )  
               a(2) = (  -0.500000   0.500000   0.500000 )  
               a(3) = (  -0.500000  -0.500000   0.500000 )  

     reciprocal axes: (cart. coord. in units 2 pi/alat)
               b(1) = (  1.000000  0.000000  1.000000 )  
               b(2) = ( -1.000000  1.000000  0.000000 )  
               b(3) = (  0.000000 -1.000000  1.000000 )  


     PseudoPot. # 1 for Na read from file:
     /home/s1333534/quantum_espresso/qe-6.1/pseudo/Na_pbe_v1.uspp.F.UPF
     MD5 check sum: 76a99c7e9422403d3e93cbc85ab7bccb
     Pseudo is Ultrasoft, Zval =  9.0
     Generated by new atomic code, or converted to UPF format
     Using radial grid of  819 points,  5 beta functions with: 
                l(1) =   0
                l(2) =   0
                l(3) =   1
                l(4) =   1
                l(5) =   2
     Q(r) pseudized with  8 coefficients,  rinner =    1.250   1.250   1.250
                                                       1.250   1.250

     atomic species   valence    mass     pseudopotential
        Na             9.00    22.99000     Na( 1.00)

     48 Sym. Ops., with inversion, found



   Cartesian axes

     site n.     atom                  positions (alat units)
         1           Na  tau(   1) = (   0.0000000   0.0000000   0.0000000  )

     number of k points=  8400  Marzari-Vanderbilt smearing, width (Ry)=  0.0200

     Number of k-points >= 100: set verbosity='high' to print them.

     Dense  grid:    17789 G-vectors     FFT dimensions: (  36,  36,  36)

     Smooth grid:     6339 G-vectors     FFT dimensions: (  25,  25,  25)

     Estimated max dynamical RAM per process >       0.61MB

     Estimated total allocated dynamical RAM >      39.09MB

     The potential is recalculated from file :
     ./_ph0/na.bcc.save/charge-density.dat

     Starting wfc are    5 atomic +    4 random wfc

     Band Structure Calculation
     Davidson diagonalization with overlap

     ethr =  1.11E-10,  avg # of iterations = 18.8

     total cpu time spent up to now is      282.5 secs

     End of band structure calculation

     Number of k-points >= 100: set verbosity='high' to print the bands.

     the Fermi energy is     3.1601 ev

     Writing output data file na.bcc.save

                                                                                

     bravais-lattice index     =            3
     lattice parameter (alat)  =       7.1500  a.u.
     unit-cell volume          =     182.7629 (a.u.)^3
     number of atoms/cell      =            1
     number of atomic types    =            1
     kinetic-energy cut-off    =      40.0000  Ry
     charge density cut-off    =     320.0000  Ry
     convergence threshold     =      1.0E-16
     beta                      =       0.7000
     number of iterations used =            4
     Exchange-correlation      = SLA  PW   PBE  PBE ( 1  4  3  4 0 0)


     celldm(1)=    7.15000  celldm(2)=    0.00000  celldm(3)=    0.00000
     celldm(4)=    0.00000  celldm(5)=    0.00000  celldm(6)=    0.00000

     crystal axes: (cart. coord. in units of alat)
               a(1) = (  0.5000  0.5000  0.5000 )  
               a(2) = ( -0.5000  0.5000  0.5000 )  
               a(3) = ( -0.5000 -0.5000  0.5000 )  

     reciprocal axes: (cart. coord. in units 2 pi/alat)
               b(1) = (  1.0000  0.0000  1.0000 )  
               b(2) = ( -1.0000  1.0000  0.0000 )  
               b(3) = (  0.0000 -1.0000  1.0000 )  


     Atoms inside the unit cell: 

     Cartesian axes

     site n.  atom      mass           positions (alat units)
        1     Na  22.9900   tau(    1) = (    0.00000    0.00000    0.00000  )

     Computing dynamical matrix for 
                    q = (  -0.1666667  -0.1666667   0.3333333 )

      2 Sym.Ops. (no q -> -q+G )


     G cutoff =  414.3834  (   1113 G-vectors)     FFT grid: ( 36, 36, 36)
     G cutoff =  207.1917  (    398 G-vectors)  smooth grid: ( 25, 25, 25)

     number of k points=  8400  Marzari-Vanderbilt smearing, width (Ry)=  0.0200

     PseudoPot. # 1 for Na read from file:
     /home/s1333534/quantum_espresso/qe-6.1/pseudo/Na_pbe_v1.uspp.F.UPF
     MD5 check sum: 76a99c7e9422403d3e93cbc85ab7bccb
     Pseudo is Ultrasoft, Zval =  9.0
     Generated by new atomic code, or converted to UPF format
     Using radial grid of  819 points,  5 beta functions with: 
                l(1) =   0
                l(2) =   0
                l(3) =   1
                l(4) =   1
                l(5) =   2
     Q(r) pseudized with  8 coefficients,  rinner =    1.250   1.250   1.250
                                                       1.250   1.250

     Mode symmetry, C_s (m)     point group:


     Atomic displacements:
     There are   3 irreducible representations

     Representation     1      1 modes -A'  To be done

     Representation     2      1 modes -A'  To be done

     Representation     3      1 modes -A''  To be done



     Alpha used in Ewald sum =   2.8000
     PHONON       : 12m22.00s CPU    13m34.30s WALL



     Representation #  1 mode #   1

     Self-consistent Calculation

      iter #   1 total cpu time :   828.3 secs   av.it.:   5.6
      thresh= 1.000E-02 alpha_mix =  0.700 |ddv_scf|^2 =  1.435E-04

      iter #   2 total cpu time :   842.3 secs   av.it.:   7.3
      thresh= 1.198E-03 alpha_mix =  0.700 |ddv_scf|^2 =  1.395E-03

      iter #   3 total cpu time :   853.7 secs   av.it.:   5.5
      thresh= 3.735E-03 alpha_mix =  0.700 |ddv_scf|^2 =  1.607E-07

      iter #   4 total cpu time :   869.6 secs   av.it.:   8.3
      thresh= 4.009E-05 alpha_mix =  0.700 |ddv_scf|^2 =  5.189E-09

      iter #   5 total cpu time :   884.5 secs   av.it.:   7.9
      thresh= 7.204E-06 alpha_mix =  0.700 |ddv_scf|^2 =  2.291E-10

      iter #   6 total cpu time :   900.2 secs   av.it.:   8.2
      thresh= 1.513E-06 alpha_mix =  0.700 |ddv_scf|^2 =  2.336E-11

      iter #   7 total cpu time :   914.8 secs   av.it.:   7.7
      thresh= 4.834E-07 alpha_mix =  0.700 |ddv_scf|^2 =  5.609E-11

      iter #   8 total cpu time :   928.5 secs   av.it.:   7.0
      thresh= 7.489E-07 alpha_mix =  0.700 |ddv_scf|^2 =  3.719E-11

      iter #   9 total cpu time :   941.1 secs   av.it.:   6.4
      thresh= 6.099E-07 alpha_mix =  0.700 |ddv_scf|^2 =  9.941E-13

      iter #  10 total cpu time :   954.8 secs   av.it.:   7.3
      thresh= 9.970E-08 alpha_mix =  0.700 |ddv_scf|^2 =  6.480E-15

      iter #  11 total cpu time :   970.0 secs   av.it.:   8.1
      thresh= 8.050E-09 alpha_mix =  0.700 |ddv_scf|^2 =  2.385E-16

      iter #  12 total cpu time :   984.6 secs   av.it.:   7.7
      thresh= 1.544E-09 alpha_mix =  0.700 |ddv_scf|^2 =  2.018E-17

     End of self-consistent calculation

     Convergence has been achieved 


     Representation #  2 mode #   2

     Self-consistent Calculation

      iter #   1 total cpu time :   998.5 secs   av.it.:   5.8
      thresh= 1.000E-02 alpha_mix =  0.700 |ddv_scf|^2 =  1.172E-03

      iter #   2 total cpu time :  1011.8 secs   av.it.:   6.7
      thresh= 3.424E-03 alpha_mix =  0.700 |ddv_scf|^2 =  1.236E-02

      iter #   3 total cpu time :  1023.4 secs   av.it.:   5.6
      thresh= 1.000E-02 alpha_mix =  0.700 |ddv_scf|^2 =  1.264E-06

      iter #   4 total cpu time :  1038.0 secs   av.it.:   7.7
      thresh= 1.124E-04 alpha_mix =  0.700 |ddv_scf|^2 =  6.032E-09

      iter #   5 total cpu time :  1053.4 secs   av.it.:   8.3
      thresh= 7.767E-06 alpha_mix =  0.700 |ddv_scf|^2 =  1.061E-09

      iter #   6 total cpu time :  1068.4 secs   av.it.:   8.0
      thresh= 3.257E-06 alpha_mix =  0.700 |ddv_scf|^2 =  1.312E-11

      iter #   7 total cpu time :  1083.8 secs   av.it.:   8.1
      thresh= 3.622E-07 alpha_mix =  0.700 |ddv_scf|^2 =  6.794E-12

      iter #   8 total cpu time :  1097.3 secs   av.it.:   6.9
      thresh= 2.607E-07 alpha_mix =  0.700 |ddv_scf|^2 =  7.320E-12

      iter #   9 total cpu time :  1111.0 secs   av.it.:   7.0
      thresh= 2.706E-07 alpha_mix =  0.700 |ddv_scf|^2 =  7.591E-13

      iter #  10 total cpu time :  1124.7 secs   av.it.:   6.9
      thresh= 8.713E-08 alpha_mix =  0.700 |ddv_scf|^2 =  5.675E-14

      iter #  11 total cpu time :  1139.2 secs   av.it.:   7.5
      thresh= 2.382E-08 alpha_mix =  0.700 |ddv_scf|^2 =  2.200E-16

      iter #  12 total cpu time :  1154.3 secs   av.it.:   8.0
      thresh= 1.483E-09 alpha_mix =  0.700 |ddv_scf|^2 =  3.262E-17

     End of self-consistent calculation

     Convergence has been achieved 


     Representation #  3 mode #   3

     Self-consistent Calculation

      iter #   1 total cpu time :  1168.7 secs   av.it.:   5.5
      thresh= 1.000E-02 alpha_mix =  0.700 |ddv_scf|^2 =  1.497E-05

      iter #   2 total cpu time :  1183.7 secs   av.it.:   7.8
      thresh= 3.869E-04 alpha_mix =  0.700 |ddv_scf|^2 =  2.068E-07

      iter #   3 total cpu time :  1199.1 secs   av.it.:   8.0
      thresh= 4.548E-05 alpha_mix =  0.700 |ddv_scf|^2 =  8.997E-09

      iter #   4 total cpu time :  1213.7 secs   av.it.:   7.7
      thresh= 9.485E-06 alpha_mix =  0.700 |ddv_scf|^2 =  7.181E-11

      iter #   5 total cpu time :  1228.5 secs   av.it.:   7.5
      thresh= 8.474E-07 alpha_mix =  0.700 |ddv_scf|^2 =  7.091E-14

      iter #   6 total cpu time :  1242.5 secs   av.it.:   7.4
      thresh= 2.663E-08 alpha_mix =  0.700 |ddv_scf|^2 =  3.314E-15

      iter #   7 total cpu time :  1257.0 secs   av.it.:   7.5
      thresh= 5.757E-09 alpha_mix =  0.700 |ddv_scf|^2 =  1.161E-17

     End of self-consistent calculation

     Convergence has been achieved 

     Number of q in the star =   24
     List of q in the star:
          1  -0.166666667  -0.166666667   0.333333333
          2  -0.166666667  -0.333333333   0.166666667
          3   0.166666667  -0.333333333   0.166666667
          4  -0.166666667   0.333333333  -0.166666667
          5   0.166666667   0.333333333  -0.166666667
          6   0.166666667   0.166666667  -0.333333333
          7  -0.166666667   0.166666667  -0.333333333
          8   0.333333333   0.166666667  -0.166666667
          9  -0.333333333   0.166666667   0.166666667
         10   0.333333333  -0.166666667   0.166666667
         11  -0.333333333  -0.166666667  -0.166666667
         12  -0.166666667  -0.166666667  -0.333333333
         13  -0.166666667   0.333333333   0.166666667
         14  -0.166666667  -0.333333333  -0.166666667
         15  -0.166666667   0.166666667   0.333333333
         16   0.166666667  -0.166666667   0.333333333
         17   0.166666667  -0.333333333  -0.166666667
         18  -0.333333333   0.166666667  -0.166666667
         19   0.333333333   0.166666667   0.166666667
         20  -0.333333333  -0.166666667   0.166666667
         21   0.333333333  -0.166666667  -0.166666667
         22   0.166666667  -0.166666667  -0.333333333
         23   0.166666667   0.166666667   0.333333333
         24   0.166666667   0.333333333   0.166666667

     Diagonalizing the dynamical matrix

     q = (   -0.166666667  -0.166666667   0.333333333 ) 

 **************************************************************************
     freq (    1) =       1.656608 [THz] =      55.258502 [cm-1]
     freq (    2) =       2.674925 [THz] =      89.225908 [cm-1]
     freq (    3) =       4.506785 [THz] =     150.330170 [cm-1]
 **************************************************************************

     Mode symmetry, C_s (m)     point group:

     freq (  1 -  1) =         55.3  [cm-1]   --> A'                 
     freq (  2 -  2) =         89.2  [cm-1]   --> A''                
     freq (  3 -  3) =        150.3  [cm-1]   --> A'                 

     Calculation of q =   -0.1666667   0.6666667  -0.5000000

   Info: using nr1, nr2, nr3 values from input

   Info: using nr1, nr2, nr3 values from input

     Parallelization info
     --------------------
     sticks:   dense  smooth     PW     G-vecs:    dense   smooth      PW
     Min          57      29     10                 1111      395      91
     Max          58      30     11                 1113      398      95
     Sum         921     467    173                17789     6339    1505



     bravais-lattice index     =            3
     lattice parameter (alat)  =       7.1500  a.u.
     unit-cell volume          =     182.7629 (a.u.)^3
     number of atoms/cell      =            1
     number of atomic types    =            1
     number of electrons       =         9.00
     number of Kohn-Sham states=            9
     kinetic-energy cutoff     =      40.0000  Ry
     charge density cutoff     =     320.0000  Ry
     Exchange-correlation      = SLA  PW   PBE  PBE ( 1  4  3  4 0 0)

     celldm(1)=   7.150000  celldm(2)=   0.000000  celldm(3)=   0.000000
     celldm(4)=   0.000000  celldm(5)=   0.000000  celldm(6)=   0.000000

     crystal axes: (cart. coord. in units of alat)
               a(1) = (   0.500000   0.500000   0.500000 )  
               a(2) = (  -0.500000   0.500000   0.500000 )  
               a(3) = (  -0.500000  -0.500000   0.500000 )  

     reciprocal axes: (cart. coord. in units 2 pi/alat)
               b(1) = (  1.000000  0.000000  1.000000 )  
               b(2) = ( -1.000000  1.000000  0.000000 )  
               b(3) = (  0.000000 -1.000000  1.000000 )  


     PseudoPot. # 1 for Na read from file:
     /home/s1333534/quantum_espresso/qe-6.1/pseudo/Na_pbe_v1.uspp.F.UPF
     MD5 check sum: 76a99c7e9422403d3e93cbc85ab7bccb
     Pseudo is Ultrasoft, Zval =  9.0
     Generated by new atomic code, or converted to UPF format
     Using radial grid of  819 points,  5 beta functions with: 
                l(1) =   0
                l(2) =   0
                l(3) =   1
                l(4) =   1
                l(5) =   2
     Q(r) pseudized with  8 coefficients,  rinner =    1.250   1.250   1.250
                                                       1.250   1.250

     atomic species   valence    mass     pseudopotential
        Na             9.00    22.99000     Na( 1.00)

     48 Sym. Ops., with inversion, found



   Cartesian axes

     site n.     atom                  positions (alat units)
         1           Na  tau(   1) = (   0.0000000   0.0000000   0.0000000  )

     number of k points= 16000  Marzari-Vanderbilt smearing, width (Ry)=  0.0200

     Number of k-points >= 100: set verbosity='high' to print them.

     Dense  grid:    17789 G-vectors     FFT dimensions: (  36,  36,  36)

     Smooth grid:     6339 G-vectors     FFT dimensions: (  25,  25,  25)

     Estimated max dynamical RAM per process >       0.61MB

     Estimated total allocated dynamical RAM >      39.09MB

     The potential is recalculated from file :
     ./_ph0/na.bcc.save/charge-density.dat

     Starting wfc are    5 atomic +    4 random wfc

     Band Structure Calculation
     Davidson diagonalization with overlap

     ethr =  1.11E-10,  avg # of iterations = 18.7

     total cpu time spent up to now is      513.1 secs

     End of band structure calculation

     Number of k-points >= 100: set verbosity='high' to print the bands.

     the Fermi energy is     3.1601 ev

     Writing output data file na.bcc.save

                                                                                

     bravais-lattice index     =            3
     lattice parameter (alat)  =       7.1500  a.u.
     unit-cell volume          =     182.7629 (a.u.)^3
     number of atoms/cell      =            1
     number of atomic types    =            1
     kinetic-energy cut-off    =      40.0000  Ry
     charge density cut-off    =     320.0000  Ry
     convergence threshold     =      1.0E-16
     beta                      =       0.7000
     number of iterations used =            4
     Exchange-correlation      = SLA  PW   PBE  PBE ( 1  4  3  4 0 0)


     celldm(1)=    7.15000  celldm(2)=    0.00000  celldm(3)=    0.00000
     celldm(4)=    0.00000  celldm(5)=    0.00000  celldm(6)=    0.00000

     crystal axes: (cart. coord. in units of alat)
               a(1) = (  0.5000  0.5000  0.5000 )  
               a(2) = ( -0.5000  0.5000  0.5000 )  
               a(3) = ( -0.5000 -0.5000  0.5000 )  

     reciprocal axes: (cart. coord. in units 2 pi/alat)
               b(1) = (  1.0000  0.0000  1.0000 )  
               b(2) = ( -1.0000  1.0000  0.0000 )  
               b(3) = (  0.0000 -1.0000  1.0000 )  


     Atoms inside the unit cell: 

     Cartesian axes

     site n.  atom      mass           positions (alat units)
        1     Na  22.9900   tau(    1) = (    0.00000    0.00000    0.00000  )

     Computing dynamical matrix for 
                    q = (  -0.1666667   0.6666667  -0.5000000 )

     No symmetry!

     G cutoff =  414.3834  (   1113 G-vectors)     FFT grid: ( 36, 36, 36)
     G cutoff =  207.1917  (    398 G-vectors)  smooth grid: ( 25, 25, 25)

     number of k points= 16000  Marzari-Vanderbilt smearing, width (Ry)=  0.0200

     PseudoPot. # 1 for Na read from file:
     /home/s1333534/quantum_espresso/qe-6.1/pseudo/Na_pbe_v1.uspp.F.UPF
     MD5 check sum: 76a99c7e9422403d3e93cbc85ab7bccb
     Pseudo is Ultrasoft, Zval =  9.0
     Generated by new atomic code, or converted to UPF format
     Using radial grid of  819 points,  5 beta functions with: 
                l(1) =   0
                l(2) =   0
                l(3) =   1
                l(4) =   1
                l(5) =   2
     Q(r) pseudized with  8 coefficients,  rinner =    1.250   1.250   1.250
                                                       1.250   1.250

     Mode symmetry, C_1 (1)     point group:


     Atomic displacements:
     There are   3 irreducible representations

     Representation     1      1 modes -A  To be done

     Representation     2      1 modes -A  To be done

     Representation     3      1 modes -A  To be done



     Alpha used in Ewald sum =   2.8000
     PHONON       : 23m 9.63s CPU    25m20.95s WALL



     Representation #  1 mode #   1

     Self-consistent Calculation

      iter #   1 total cpu time :  1546.8 secs   av.it.:   5.7
      thresh= 1.000E-02 alpha_mix =  0.700 |ddv_scf|^2 =  1.648E-05

      iter #   2 total cpu time :  1576.3 secs   av.it.:   8.0
      thresh= 4.060E-04 alpha_mix =  0.700 |ddv_scf|^2 =  1.962E-06

      iter #   3 total cpu time :  1604.4 secs   av.it.:   7.6
      thresh= 1.401E-04 alpha_mix =  0.700 |ddv_scf|^2 =  8.045E-07

      iter #   4 total cpu time :  1631.6 secs   av.it.:   7.3
      thresh= 8.969E-05 alpha_mix =  0.700 |ddv_scf|^2 =  4.605E-09

      iter #   5 total cpu time :  1660.4 secs   av.it.:   7.8
      thresh= 6.786E-06 alpha_mix =  0.700 |ddv_scf|^2 =  3.678E-10

      iter #   6 total cpu time :  1689.2 secs   av.it.:   7.9
      thresh= 1.918E-06 alpha_mix =  0.700 |ddv_scf|^2 =  4.941E-12

      iter #   7 total cpu time :  1719.2 secs   av.it.:   8.3
      thresh= 2.223E-07 alpha_mix =  0.700 |ddv_scf|^2 =  3.009E-13

      iter #   8 total cpu time :  1750.1 secs   av.it.:   8.4
      thresh= 5.485E-08 alpha_mix =  0.700 |ddv_scf|^2 =  1.416E-14

      iter #   9 total cpu time :  1780.1 secs   av.it.:   8.3
      thresh= 1.190E-08 alpha_mix =  0.700 |ddv_scf|^2 =  3.427E-16

      iter #  10 total cpu time :  1808.6 secs   av.it.:   7.5
      thresh= 1.851E-09 alpha_mix =  0.700 |ddv_scf|^2 =  1.321E-16

      iter #  11 total cpu time :  1835.9 secs   av.it.:   7.4
      thresh= 1.149E-09 alpha_mix =  0.700 |ddv_scf|^2 =  2.167E-18

     End of self-consistent calculation

     Convergence has been achieved 


     Representation #  2 mode #   2

     Self-consistent Calculation

      iter #   1 total cpu time :  1862.4 secs   av.it.:   5.8
      thresh= 1.000E-02 alpha_mix =  0.700 |ddv_scf|^2 =  7.139E-05

      iter #   2 total cpu time :  1890.6 secs   av.it.:   7.5
      thresh= 8.449E-04 alpha_mix =  0.700 |ddv_scf|^2 =  5.731E-05

      iter #   3 total cpu time :  1917.0 secs   av.it.:   7.0
      thresh= 7.570E-04 alpha_mix =  0.700 |ddv_scf|^2 =  1.017E-07

      iter #   4 total cpu time :  1946.6 secs   av.it.:   8.3
      thresh= 3.189E-05 alpha_mix =  0.700 |ddv_scf|^2 =  3.981E-09

      iter #   5 total cpu time :  1976.4 secs   av.it.:   8.4
      thresh= 6.309E-06 alpha_mix =  0.700 |ddv_scf|^2 =  4.024E-10

      iter #   6 total cpu time :  2006.1 secs   av.it.:   8.2
      thresh= 2.006E-06 alpha_mix =  0.700 |ddv_scf|^2 =  9.476E-12

      iter #   7 total cpu time :  2035.0 secs   av.it.:   7.8
      thresh= 3.078E-07 alpha_mix =  0.700 |ddv_scf|^2 =  6.971E-13

      iter #   8 total cpu time :  2064.2 secs   av.it.:   7.9
      thresh= 8.350E-08 alpha_mix =  0.700 |ddv_scf|^2 =  2.909E-14

      iter #   9 total cpu time :  2092.3 secs   av.it.:   7.5
      thresh= 1.706E-08 alpha_mix =  0.700 |ddv_scf|^2 =  1.577E-15

      iter #  10 total cpu time :  2120.5 secs   av.it.:   7.6
      thresh= 3.971E-09 alpha_mix =  0.700 |ddv_scf|^2 =  3.170E-17

     End of self-consistent calculation

     Convergence has been achieved 


     Representation #  3 mode #   3

     Self-consistent Calculation

      iter #   1 total cpu time :  2147.3 secs   av.it.:   5.8
      thresh= 1.000E-02 alpha_mix =  0.700 |ddv_scf|^2 =  8.005E-05

      iter #   2 total cpu time :  2175.7 secs   av.it.:   7.4
      thresh= 8.947E-04 alpha_mix =  0.700 |ddv_scf|^2 =  5.783E-05

      iter #   3 total cpu time :  2202.4 secs   av.it.:   7.0
      thresh= 7.605E-04 alpha_mix =  0.700 |ddv_scf|^2 =  3.609E-07

      iter #   4 total cpu time :  2230.7 secs   av.it.:   7.8
      thresh= 6.008E-05 alpha_mix =  0.700 |ddv_scf|^2 =  8.651E-09

      iter #   5 total cpu time :  2260.6 secs   av.it.:   8.3
      thresh= 9.301E-06 alpha_mix =  0.700 |ddv_scf|^2 =  2.380E-10

      iter #   6 total cpu time :  2289.8 secs   av.it.:   8.3
      thresh= 1.543E-06 alpha_mix =  0.700 |ddv_scf|^2 =  1.931E-11

      iter #   7 total cpu time :  2319.3 secs   av.it.:   8.2
      thresh= 4.394E-07 alpha_mix =  0.700 |ddv_scf|^2 =  9.396E-13

      iter #   8 total cpu time :  2349.4 secs   av.it.:   8.3
      thresh= 9.693E-08 alpha_mix =  0.700 |ddv_scf|^2 =  5.840E-14

      iter #   9 total cpu time :  2377.6 secs   av.it.:   7.4
      thresh= 2.417E-08 alpha_mix =  0.700 |ddv_scf|^2 =  3.635E-15

      iter #  10 total cpu time :  2406.9 secs   av.it.:   7.8
      thresh= 6.029E-09 alpha_mix =  0.700 |ddv_scf|^2 =  5.508E-17

     End of self-consistent calculation

     Convergence has been achieved 

     Number of q in the star =   48
     List of q in the star:
          1  -0.166666667   0.666666667  -0.500000000
          2   0.666666667  -0.166666667  -0.500000000
          3  -0.166666667   0.500000000  -0.666666667
          4   0.166666667   0.500000000  -0.666666667
          5  -0.166666667  -0.500000000   0.666666667
          6   0.166666667  -0.500000000   0.666666667
          7   0.166666667  -0.666666667   0.500000000
          8  -0.166666667  -0.666666667   0.500000000
          9  -0.500000000  -0.666666667  -0.166666667
         10   0.500000000  -0.666666667   0.166666667
         11  -0.500000000   0.666666667   0.166666667
         12   0.500000000   0.666666667  -0.166666667
         13   0.666666667  -0.166666667   0.500000000
         14   0.666666667  -0.500000000  -0.166666667
         15  -0.166666667  -0.500000000  -0.666666667
         16  -0.166666667   0.500000000   0.666666667
         17   0.666666667   0.166666667  -0.500000000
         18   0.166666667   0.666666667  -0.500000000
         19   0.666666667   0.500000000   0.166666667
         20  -0.666666667   0.500000000  -0.166666667
         21   0.500000000   0.166666667   0.666666667
         22  -0.500000000   0.166666667  -0.666666667
         23   0.500000000   0.666666667   0.166666667
         24   0.500000000  -0.166666667  -0.666666667
         25  -0.666666667   0.166666667   0.500000000
         26  -0.166666667   0.666666667   0.500000000
         27  -0.500000000  -0.166666667   0.666666667
         28   0.166666667   0.666666667   0.500000000
         29  -0.500000000   0.666666667  -0.166666667
         30  -0.666666667  -0.166666667  -0.500000000
         31  -0.666666667  -0.166666667   0.500000000
         32   0.666666667   0.166666667   0.500000000
         33   0.166666667  -0.666666667  -0.500000000
         34  -0.666666667   0.166666667  -0.500000000
         35   0.500000000  -0.666666667  -0.166666667
         36  -0.500000000  -0.666666667   0.166666667
         37  -0.166666667  -0.666666667  -0.500000000
         38  -0.666666667  -0.500000000   0.166666667
         39   0.166666667   0.500000000   0.666666667
         40   0.166666667  -0.500000000  -0.666666667
         41  -0.666666667   0.500000000   0.166666667
         42   0.666666667   0.500000000  -0.166666667
         43  -0.666666667  -0.500000000  -0.166666667
         44   0.666666667  -0.500000000   0.166666667
         45   0.500000000   0.166666667  -0.666666667
         46   0.500000000  -0.166666667   0.666666667
         47  -0.500000000  -0.166666667  -0.666666667
         48  -0.500000000   0.166666667   0.666666667

     Diagonalizing the dynamical matrix

     q = (   -0.166666667   0.666666667  -0.500000000 ) 

 **************************************************************************
     freq (    1) =       2.025562 [THz] =      67.565461 [cm-1]
     freq (    2) =       3.752983 [THz] =     125.186052 [cm-1]
     freq (    3) =       5.600373 [THz] =     186.808342 [cm-1]
 **************************************************************************

     Mode symmetry, C_1 (1)     point group:

     freq (  1 -  1) =         67.6  [cm-1]   --> A                  
     freq (  2 -  2) =        125.2  [cm-1]   --> A                  
     freq (  3 -  3) =        186.8  [cm-1]   --> A                  

     Calculation of q =   -0.3333333   0.6666667  -0.3333333

   Info: using nr1, nr2, nr3 values from input

   Info: using nr1, nr2, nr3 values from input

     Parallelization info
     --------------------
     sticks:   dense  smooth     PW     G-vecs:    dense   smooth      PW
     Min          57      29     10                 1111      395      91
     Max          58      30     11                 1113      398      95
     Sum         921     467    173                17789     6339    1505



     bravais-lattice index     =            3
     lattice parameter (alat)  =       7.1500  a.u.
     unit-cell volume          =     182.7629 (a.u.)^3
     number of atoms/cell      =            1
     number of atomic types    =            1
     number of electrons       =         9.00
     number of Kohn-Sham states=            9
     kinetic-energy cutoff     =      40.0000  Ry
     charge density cutoff     =     320.0000  Ry
     Exchange-correlation      = SLA  PW   PBE  PBE ( 1  4  3  4 0 0)

     celldm(1)=   7.150000  celldm(2)=   0.000000  celldm(3)=   0.000000
     celldm(4)=   0.000000  celldm(5)=   0.000000  celldm(6)=   0.000000

     crystal axes: (cart. coord. in units of alat)
               a(1) = (   0.500000   0.500000   0.500000 )  
               a(2) = (  -0.500000   0.500000   0.500000 )  
               a(3) = (  -0.500000  -0.500000   0.500000 )  

     reciprocal axes: (cart. coord. in units 2 pi/alat)
               b(1) = (  1.000000  0.000000  1.000000 )  
               b(2) = ( -1.000000  1.000000  0.000000 )  
               b(3) = (  0.000000 -1.000000  1.000000 )  


     PseudoPot. # 1 for Na read from file:
     /home/s1333534/quantum_espresso/qe-6.1/pseudo/Na_pbe_v1.uspp.F.UPF
     MD5 check sum: 76a99c7e9422403d3e93cbc85ab7bccb
     Pseudo is Ultrasoft, Zval =  9.0
     Generated by new atomic code, or converted to UPF format
     Using radial grid of  819 points,  5 beta functions with: 
                l(1) =   0
                l(2) =   0
                l(3) =   1
                l(4) =   1
                l(5) =   2
     Q(r) pseudized with  8 coefficients,  rinner =    1.250   1.250   1.250
                                                       1.250   1.250

     atomic species   valence    mass     pseudopotential
        Na             9.00    22.99000     Na( 1.00)

     48 Sym. Ops., with inversion, found



   Cartesian axes

     site n.     atom                  positions (alat units)
         1           Na  tau(   1) = (   0.0000000   0.0000000   0.0000000  )

     number of k points=  3080  Marzari-Vanderbilt smearing, width (Ry)=  0.0200

     Number of k-points >= 100: set verbosity='high' to print them.

     Dense  grid:    17789 G-vectors     FFT dimensions: (  36,  36,  36)

     Smooth grid:     6339 G-vectors     FFT dimensions: (  25,  25,  25)

     Estimated max dynamical RAM per process >       0.61MB

     Estimated total allocated dynamical RAM >      39.09MB

     The potential is recalculated from file :
     ./_ph0/na.bcc.save/charge-density.dat

     Starting wfc are    5 atomic +    4 random wfc

     Band Structure Calculation
     Davidson diagonalization with overlap

     ethr =  1.11E-10,  avg # of iterations = 19.0

     total cpu time spent up to now is      599.2 secs

     End of band structure calculation

     Number of k-points >= 100: set verbosity='high' to print the bands.

     the Fermi energy is     3.1601 ev

     Writing output data file na.bcc.save

                                                                                

     bravais-lattice index     =            3
     lattice parameter (alat)  =       7.1500  a.u.
     unit-cell volume          =     182.7629 (a.u.)^3
     number of atoms/cell      =            1
     number of atomic types    =            1
     kinetic-energy cut-off    =      40.0000  Ry
     charge density cut-off    =     320.0000  Ry
     convergence threshold     =      1.0E-16
     beta                      =       0.7000
     number of iterations used =            4
     Exchange-correlation      = SLA  PW   PBE  PBE ( 1  4  3  4 0 0)


     celldm(1)=    7.15000  celldm(2)=    0.00000  celldm(3)=    0.00000
     celldm(4)=    0.00000  celldm(5)=    0.00000  celldm(6)=    0.00000

     crystal axes: (cart. coord. in units of alat)
               a(1) = (  0.5000  0.5000  0.5000 )  
               a(2) = ( -0.5000  0.5000  0.5000 )  
               a(3) = ( -0.5000 -0.5000  0.5000 )  

     reciprocal axes: (cart. coord. in units 2 pi/alat)
               b(1) = (  1.0000  0.0000  1.0000 )  
               b(2) = ( -1.0000  1.0000  0.0000 )  
               b(3) = (  0.0000 -1.0000  1.0000 )  


     Atoms inside the unit cell: 

     Cartesian axes

     site n.  atom      mass           positions (alat units)
        1     Na  22.9900   tau(    1) = (    0.00000    0.00000    0.00000  )

     Computing dynamical matrix for 
                    q = (  -0.3333333   0.6666667  -0.3333333 )

      6 Sym.Ops. (no q -> -q+G )


     G cutoff =  414.3834  (   1113 G-vectors)     FFT grid: ( 36, 36, 36)
     G cutoff =  207.1917  (    398 G-vectors)  smooth grid: ( 25, 25, 25)

     number of k points=  3080  Marzari-Vanderbilt smearing, width (Ry)=  0.0200

     PseudoPot. # 1 for Na read from file:
     /home/s1333534/quantum_espresso/qe-6.1/pseudo/Na_pbe_v1.uspp.F.UPF
     MD5 check sum: 76a99c7e9422403d3e93cbc85ab7bccb
     Pseudo is Ultrasoft, Zval =  9.0
     Generated by new atomic code, or converted to UPF format
     Using radial grid of  819 points,  5 beta functions with: 
                l(1) =   0
                l(2) =   0
                l(3) =   1
                l(4) =   1
                l(5) =   2
     Q(r) pseudized with  8 coefficients,  rinner =    1.250   1.250   1.250
                                                       1.250   1.250

     Mode symmetry, C_3v (3m)   point group:


     Atomic displacements:
     There are   2 irreducible representations

     Representation     1      1 modes -A_1  L_1  To be done

     Representation     2      2 modes -E    L_3  To be done



     Alpha used in Ewald sum =   2.8000
     PHONON       : 37m12.82s CPU    41m 0.17s WALL



     Representation #  1 mode #   1

     Self-consistent Calculation

      iter #   1 total cpu time :  2465.3 secs   av.it.:   5.4
      thresh= 1.000E-02 alpha_mix =  0.700 |ddv_scf|^2 =  1.393E-05

      iter #   2 total cpu time :  2471.8 secs   av.it.:   7.7
      thresh= 3.733E-04 alpha_mix =  0.700 |ddv_scf|^2 =  2.207E-07

      iter #   3 total cpu time :  2477.5 secs   av.it.:   8.0
      thresh= 4.698E-05 alpha_mix =  0.700 |ddv_scf|^2 =  7.691E-09

      iter #   4 total cpu time :  2482.7 secs   av.it.:   7.6
      thresh= 8.770E-06 alpha_mix =  0.700 |ddv_scf|^2 =  1.883E-10

      iter #   5 total cpu time :  2488.4 secs   av.it.:   7.6
      thresh= 1.372E-06 alpha_mix =  0.700 |ddv_scf|^2 =  4.326E-12

      iter #   6 total cpu time :  2493.9 secs   av.it.:   8.1
      thresh= 2.080E-07 alpha_mix =  0.700 |ddv_scf|^2 =  3.901E-13

      iter #   7 total cpu time :  2499.4 secs   av.it.:   8.1
      thresh= 6.246E-08 alpha_mix =  0.700 |ddv_scf|^2 =  5.599E-15

      iter #   8 total cpu time :  2505.1 secs   av.it.:   8.0
      thresh= 7.483E-09 alpha_mix =  0.700 |ddv_scf|^2 =  5.897E-17

     End of self-consistent calculation

     Convergence has been achieved 


     Representation #  2 modes #   2  3

     Self-consistent Calculation

      iter #   1 total cpu time :  2514.9 secs   av.it.:   5.7
      thresh= 1.000E-02 alpha_mix =  0.700 |ddv_scf|^2 =  1.127E-05

      iter #   2 total cpu time :  2526.5 secs   av.it.:   8.2
      thresh= 3.357E-04 alpha_mix =  0.700 |ddv_scf|^2 =  1.256E-06

      iter #   3 total cpu time :  2537.6 secs   av.it.:   7.7
      thresh= 1.121E-04 alpha_mix =  0.700 |ddv_scf|^2 =  9.914E-09

      iter #   4 total cpu time :  2549.6 secs   av.it.:   8.6
      thresh= 9.957E-06 alpha_mix =  0.700 |ddv_scf|^2 =  6.787E-11

      iter #   5 total cpu time :  2560.4 secs   av.it.:   7.8
      thresh= 8.238E-07 alpha_mix =  0.700 |ddv_scf|^2 =  8.321E-14

      iter #   6 total cpu time :  2572.1 secs   av.it.:   8.0
      thresh= 2.885E-08 alpha_mix =  0.700 |ddv_scf|^2 =  4.745E-15

      iter #   7 total cpu time :  2583.2 secs   av.it.:   8.1
      thresh= 6.888E-09 alpha_mix =  0.700 |ddv_scf|^2 =  1.138E-17

     End of self-consistent calculation

     Convergence has been achieved 

     Number of q in the star =    8
     List of q in the star:
          1  -0.333333333   0.666666667  -0.333333333
          2   0.333333333  -0.666666667   0.333333333
          3  -0.333333333  -0.666666667   0.333333333
          4  -0.333333333  -0.666666667  -0.333333333
          5  -0.333333333   0.666666667   0.333333333
          6   0.333333333   0.666666667  -0.333333333
          7  -0.666666667   0.333333333  -0.333333333
          8   0.333333333   0.666666667   0.333333333

     Diagonalizing the dynamical matrix

     q = (   -0.333333333   0.666666667  -0.333333333 ) 

 **************************************************************************
     freq (    1) =       2.352310 [THz] =      78.464621 [cm-1]
     freq (    2) =       5.060536 [THz] =     168.801324 [cm-1]
     freq (    3) =       5.060536 [THz] =     168.801324 [cm-1]
 **************************************************************************

     Mode symmetry, C_3v (3m)   point group:

     freq (  1 -  1) =         78.5  [cm-1]   --> A_1  L_1           
     freq (  2 -  3) =        168.8  [cm-1]   --> E    L_3           

     Calculation of q =    0.0000000   0.0000000   0.3333333

   Info: using nr1, nr2, nr3 values from input

   Info: using nr1, nr2, nr3 values from input

     Parallelization info
     --------------------
     sticks:   dense  smooth     PW     G-vecs:    dense   smooth      PW
     Min          57      29      9                 1111      395      76
     Max          58      30     10                 1113      398      79
     Sum         921     467    159                17789     6339    1253



     bravais-lattice index     =            3
     lattice parameter (alat)  =       7.1500  a.u.
     unit-cell volume          =     182.7629 (a.u.)^3
     number of atoms/cell      =            1
     number of atomic types    =            1
     number of electrons       =         9.00
     number of Kohn-Sham states=            9
     kinetic-energy cutoff     =      40.0000  Ry
     charge density cutoff     =     320.0000  Ry
     Exchange-correlation      = SLA  PW   PBE  PBE ( 1  4  3  4 0 0)

     celldm(1)=   7.150000  celldm(2)=   0.000000  celldm(3)=   0.000000
     celldm(4)=   0.000000  celldm(5)=   0.000000  celldm(6)=   0.000000

     crystal axes: (cart. coord. in units of alat)
               a(1) = (   0.500000   0.500000   0.500000 )  
[...]

     PseudoPot. # 1 for Na read from file:
     /home/s1333534/quantum_espresso/qe-6.1/pseudo/Na_pbe_v1.uspp.F.UPF
     MD5 check sum: 76a99c7e9422403d3e93cbc85ab7bccb
     Pseudo is Ultrasoft, Zval =  9.0
     Generated by new atomic code, or converted to UPF format
     Using radial grid of  819 points,  5 beta functions with: 
                l(1) =   0
                l(2) =   0
                l(3) =   1
                l(4) =   1
                l(5) =   2
     Q(r) pseudized with  8 coefficients,  rinner =    1.250   1.250   1.250
                                                       1.250   1.250

     Mode symmetry, C_2v (mm2)  point group:


     Atomic displacements:
     There are   3 irreducible representations

     Representation     1      1 modes -A_1  D_1  S_1  To be done

     Representation     2      1 modes -B_1  D_3  S_3  To be done

     Representation     3      1 modes -B_2  D_4  S_4  To be done



     Alpha used in Ewald sum =   2.8000
     PHONON       :     1h12m CPU        1h19m WALL



     Representation #  1 mode #   1

     Self-consistent Calculation

      iter #   1 total cpu time :  4764.3 secs   av.it.:   5.7
      thresh= 1.000E-02 alpha_mix =  0.700 |ddv_scf|^2 =  2.499E-05

      iter #   2 total cpu time :  4772.6 secs   av.it.:   7.8
      thresh= 4.999E-04 alpha_mix =  0.700 |ddv_scf|^2 =  1.025E-06

      iter #   3 total cpu time :  4780.3 secs   av.it.:   7.7
      thresh= 1.012E-04 alpha_mix =  0.700 |ddv_scf|^2 =  2.347E-08

      iter #   4 total cpu time :  4788.3 secs   av.it.:   8.1
      thresh= 1.532E-05 alpha_mix =  0.700 |ddv_scf|^2 =  1.507E-09

      iter #   5 total cpu time :  4796.2 secs   av.it.:   8.1
      thresh= 3.882E-06 alpha_mix =  0.700 |ddv_scf|^2 =  1.321E-10

      iter #   6 total cpu time :  4804.2 secs   av.it.:   7.9
      thresh= 1.149E-06 alpha_mix =  0.700 |ddv_scf|^2 =  4.874E-13

      iter #   7 total cpu time :  4812.1 secs   av.it.:   7.8
      thresh= 6.981E-08 alpha_mix =  0.700 |ddv_scf|^2 =  3.839E-14

      iter #   8 total cpu time :  4819.9 secs   av.it.:   7.8
      thresh= 1.959E-08 alpha_mix =  0.700 |ddv_scf|^2 =  1.412E-16

      iter #   9 total cpu time :  4828.0 secs   av.it.:   8.0
      thresh= 1.188E-09 alpha_mix =  0.700 |ddv_scf|^2 =  5.881E-18

     End of self-consistent calculation

     Convergence has been achieved 


     Representation #  2 mode #   2

     Self-consistent Calculation

      iter #   1 total cpu time :  4835.5 secs   av.it.:   5.5
      thresh= 1.000E-02 alpha_mix =  0.700 |ddv_scf|^2 =  2.142E-05

      iter #   2 total cpu time :  4843.3 secs   av.it.:   7.6
      thresh= 4.628E-04 alpha_mix =  0.700 |ddv_scf|^2 =  2.299E-07

      iter #   3 total cpu time :  4851.3 secs   av.it.:   7.6
      thresh= 4.795E-05 alpha_mix =  0.700 |ddv_scf|^2 =  2.160E-08

      iter #   4 total cpu time :  4859.3 secs   av.it.:   7.7
      thresh= 1.470E-05 alpha_mix =  0.700 |ddv_scf|^2 =  9.759E-11

      iter #   5 total cpu time :  4867.5 secs   av.it.:   7.5
      thresh= 9.879E-07 alpha_mix =  0.700 |ddv_scf|^2 =  4.299E-14

      iter #   6 total cpu time :  4874.7 secs   av.it.:   7.0
      thresh= 2.073E-08 alpha_mix =  0.700 |ddv_scf|^2 =  2.845E-15

      iter #   7 total cpu time :  4882.3 secs   av.it.:   7.4
      thresh= 5.334E-09 alpha_mix =  0.700 |ddv_scf|^2 =  4.083E-18

     End of self-consistent calculation

     Convergence has been achieved 


     Representation #  3 mode #   3

     Self-consistent Calculation

      iter #   1 total cpu time :  4889.8 secs   av.it.:   5.7
      thresh= 1.000E-02 alpha_mix =  0.700 |ddv_scf|^2 =  3.708E-05

      iter #   2 total cpu time :  4897.5 secs   av.it.:   7.5
      thresh= 6.090E-04 alpha_mix =  0.700 |ddv_scf|^2 =  2.497E-06

      iter #   3 total cpu time :  4905.0 secs   av.it.:   7.4
      thresh= 1.580E-04 alpha_mix =  0.700 |ddv_scf|^2 =  3.335E-08

      iter #   4 total cpu time :  4912.9 secs   av.it.:   7.8
      thresh= 1.826E-05 alpha_mix =  0.700 |ddv_scf|^2 =  9.788E-10

      iter #   5 total cpu time :  4920.4 secs   av.it.:   7.4
      thresh= 3.129E-06 alpha_mix =  0.700 |ddv_scf|^2 =  1.872E-12

      iter #   6 total cpu time :  4928.2 secs   av.it.:   7.9
      thresh= 1.368E-07 alpha_mix =  0.700 |ddv_scf|^2 =  1.188E-14

      iter #   7 total cpu time :  4936.1 secs   av.it.:   7.8
      thresh= 1.090E-08 alpha_mix =  0.700 |ddv_scf|^2 =  2.075E-16

      iter #   8 total cpu time :  4943.7 secs   av.it.:   7.5
      thresh= 1.440E-09 alpha_mix =  0.700 |ddv_scf|^2 =  4.550E-19

     End of self-consistent calculation

     Convergence has been achieved 

     Number of q in the star =   12
     List of q in the star:
          1   0.000000000   0.833333333  -0.166666667
          2   0.000000000  -0.833333333  -0.166666667
          3   0.833333333   0.000000000  -0.166666667
          4  -0.833333333   0.000000000  -0.166666667
          5  -0.166666667  -0.833333333   0.000000000
          6   0.166666667  -0.833333333   0.000000000
          7  -0.166666667   0.833333333   0.000000000
          8   0.166666667   0.833333333   0.000000000
          9   0.833333333   0.000000000   0.166666667
         10   0.000000000   0.166666667  -0.833333333
         11   0.000000000  -0.166666667  -0.833333333
         12   0.166666667   0.000000000  -0.833333333

     Diagonalizing the dynamical matrix

     q = (    0.000000000   0.833333333  -0.166666667 ) 

 **************************************************************************
     freq (    1) =       4.395180 [THz] =     146.607420 [cm-1]
     freq (    2) =       4.733050 [THz] =     157.877544 [cm-1]
     freq (    3) =       5.324501 [THz] =     177.606232 [cm-1]
 **************************************************************************

     Mode symmetry, C_2v (mm2)  point group:

     freq (  1 -  1) =        146.6  [cm-1]   --> A_1  D_1  S_1      
     freq (  2 -  2) =        157.9  [cm-1]   --> B_1  D_3  S_3      
     freq (  3 -  3) =        177.6  [cm-1]   --> B_2  D_4  S_4      

     Calculation of q =    0.0000000   0.0000000  -1.0000000

   Info: using nr1, nr2, nr3 values from input

   Info: using nr1, nr2, nr3 values from input

     Parallelization info
     --------------------
     sticks:   dense  smooth     PW     G-vecs:    dense   smooth      PW
     Min          57      29     10                 1111      395      90
     Max          58      30     11                 1113      398      94
     Sum         921     467    173                17789     6339    1481



     bravais-lattice index     =            3
     lattice parameter (alat)  =       7.1500  a.u.
     unit-cell volume          =     182.7629 (a.u.)^3
     number of atoms/cell      =            1
     number of atomic types    =            1
     number of electrons       =         9.00
     number of Kohn-Sham states=            9
     kinetic-energy cutoff     =      40.0000  Ry
     charge density cutoff     =     320.0000  Ry
     Exchange-correlation      = SLA  PW   PBE  PBE ( 1  4  3  4 0 0)

     celldm(1)=   7.150000  celldm(2)=   0.000000  celldm(3)=   0.000000
     celldm(4)=   0.000000  celldm(5)=   0.000000  celldm(6)=   0.000000

     crystal axes: (cart. coord. in units of alat)
               a(1) = (   0.500000   0.500000   0.500000 )  
               a(2) = (  -0.500000   0.500000   0.500000 )  
               a(3) = (  -0.500000  -0.500000   0.500000 )  

     reciprocal axes: (cart. coord. in units 2 pi/alat)
               b(1) = (  1.000000  0.000000  1.000000 )  
               b(2) = ( -1.000000  1.000000  0.000000 )  
               b(3) = (  0.000000 -1.000000  1.000000 )  


     PseudoPot. # 1 for Na read from file:
     /home/s1333534/quantum_espresso/qe-6.1/pseudo/Na_pbe_v1.uspp.F.UPF
     MD5 check sum: 76a99c7e9422403d3e93cbc85ab7bccb
     Pseudo is Ultrasoft, Zval =  9.0
     Generated by new atomic code, or converted to UPF format
     Using radial grid of  819 points,  5 beta functions with: 
                l(1) =   0
                l(2) =   0
                l(3) =   1
                l(4) =   1
                l(5) =   2
     Q(r) pseudized with  8 coefficients,  rinner =    1.250   1.250   1.250
                                                       1.250   1.250

     atomic species   valence    mass     pseudopotential
        Na             9.00    22.99000     Na( 1.00)

     48 Sym. Ops., with inversion, found



   Cartesian axes

     site n.     atom                  positions (alat units)
         1           Na  tau(   1) = (   0.0000000   0.0000000   0.0000000  )

     number of k points=   500  Marzari-Vanderbilt smearing, width (Ry)=  0.0200

     Number of k-points >= 100: set verbosity='high' to print them.

     Dense  grid:    17789 G-vectors     FFT dimensions: (  36,  36,  36)

     Smooth grid:     6339 G-vectors     FFT dimensions: (  25,  25,  25)

     Estimated max dynamical RAM per process >       0.61MB

     Estimated total allocated dynamical RAM >      39.09MB

     The potential is recalculated from file :
     ./_ph0/na.bcc.save/charge-density.dat

     Starting wfc are    5 atomic +    4 random wfc

     Band Structure Calculation
     Davidson diagonalization with overlap

     ethr =  1.11E-10,  avg # of iterations = 19.1

     total cpu time spent up to now is     1221.2 secs

     End of band structure calculation

     Number of k-points >= 100: set verbosity='high' to print the bands.

     the Fermi energy is     3.1601 ev

     Writing output data file na.bcc.save

                                                                                

     bravais-lattice index     =            3
     lattice parameter (alat)  =       7.1500  a.u.
     unit-cell volume          =     182.7629 (a.u.)^3
     number of atoms/cell      =            1
     number of atomic types    =            1
     kinetic-energy cut-off    =      40.0000  Ry
     charge density cut-off    =     320.0000  Ry
     convergence threshold     =      1.0E-16
     beta                      =       0.7000
     number of iterations used =            4
     Exchange-correlation      = SLA  PW   PBE  PBE ( 1  4  3  4 0 0)


     celldm(1)=    7.15000  celldm(2)=    0.00000  celldm(3)=    0.00000
     celldm(4)=    0.00000  celldm(5)=    0.00000  celldm(6)=    0.00000

     crystal axes: (cart. coord. in units of alat)
               a(1) = (  0.5000  0.5000  0.5000 )  
               a(2) = ( -0.5000  0.5000  0.5000 )  
               a(3) = ( -0.5000 -0.5000  0.5000 )  

     reciprocal axes: (cart. coord. in units 2 pi/alat)
               b(1) = (  1.0000  0.0000  1.0000 )  
               b(2) = ( -1.0000  1.0000  0.0000 )  
               b(3) = (  0.0000 -1.0000  1.0000 )  


     Atoms inside the unit cell: 

     Cartesian axes

     site n.  atom      mass           positions (alat units)
        1     Na  22.9900   tau(    1) = (    0.00000    0.00000    0.00000  )

     Computing dynamical matrix for 
                    q = (   0.0000000   0.0000000  -1.0000000 )

     49 Sym.Ops. (with q -> -q+G )


     G cutoff =  414.3834  (   1113 G-vectors)     FFT grid: ( 36, 36, 36)
     G cutoff =  207.1917  (    398 G-vectors)  smooth grid: ( 25, 25, 25)

     number of k points=   500  Marzari-Vanderbilt smearing, width (Ry)=  0.0200

     PseudoPot. # 1 for Na read from file:
     /home/s1333534/quantum_espresso/qe-6.1/pseudo/Na_pbe_v1.uspp.F.UPF
     MD5 check sum: 76a99c7e9422403d3e93cbc85ab7bccb
     Pseudo is Ultrasoft, Zval =  9.0
     Generated by new atomic code, or converted to UPF format
     Using radial grid of  819 points,  5 beta functions with: 
                l(1) =   0
                l(2) =   0
                l(3) =   1
                l(4) =   1
                l(5) =   2
     Q(r) pseudized with  8 coefficients,  rinner =    1.250   1.250   1.250
                                                       1.250   1.250

     Mode symmetry, O_h (m-3m)  point group:


     Atomic displacements:
     There are   1 irreducible representations

     Representation     1      3 modes -T_1u G_15  G_4-  To be done



     Alpha used in Ewald sum =   2.8000
     PHONON       :     1h14m CPU        1h22m WALL



     Representation #  1 modes #   1  2  3

     Self-consistent Calculation

      iter #   1 total cpu time :  4956.2 secs   av.it.:   5.7
      thresh= 1.000E-02 alpha_mix =  0.700 |ddv_scf|^2 =  2.665E-06

      iter #   2 total cpu time :  4959.9 secs   av.it.:   8.5
      thresh= 1.632E-04 alpha_mix =  0.700 |ddv_scf|^2 =  3.238E-08

      iter #   3 total cpu time :  4963.4 secs   av.it.:   8.4
      thresh= 1.799E-05 alpha_mix =  0.700 |ddv_scf|^2 =  2.790E-09

      iter #   4 total cpu time :  4967.2 secs   av.it.:   8.5
      thresh= 5.282E-06 alpha_mix =  0.700 |ddv_scf|^2 =  1.185E-11

      iter #   5 total cpu time :  4970.8 secs   av.it.:   8.3
      thresh= 3.443E-07 alpha_mix =  0.700 |ddv_scf|^2 =  4.000E-15

      iter #   6 total cpu time :  4974.1 secs   av.it.:   7.3
      thresh= 6.324E-09 alpha_mix =  0.700 |ddv_scf|^2 =  2.767E-16

      iter #   7 total cpu time :  4977.6 secs   av.it.:   7.9
      thresh= 1.663E-09 alpha_mix =  0.700 |ddv_scf|^2 =  1.643E-19

     End of self-consistent calculation

     Convergence has been achieved 

     Number of q in the star =    1
     List of q in the star:
          1   0.000000000   0.000000000  -1.000000000

     Diagonalizing the dynamical matrix

     q = (    0.000000000   0.000000000  -1.000000000 ) 

 **************************************************************************
     freq (    1) =       5.115257 [THz] =     170.626612 [cm-1]
     freq (    2) =       5.115257 [THz] =     170.626612 [cm-1]
     freq (    3) =       5.115257 [THz] =     170.626612 [cm-1]
 **************************************************************************

     Mode symmetry, O_h (m-3m)  point group:

     freq (  1 -  3) =        170.6  [cm-1]   --> T_1u G_15  G_4-    

     init_run     :      2.06s CPU      2.17s WALL (      15 calls)
     electrons    :    928.56s CPU    992.34s WALL (      15 calls)

     Called by init_run:
     wfcinit      :      0.00s CPU      0.00s WALL (      15 calls)
     potinit      :      0.33s CPU      0.34s WALL (      15 calls)

     Called by electrons:
     c_bands      :    928.04s CPU    991.81s WALL (      15 calls)
     v_of_rho     :      0.14s CPU      0.15s WALL (      16 calls)
     newd         :      0.12s CPU      0.12s WALL (      16 calls)

     Called by c_bands:
     init_us_2    :     20.48s CPU     22.59s WALL (  337039 calls)
     cegterg      :    722.14s CPU    779.02s WALL (   23537 calls)

     Called by sum_band:

     Called by *egterg:
     h_psi        :   2432.02s CPU   2681.88s WALL ( 3091063 calls)
     s_psi        :     83.32s CPU     93.76s WALL ( 6041493 calls)
     g_psi        :      2.38s CPU      2.59s WALL (  360651 calls)
     cdiaghg      :    236.91s CPU    253.96s WALL (  379913 calls)

     Called by h_psi:
     h_psi:pot    :   2410.88s CPU   2658.14s WALL ( 3091063 calls)
     h_psi:calbec :    177.74s CPU    194.81s WALL ( 3091063 calls)
     vloc_psi     :   2155.07s CPU   2376.97s WALL ( 3091063 calls)
     add_vuspsi   :     45.11s CPU     50.52s WALL ( 3091063 calls)

     General routines
     calbec       :    333.48s CPU    367.15s WALL ( 6585247 calls)
     fft          :      3.27s CPU      3.79s WALL (    6361 calls)
     ffts         :      3.36s CPU      3.72s WALL (   30431 calls)
     fftw         :   2340.87s CPU   2597.82s WALL (29814578 calls)
     interpolate  :      0.55s CPU      0.67s WALL (     872 calls)
     davcio       :     31.04s CPU     52.77s WALL ( 1372216 calls)

     Parallel routines
     fft_scatter  :   1311.33s CPU   1452.52s WALL (29851370 calls)

     PHONON       :     1h15m CPU        1h22m WALL

     INITIALIZATION: 
     phq_setup    :      0.61s CPU      0.76s WALL (      16 calls)
     phq_init     :     51.46s CPU     55.05s WALL (      16 calls)

     phq_init     :     51.46s CPU     55.05s WALL (      16 calls)
     init_vloc    :      0.10s CPU      0.10s WALL (      16 calls)
     init_us_1    :      1.11s CPU      1.19s WALL (      16 calls)
     newd         :      0.12s CPU      0.12s WALL (      16 calls)
     dvanqq       :      0.50s CPU      0.53s WALL (      16 calls)
     drho         :     38.12s CPU     40.90s WALL (      16 calls)

     DYNAMICAL MATRIX:
     dynmat0      :      8.52s CPU      8.93s WALL (      16 calls)
     phqscf       :   3307.73s CPU   3695.39s WALL (      16 calls)
     dynmatrix    :      0.09s CPU      0.10s WALL (      16 calls)

     phqscf       :   3307.73s CPU   3695.39s WALL (      16 calls)
     solve_linter :   3294.49s CPU   3680.90s WALL (      40 calls)
     drhodv       :     13.01s CPU     14.02s WALL (      40 calls)

     dynmat0      :      8.52s CPU      8.93s WALL (      16 calls)
     dynmat_us    :      8.46s CPU      8.85s WALL (      16 calls)
     d2ionq       :      0.02s CPU      0.02s WALL (      16 calls)

     dynmat_us    :      8.46s CPU      8.85s WALL (      16 calls)
     addusdynmat  :      0.00s CPU      0.00s WALL (      16 calls)

     phqscf       :   3307.73s CPU   3695.39s WALL (      16 calls)
     solve_linter :   3294.49s CPU   3680.90s WALL (      40 calls)

     solve_linter :   3294.49s CPU   3680.90s WALL (      40 calls)
     dvqpsi_us    :     61.72s CPU     67.26s WALL (   29082 calls)
     ortho        :     49.58s CPU     54.29s WALL (  262817 calls)
     cgsolve      :   2603.07s CPU   2887.36s WALL (  262817 calls)
     incdrhoscf   :    240.73s CPU    282.27s WALL (  262817 calls)
     addusddens   :      3.68s CPU      3.75s WALL (     382 calls)
     vpsifft      :    192.28s CPU    213.12s WALL (  233735 calls)
     dv_of_drho   :      2.49s CPU      2.88s WALL (     396 calls)
     mix_pot      :      0.50s CPU      2.56s WALL (     342 calls)
     ef_shift     :      0.04s CPU      0.05s WALL (       7 calls)
     localdos     :      0.06s CPU      0.07s WALL (       1 calls)
     psymdvscf    :     20.90s CPU     21.36s WALL (     311 calls)
     newdq        :      3.64s CPU      3.68s WALL (     342 calls)
     adddvscf     :     13.32s CPU     14.68s WALL (  233735 calls)
     drhodvus     :      0.05s CPU      0.05s WALL (      40 calls)

     dvqpsi_us    :     61.72s CPU     67.26s WALL (   29082 calls)
     dvqpsi_us_on :     13.33s CPU     14.21s WALL (   29082 calls)

     cgsolve      :   2603.07s CPU   2887.36s WALL (  262817 calls)
     ch_psi       :   2421.98s CPU   2685.73s WALL ( 2687613 calls)

     ch_psi       :   2421.98s CPU   2685.73s WALL ( 2687613 calls)
     h_psi        :   2432.02s CPU   2681.88s WALL ( 3091063 calls)
     last         :    312.22s CPU    346.44s WALL ( 2687613 calls)

     h_psi        :   2432.02s CPU   2681.88s WALL ( 3091063 calls)
     add_vuspsi   :     45.11s CPU     50.52s WALL ( 3091063 calls)

     incdrhoscf   :    240.73s CPU    282.27s WALL (  262817 calls)
     addusdbec    :     23.66s CPU     25.88s WALL (  291899 calls)

     drhodvus     :      0.05s CPU      0.05s WALL (      40 calls)

      General routines
     calbec       :    333.48s CPU    367.15s WALL ( 6585247 calls)
     fft          :      3.27s CPU      3.79s WALL (    6361 calls)
     ffts         :      3.36s CPU      3.72s WALL (   30431 calls)
     fftw         :   2340.87s CPU   2597.82s WALL (29814578 calls)
     davcio       :     31.04s CPU     52.77s WALL ( 1372216 calls)
     write_rec    :      1.42s CPU      4.77s WALL (     382 calls)


     PHONON       :     1h15m CPU        1h22m WALL


   This run was terminated on:   4: 9:54  14Feb2018            

=------------------------------------------------------------------------------=
   JOB DONE.
=------------------------------------------------------------------------------=
