
     Program PHONON v.6.1 (svn rev. 13369) starts on 21Dec2017 at 11:53:40 

     This program is part of the open-source Quantum ESPRESSO suite
     for quantum simulation of materials; please cite
         "P. Giannozzi et al., J. Phys.:Condens. Matter 21 395502 (2009);
          URL http://www.quantum-espresso.org", 
     in publications or presentations arising from this work. More details at
     http://www.quantum-espresso.org/quote

     Parallel version (MPI), running on     4 processors
     R & G space division:  proc/nbgrp/npool/nimage =       4

     Reading data from directory:
     ./na.bcc.save

   Info: using nr1, nr2, nr3 values from input

   Info: using nr1, nr2, nr3 values from input

     IMPORTANT: XC functional enforced from input :
     Exchange-correlation      = SLA  PW   PBE  PBE ( 1  4  3  4 0 0)
     Any further DFT definition will be discarded
     Please, verify this is what you really want


     Parallelization info
     --------------------
     sticks:   dense  smooth     PW     G-vecs:    dense   smooth      PW
     Min         258     130     42                 5274     1854     352
     Max         260     131     43                 5275     1855     353
     Sum        1035     523    169                21097     7419    1409



     Dynamical matrices for ( 8, 8, 8)  uniform grid of q-points
     (  29q-points):
       N         xq(1)         xq(2)         xq(3) 
       1   0.000000000   0.000000000   0.000000000
       2   0.000000000  -0.125000000   0.125000000
       3   0.000000000  -0.250000000   0.250000000
       4   0.000000000  -0.375000000   0.375000000
       5   0.000000000   0.500000000  -0.500000000
       6  -0.125000000  -0.125000000   0.250000000
       7  -0.125000000  -0.250000000   0.375000000
       8  -0.125000000   0.625000000  -0.500000000
       9  -0.250000000   0.750000000  -0.500000000
      10  -0.250000000   0.625000000  -0.375000000
      11   0.000000000   0.000000000   0.250000000
      12   0.000000000  -0.125000000   0.375000000
      13   0.000000000  -0.250000000   0.500000000
      14   0.000000000   0.625000000  -0.375000000
      15  -0.125000000  -0.125000000   0.500000000
      16  -0.125000000   0.750000000  -0.375000000
      17  -0.250000000   0.250000000   0.250000000
      18  -0.250000000   0.750000000  -0.250000000
      19   0.625000000  -0.625000000   0.250000000
      20   0.500000000  -0.500000000   0.250000000
      21   0.500000000  -0.625000000   0.375000000
      22   0.000000000   0.000000000   0.500000000
      23   0.000000000  -0.125000000   0.625000000
      24   0.000000000   0.750000000  -0.250000000
      25  -0.125000000   0.875000000  -0.250000000
      26   0.500000000  -0.500000000   0.500000000
      27   0.000000000   0.000000000   0.750000000
      28   0.000000000   0.875000000  -0.125000000
      29   0.000000000   0.000000000  -1.000000000

     Calculation of q =    0.0000000   0.0000000   0.0000000

                                                                                

     bravais-lattice index     =            3
     lattice parameter (alat)  =       7.5964  a.u.
     unit-cell volume          =     219.1768 (a.u.)^3
     number of atoms/cell      =            1
     number of atomic types    =            1
     kinetic-energy cut-off    =      40.0000  Ry
     charge density cut-off    =     320.0000  Ry
     convergence threshold     =      1.0E-12
     beta                      =       0.7000
     number of iterations used =            4
     Exchange-correlation      = SLA  PW   PBE  PBE ( 1  4  3  4 0 0)


     celldm(1)=    7.59641  celldm(2)=    0.00000  celldm(3)=    0.00000
     celldm(4)=    0.00000  celldm(5)=    0.00000  celldm(6)=    0.00000

     crystal axes: (cart. coord. in units of alat)
               a(1) = (  0.5000  0.5000  0.5000 )  
               a(2) = ( -0.5000  0.5000  0.5000 )  
               a(3) = ( -0.5000 -0.5000  0.5000 )  

     reciprocal axes: (cart. coord. in units 2 pi/alat)
               b(1) = (  1.0000  0.0000  1.0000 )  
               b(2) = ( -1.0000  1.0000  0.0000 )  
               b(3) = (  0.0000 -1.0000  1.0000 )  


     Atoms inside the unit cell: 

     Cartesian axes

     site n.  atom      mass           positions (alat units)
        1     Na  22.9900   tau(    1) = (    0.00000    0.00000    0.00000  )

     Computing dynamical matrix for 
                    q = (   0.0000000   0.0000000   0.0000000 )

     49 Sym.Ops. (with q -> -q+G )


     G cutoff =  467.7423  (   5275 G-vectors)     FFT grid: ( 40, 40, 40)
     G cutoff =  233.8711  (   1854 G-vectors)  smooth grid: ( 27, 27, 27)

     number of k points=   100  Marzari-Vanderbilt smearing, width (Ry)=  0.0200

     PseudoPot. # 1 for Na read from file:
     /home/s1333534/quantum_espresso/qe-6.1/pseudo/Na_pbe_v1.uspp.F.UPF
     MD5 check sum: 76a99c7e9422403d3e93cbc85ab7bccb
     Pseudo is Ultrasoft, Zval =  9.0
     Generated by new atomic code, or converted to UPF format
     Using radial grid of  819 points,  5 beta functions with: 
                l(1) =   0
                l(2) =   0
                l(3) =   1
                l(4) =   1
                l(5) =   2
     Q(r) pseudized with  8 coefficients,  rinner =    1.250   1.250   1.250
                                                       1.250   1.250

     Mode symmetry, O_h (m-3m)  point group:


     Atomic displacements:
     There are   1 irreducible representations

     Representation     1      3 modes -T_1u G_15  G_4-  To be done



     Alpha used in Ewald sum =   2.8000
     PHONON       :     1.08s CPU         1.12s WALL



     Representation #  1 modes #   1  2  3

     Self-consistent Calculation

     Pert. #  1: Fermi energy shift (Ry) =    -1.7647E-23    -4.5452E-37
     Pert. #  2: Fermi energy shift (Ry) =    -2.4264E-23    -1.0815E-36
     Pert. #  3: Fermi energy shift (Ry) =    -4.4116E-24    -7.8366E-38

      iter #   1 total cpu time :     4.2 secs   av.it.:   5.4
      thresh= 1.000E-02 alpha_mix =  0.700 |ddv_scf|^2 =  1.557E-06

     Pert. #  1: Fermi energy shift (Ry) =     1.6819E-23     2.9387E-39
     Pert. #  2: Fermi energy shift (Ry) =    -8.2718E-24    -2.4489E-39
     Pert. #  3: Fermi energy shift (Ry) =    -1.5716E-23     9.7958E-40

      iter #   2 total cpu time :     7.8 secs   av.it.:   8.4
      thresh= 1.248E-04 alpha_mix =  0.700 |ddv_scf|^2 =  2.952E-08

     Pert. #  1: Fermi energy shift (Ry) =     9.9262E-24    -2.1428E-40
     Pert. #  2: Fermi energy shift (Ry) =     3.2260E-23     1.3316E-39
     Pert. #  3: Fermi energy shift (Ry) =     1.7095E-23    -5.5101E-40

      iter #   3 total cpu time :    11.4 secs   av.it.:   8.5
      thresh= 1.718E-05 alpha_mix =  0.700 |ddv_scf|^2 =  4.988E-10

     Pert. #  1: Fermi energy shift (Ry) =    -1.6544E-24     1.2245E-40
     Pert. #  2: Fermi energy shift (Ry) =     2.7021E-23    -8.8162E-39
     Pert. #  3: Fermi energy shift (Ry) =    -1.8749E-23    -2.0816E-39

      iter #   4 total cpu time :    14.8 secs   av.it.:   8.0
      thresh= 2.233E-06 alpha_mix =  0.700 |ddv_scf|^2 =  1.855E-12

     Pert. #  1: Fermi energy shift (Ry) =     2.2058E-24    -1.8367E-39
     Pert. #  2: Fermi energy shift (Ry) =     9.6504E-24    -4.4693E-39
     Pert. #  3: Fermi energy shift (Ry) =    -5.5145E-24     2.4489E-40

      iter #   5 total cpu time :    18.3 secs   av.it.:   8.3
      thresh= 1.362E-07 alpha_mix =  0.700 |ddv_scf|^2 =  4.470E-15

     End of self-consistent calculation

     Convergence has been achieved 

     Number of q in the star =    1
     List of q in the star:
          1   0.000000000   0.000000000   0.000000000

     Diagonalizing the dynamical matrix

     q = (    0.000000000   0.000000000   0.000000000 ) 

 **************************************************************************
     freq (    1) =      -0.922185 [THz] =     -30.760785 [cm-1]
     freq (    2) =      -0.922185 [THz] =     -30.760785 [cm-1]
     freq (    3) =      -0.922185 [THz] =     -30.760785 [cm-1]
 **************************************************************************

     Mode symmetry, O_h (m-3m)  point group:

     freq (  1 -  3) =        -30.8  [cm-1]   --> T_1u G_15  G_4- I  

     Calculation of q =    0.0000000  -0.1250000   0.1250000

   Info: using nr1, nr2, nr3 values from input

   Info: using nr1, nr2, nr3 values from input

     Parallelization info
     --------------------
     sticks:   dense  smooth     PW     G-vecs:    dense   smooth      PW
     Min         258     130     43                 5274     1854     358
     Max         259     131     44                 5275     1855     359
     Sum        1035     523    173                21097     7419    1433



     bravais-lattice index     =            3
     lattice parameter (alat)  =       7.5964  a.u.
     unit-cell volume          =     219.1768 (a.u.)^3
     number of atoms/cell      =            1
     number of atomic types    =            1
     number of electrons       =         9.00
     number of Kohn-Sham states=            9
     kinetic-energy cutoff     =      40.0000  Ry
     charge density cutoff     =     320.0000  Ry
     Exchange-correlation      = SLA  PW   PBE  PBE ( 1  4  3  4 0 0)

     celldm(1)=   7.596406  celldm(2)=   0.000000  celldm(3)=   0.000000
     celldm(4)=   0.000000  celldm(5)=   0.000000  celldm(6)=   0.000000

     crystal axes: (cart. coord. in units of alat)
               a(1) = (   0.500000   0.500000   0.500000 )  
               a(2) = (  -0.500000   0.500000   0.500000 )  
               a(3) = (  -0.500000  -0.500000   0.500000 )  

     reciprocal axes: (cart. coord. in units 2 pi/alat)
               b(1) = (  1.000000  0.000000  1.000000 )  
               b(2) = ( -1.000000  1.000000  0.000000 )  
               b(3) = (  0.000000 -1.000000  1.000000 )  


     PseudoPot. # 1 for Na read from file:
     /home/s1333534/quantum_espresso/qe-6.1/pseudo/Na_pbe_v1.uspp.F.UPF
     MD5 check sum: 76a99c7e9422403d3e93cbc85ab7bccb
     Pseudo is Ultrasoft, Zval =  9.0
     Generated by new atomic code, or converted to UPF format
     Using radial grid of  819 points,  5 beta functions with: 
                l(1) =   0
                l(2) =   0
                l(3) =   1
                l(4) =   1
                l(5) =   2
     Q(r) pseudized with  8 coefficients,  rinner =    1.250   1.250   1.250
                                                       1.250   1.250

     atomic species   valence    mass     pseudopotential
        Na             9.00    22.99000     Na( 1.00)

     48 Sym. Ops., with inversion, found



   Cartesian axes

     site n.     atom                  positions (alat units)
         1           Na  tau(   1) = (   0.0000000   0.0000000   0.0000000  )

     number of k points=  1568  Marzari-Vanderbilt smearing, width (Ry)=  0.0200

     Number of k-points >= 100: set verbosity='high' to print them.

     Dense  grid:    21097 G-vectors     FFT dimensions: (  40,  40,  40)

     Smooth grid:     7419 G-vectors     FFT dimensions: (  27,  27,  27)

     Estimated max dynamical RAM per process >       2.07MB

     Estimated total allocated dynamical RAM >       8.29MB

     The potential is recalculated from file :
     ./_ph0/na.bcc.save/charge-density.dat

     Starting wfc are    5 atomic +    4 random wfc

     Band Structure Calculation
     Davidson diagonalization with overlap

     ethr =  1.11E-10,  avg # of iterations = 20.1

     total cpu time spent up to now is       44.7 secs

     End of band structure calculation

     Number of k-points >= 100: set verbosity='high' to print the bands.

     the Fermi energy is     2.2070 ev

     Writing output data file na.bcc.save

                                                                                

     bravais-lattice index     =            3
     lattice parameter (alat)  =       7.5964  a.u.
     unit-cell volume          =     219.1768 (a.u.)^3
     number of atoms/cell      =            1
     number of atomic types    =            1
     kinetic-energy cut-off    =      40.0000  Ry
     charge density cut-off    =     320.0000  Ry
     convergence threshold     =      1.0E-12
     beta                      =       0.7000
     number of iterations used =            4
     Exchange-correlation      = SLA  PW   PBE  PBE ( 1  4  3  4 0 0)


     celldm(1)=    7.59641  celldm(2)=    0.00000  celldm(3)=    0.00000
     celldm(4)=    0.00000  celldm(5)=    0.00000  celldm(6)=    0.00000

     crystal axes: (cart. coord. in units of alat)
               a(1) = (  0.5000  0.5000  0.5000 )  
               a(2) = ( -0.5000  0.5000  0.5000 )  
               a(3) = ( -0.5000 -0.5000  0.5000 )  

     reciprocal axes: (cart. coord. in units 2 pi/alat)
               b(1) = (  1.0000  0.0000  1.0000 )  
               b(2) = ( -1.0000  1.0000  0.0000 )  
               b(3) = (  0.0000 -1.0000  1.0000 )  


     Atoms inside the unit cell: 

     Cartesian axes

     site n.  atom      mass           positions (alat units)
        1     Na  22.9900   tau(    1) = (    0.00000    0.00000    0.00000  )

     Computing dynamical matrix for 
                    q = (   0.0000000  -0.1250000   0.1250000 )

      4 Sym.Ops. (no q -> -q+G )


     G cutoff =  467.7423  (   5274 G-vectors)     FFT grid: ( 40, 40, 40)
     G cutoff =  233.8711  (   1854 G-vectors)  smooth grid: ( 27, 27, 27)

     number of k points=  1568  Marzari-Vanderbilt smearing, width (Ry)=  0.0200

     PseudoPot. # 1 for Na read from file:
     /home/s1333534/quantum_espresso/qe-6.1/pseudo/Na_pbe_v1.uspp.F.UPF
     MD5 check sum: 76a99c7e9422403d3e93cbc85ab7bccb
     Pseudo is Ultrasoft, Zval =  9.0
     Generated by new atomic code, or converted to UPF format
     Using radial grid of  819 points,  5 beta functions with: 
                l(1) =   0
                l(2) =   0
                l(3) =   1
                l(4) =   1
                l(5) =   2
     Q(r) pseudized with  8 coefficients,  rinner =    1.250   1.250   1.250
                                                       1.250   1.250

     Mode symmetry, C_2v (mm2)  point group:


     Atomic displacements:
     There are   3 irreducible representations

     Representation     1      1 modes -A_1  D_1  S_1  To be done

     Representation     2      1 modes -B_1  D_3  S_3  To be done

     Representation     3      1 modes -B_2  D_4  S_4  To be done



     Alpha used in Ewald sum =   2.8000
     PHONON       :  1m 4.17s CPU     1m 7.44s WALL



     Representation #  1 mode #   1

     Self-consistent Calculation

      iter #   1 total cpu time :    74.6 secs   av.it.:   5.6
      thresh= 1.000E-02 alpha_mix =  0.700 |ddv_scf|^2 =  1.906E-01

      iter #   2 total cpu time :    81.9 secs   av.it.:   6.9
      thresh= 1.000E-02 alpha_mix =  0.700 |ddv_scf|^2 =  8.323E+01

      iter #   3 total cpu time :    89.5 secs   av.it.:   6.9
      thresh= 1.000E-02 alpha_mix =  0.700 |ddv_scf|^2 =  2.057E-04

      iter #   4 total cpu time :    95.6 secs   av.it.:   5.4
      thresh= 1.434E-03 alpha_mix =  0.700 |ddv_scf|^2 =  2.065E-07

      iter #   5 total cpu time :   103.2 secs   av.it.:   7.1
      thresh= 4.544E-05 alpha_mix =  0.700 |ddv_scf|^2 =  4.841E-09

      iter #   6 total cpu time :   110.7 secs   av.it.:   7.3
      thresh= 6.958E-06 alpha_mix =  0.700 |ddv_scf|^2 =  3.976E-07

      iter #   7 total cpu time :   115.6 secs   av.it.:   4.1
      thresh= 6.306E-05 alpha_mix =  0.700 |ddv_scf|^2 =  1.385E-10

      iter #   8 total cpu time :   123.4 secs   av.it.:   7.5
      thresh= 1.177E-06 alpha_mix =  0.700 |ddv_scf|^2 =  2.144E-12

      iter #   9 total cpu time :   131.4 secs   av.it.:   8.0
      thresh= 1.464E-07 alpha_mix =  0.700 |ddv_scf|^2 =  5.312E-14

     End of self-consistent calculation

     Convergence has been achieved 


     Representation #  2 mode #   2

     Self-consistent Calculation

      iter #   1 total cpu time :   138.6 secs   av.it.:   5.4
      thresh= 1.000E-02 alpha_mix =  0.700 |ddv_scf|^2 =  1.410E-05

      iter #   2 total cpu time :   146.4 secs   av.it.:   7.6
      thresh= 3.754E-04 alpha_mix =  0.700 |ddv_scf|^2 =  2.642E-07

      iter #   3 total cpu time :   154.3 secs   av.it.:   7.7
      thresh= 5.140E-05 alpha_mix =  0.700 |ddv_scf|^2 =  4.733E-09

      iter #   4 total cpu time :   161.9 secs   av.it.:   7.2
      thresh= 6.880E-06 alpha_mix =  0.700 |ddv_scf|^2 =  1.735E-11

      iter #   5 total cpu time :   169.7 secs   av.it.:   7.5
      thresh= 4.165E-07 alpha_mix =  0.700 |ddv_scf|^2 =  3.935E-14

     End of self-consistent calculation

     Convergence has been achieved 


     Representation #  3 mode #   3

     Self-consistent Calculation

      iter #   1 total cpu time :   176.8 secs   av.it.:   5.4
      thresh= 1.000E-02 alpha_mix =  0.700 |ddv_scf|^2 =  1.438E-05

      iter #   2 total cpu time :   184.6 secs   av.it.:   7.5
      thresh= 3.792E-04 alpha_mix =  0.700 |ddv_scf|^2 =  2.632E-07

      iter #   3 total cpu time :   192.5 secs   av.it.:   7.7
      thresh= 5.130E-05 alpha_mix =  0.700 |ddv_scf|^2 =  5.571E-09

      iter #   4 total cpu time :   200.1 secs   av.it.:   7.3
      thresh= 7.464E-06 alpha_mix =  0.700 |ddv_scf|^2 =  1.997E-11

      iter #   5 total cpu time :   208.0 secs   av.it.:   7.5
      thresh= 4.469E-07 alpha_mix =  0.700 |ddv_scf|^2 =  4.014E-14

     End of self-consistent calculation

     Convergence has been achieved 

     Number of q in the star =   12
     List of q in the star:
          1   0.000000000  -0.125000000   0.125000000
          2   0.125000000   0.000000000   0.125000000
          3  -0.125000000   0.000000000   0.125000000
          4   0.000000000   0.125000000   0.125000000
          5   0.125000000  -0.125000000   0.000000000
          6  -0.125000000   0.000000000  -0.125000000
          7   0.125000000   0.000000000  -0.125000000
          8   0.000000000  -0.125000000  -0.125000000
          9  -0.125000000  -0.125000000   0.000000000
         10  -0.125000000   0.125000000   0.000000000
         11   0.125000000   0.125000000   0.000000000
         12   0.000000000   0.125000000  -0.125000000

     Diagonalizing the dynamical matrix

     q = (    0.000000000  -0.125000000   0.125000000 ) 

 **************************************************************************
     freq (    1) =       1.129122 [THz] =      37.663448 [cm-1]
     freq (    2) =       1.454146 [THz] =      48.505092 [cm-1]
     freq (    3) =       2.392890 [THz] =      79.818207 [cm-1]
 **************************************************************************

     Mode symmetry, C_2v (mm2)  point group:

     freq (  1 -  1) =         37.7  [cm-1]   --> B_1  D_3  S_3      
     freq (  2 -  2) =         48.5  [cm-1]   --> B_2  D_4  S_4      
     freq (  3 -  3) =         79.8  [cm-1]   --> A_1  D_1  S_1      

     Calculation of q =    0.0000000  -0.2500000   0.2500000

   Info: using nr1, nr2, nr3 values from input

   Info: using nr1, nr2, nr3 values from input

     Parallelization info
     --------------------
     sticks:   dense  smooth     PW     G-vecs:    dense   smooth      PW
     Min         258     130     43                 5274     1854     375
     Max         260     131     44                 5275     1855     378
     Sum        1035     523    173                21097     7419    1505



     bravais-lattice index     =            3
     lattice parameter (alat)  =       7.5964  a.u.
     unit-cell volume          =     219.1768 (a.u.)^3
     number of atoms/cell      =            1
     number of atomic types    =            1
     number of electrons       =         9.00
     number of Kohn-Sham states=            9
     kinetic-energy cutoff     =      40.0000  Ry
     charge density cutoff     =     320.0000  Ry
     Exchange-correlation      = SLA  PW   PBE  PBE ( 1  4  3  4 0 0)

     celldm(1)=   7.596406  celldm(2)=   0.000000  celldm(3)=   0.000000
     celldm(4)=   0.000000  celldm(5)=   0.000000  celldm(6)=   0.000000

     crystal axes: (cart. coord. in units of alat)
               a(1) = (   0.500000   0.500000   0.500000 )  
               a(2) = (  -0.500000   0.500000   0.500000 )  
               a(3) = (  -0.500000  -0.500000   0.500000 )  

     reciprocal axes: (cart. coord. in units 2 pi/alat)
               b(1) = (  1.000000  0.000000  1.000000 )  
               b(2) = ( -1.000000  1.000000  0.000000 )  
               b(3) = (  0.000000 -1.000000  1.000000 )  


     PseudoPot. # 1 for Na read from file:
     /home/s1333534/quantum_espresso/qe-6.1/pseudo/Na_pbe_v1.uspp.F.UPF
     MD5 check sum: 76a99c7e9422403d3e93cbc85ab7bccb
     Pseudo is Ultrasoft, Zval =  9.0
     Generated by new atomic code, or converted to UPF format
     Using radial grid of  819 points,  5 beta functions with: 
                l(1) =   0
                l(2) =   0
                l(3) =   1
                l(4) =   1
                l(5) =   2
     Q(r) pseudized with  8 coefficients,  rinner =    1.250   1.250   1.250
                                                       1.250   1.250

     atomic species   valence    mass     pseudopotential
        Na             9.00    22.99000     Na( 1.00)

     48 Sym. Ops., with inversion, found



   Cartesian axes

     site n.     atom                  positions (alat units)
         1           Na  tau(   1) = (   0.0000000   0.0000000   0.0000000  )

     number of k points=  1568  Marzari-Vanderbilt smearing, width (Ry)=  0.0200

     Number of k-points >= 100: set verbosity='high' to print them.

     Dense  grid:    21097 G-vectors     FFT dimensions: (  40,  40,  40)

     Smooth grid:     7419 G-vectors     FFT dimensions: (  27,  27,  27)

     Estimated max dynamical RAM per process >       2.07MB

     Estimated total allocated dynamical RAM >       8.29MB

     The potential is recalculated from file :
     ./_ph0/na.bcc.save/charge-density.dat

     Starting wfc are    5 atomic +    4 random wfc

     Band Structure Calculation
     Davidson diagonalization with overlap

     ethr =  1.11E-10,  avg # of iterations = 20.0

     total cpu time spent up to now is       89.7 secs

     End of band structure calculation

     Number of k-points >= 100: set verbosity='high' to print the bands.

     the Fermi energy is     2.2070 ev

     Writing output data file na.bcc.save

                                                                                

     bravais-lattice index     =            3
     lattice parameter (alat)  =       7.5964  a.u.
     unit-cell volume          =     219.1768 (a.u.)^3
     number of atoms/cell      =            1
     number of atomic types    =            1
     kinetic-energy cut-off    =      40.0000  Ry
     charge density cut-off    =     320.0000  Ry
     convergence threshold     =      1.0E-12
     beta                      =       0.7000
     number of iterations used =            4
     Exchange-correlation      = SLA  PW   PBE  PBE ( 1  4  3  4 0 0)


     celldm(1)=    7.59641  celldm(2)=    0.00000  celldm(3)=    0.00000
     celldm(4)=    0.00000  celldm(5)=    0.00000  celldm(6)=    0.00000

     crystal axes: (cart. coord. in units of alat)
               a(1) = (  0.5000  0.5000  0.5000 )  
               a(2) = ( -0.5000  0.5000  0.5000 )  
               a(3) = ( -0.5000 -0.5000  0.5000 )  

     reciprocal axes: (cart. coord. in units 2 pi/alat)
               b(1) = (  1.0000  0.0000  1.0000 )  
               b(2) = ( -1.0000  1.0000  0.0000 )  
               b(3) = (  0.0000 -1.0000  1.0000 )  


     Atoms inside the unit cell: 

     Cartesian axes

     site n.  atom      mass           positions (alat units)
        1     Na  22.9900   tau(    1) = (    0.00000    0.00000    0.00000  )

     Computing dynamical matrix for 
                    q = (   0.0000000  -0.2500000   0.2500000 )

      4 Sym.Ops. (no q -> -q+G )


     G cutoff =  467.7423  (   5275 G-vectors)     FFT grid: ( 40, 40, 40)
     G cutoff =  233.8711  (   1854 G-vectors)  smooth grid: ( 27, 27, 27)

     number of k points=  1568  Marzari-Vanderbilt smearing, width (Ry)=  0.0200

     PseudoPot. # 1 for Na read from file:
     /home/s1333534/quantum_espresso/qe-6.1/pseudo/Na_pbe_v1.uspp.F.UPF
     MD5 check sum: 76a99c7e9422403d3e93cbc85ab7bccb
     Pseudo is Ultrasoft, Zval =  9.0
     Generated by new atomic code, or converted to UPF format
     Using radial grid of  819 points,  5 beta functions with: 
                l(1) =   0
                l(2) =   0
                l(3) =   1
                l(4) =   1
                l(5) =   2
     Q(r) pseudized with  8 coefficients,  rinner =    1.250   1.250   1.250
                                                       1.250   1.250

     Mode symmetry, C_2v (mm2)  point group:


     Atomic displacements:
     There are   3 irreducible representations

     Representation     1      1 modes -A_1  D_1  S_1  To be done

     Representation     2      1 modes -B_1  D_3  S_3  To be done

     Representation     3      1 modes -B_2  D_4  S_4  To be done



     Alpha used in Ewald sum =   2.8000
     PHONON       :  4m 1.44s CPU     4m16.53s WALL



     Representation #  1 mode #   1

     Self-consistent Calculation

      iter #   1 total cpu time :   263.7 secs   av.it.:   5.7
      thresh= 1.000E-02 alpha_mix =  0.700 |ddv_scf|^2 =  3.104E-03

      iter #   2 total cpu time :   270.5 secs   av.it.:   6.2
      thresh= 5.572E-03 alpha_mix =  0.700 |ddv_scf|^2 =  6.579E-02

      iter #   3 total cpu time :   276.8 secs   av.it.:   5.7
      thresh= 1.000E-02 alpha_mix =  0.700 |ddv_scf|^2 =  2.599E-06

      iter #   4 total cpu time :   284.4 secs   av.it.:   7.3
      thresh= 1.612E-04 alpha_mix =  0.700 |ddv_scf|^2 =  1.262E-08

      iter #   5 total cpu time :   293.1 secs   av.it.:   8.1
      thresh= 1.124E-05 alpha_mix =  0.700 |ddv_scf|^2 =  1.517E-09

      iter #   6 total cpu time :   301.0 secs   av.it.:   7.8
      thresh= 3.895E-06 alpha_mix =  0.700 |ddv_scf|^2 =  2.760E-11

      iter #   7 total cpu time :   309.2 secs   av.it.:   8.1
      thresh= 5.254E-07 alpha_mix =  0.700 |ddv_scf|^2 =  5.279E-11

      iter #   8 total cpu time :   315.6 secs   av.it.:   5.7
      thresh= 7.266E-07 alpha_mix =  0.700 |ddv_scf|^2 =  1.196E-11

      iter #   9 total cpu time :   322.8 secs   av.it.:   6.9
      thresh= 3.459E-07 alpha_mix =  0.700 |ddv_scf|^2 =  9.176E-13

     End of self-consistent calculation

     Convergence has been achieved 


     Representation #  2 mode #   2

     Self-consistent Calculation

      iter #   1 total cpu time :   330.0 secs   av.it.:   5.5
      thresh= 1.000E-02 alpha_mix =  0.700 |ddv_scf|^2 =  1.435E-05

      iter #   2 total cpu time :   337.8 secs   av.it.:   7.6
      thresh= 3.788E-04 alpha_mix =  0.700 |ddv_scf|^2 =  2.591E-07

      iter #   3 total cpu time :   345.8 secs   av.it.:   7.7
      thresh= 5.090E-05 alpha_mix =  0.700 |ddv_scf|^2 =  5.544E-09

      iter #   4 total cpu time :   353.3 secs   av.it.:   7.3
      thresh= 7.446E-06 alpha_mix =  0.700 |ddv_scf|^2 =  1.938E-11

      iter #   5 total cpu time :   361.2 secs   av.it.:   7.6
      thresh= 4.402E-07 alpha_mix =  0.700 |ddv_scf|^2 =  3.585E-14

     End of self-consistent calculation

     Convergence has been achieved 


     Representation #  3 mode #   3

     Self-consistent Calculation

      iter #   1 total cpu time :   368.3 secs   av.it.:   5.4
      thresh= 1.000E-02 alpha_mix =  0.700 |ddv_scf|^2 =  1.534E-05

      iter #   2 total cpu time :   376.1 secs   av.it.:   7.6
      thresh= 3.917E-04 alpha_mix =  0.700 |ddv_scf|^2 =  2.563E-07

      iter #   3 total cpu time :   384.1 secs   av.it.:   7.8
      thresh= 5.062E-05 alpha_mix =  0.700 |ddv_scf|^2 =  8.680E-09

      iter #   4 total cpu time :   391.7 secs   av.it.:   7.3
      thresh= 9.316E-06 alpha_mix =  0.700 |ddv_scf|^2 =  2.941E-11

      iter #   5 total cpu time :   399.6 secs   av.it.:   7.6
      thresh= 5.423E-07 alpha_mix =  0.700 |ddv_scf|^2 =  4.111E-14

     End of self-consistent calculation

     Convergence has been achieved 

     Number of q in the star =   12
     List of q in the star:
          1   0.000000000  -0.250000000   0.250000000
          2   0.250000000   0.000000000   0.250000000
          3  -0.250000000   0.000000000   0.250000000
          4   0.000000000   0.250000000   0.250000000
          5   0.250000000  -0.250000000   0.000000000
          6  -0.250000000   0.000000000  -0.250000000
          7   0.250000000   0.000000000  -0.250000000
          8   0.000000000  -0.250000000  -0.250000000
          9  -0.250000000  -0.250000000   0.000000000
         10  -0.250000000   0.250000000   0.000000000
         11   0.250000000   0.250000000   0.000000000
         12   0.000000000   0.250000000  -0.250000000

     Diagonalizing the dynamical matrix

     q = (    0.000000000  -0.250000000   0.250000000 ) 

 **************************************************************************
     freq (    1) =       1.381530 [THz] =      46.082886 [cm-1]
     freq (    2) =       2.233671 [THz] =      74.507240 [cm-1]
     freq (    3) =       3.601020 [THz] =     120.117085 [cm-1]
 **************************************************************************

     Mode symmetry, C_2v (mm2)  point group:

     freq (  1 -  1) =         46.1  [cm-1]   --> B_1  D_3  S_3      
     freq (  2 -  2) =         74.5  [cm-1]   --> B_2  D_4  S_4      
     freq (  3 -  3) =        120.1  [cm-1]   --> A_1  D_1  S_1      

     Calculation of q =    0.0000000  -0.3750000   0.3750000

   Info: using nr1, nr2, nr3 values from input

   Info: using nr1, nr2, nr3 values from input

     Parallelization info
     --------------------
     sticks:   dense  smooth     PW     G-vecs:    dense   smooth      PW
     Min         258     130     45                 5274     1854     388
     Max         260     131     46                 5275     1856     389
     Sum        1035     523    181                21097     7419    1553



     bravais-lattice index     =            3
     lattice parameter (alat)  =       7.5964  a.u.
     unit-cell volume          =     219.1768 (a.u.)^3
     number of atoms/cell      =            1
     number of atomic types    =            1
     number of electrons       =         9.00
     number of Kohn-Sham states=            9
     kinetic-energy cutoff     =      40.0000  Ry
     charge density cutoff     =     320.0000  Ry
     Exchange-correlation      = SLA  PW   PBE  PBE ( 1  4  3  4 0 0)

     celldm(1)=   7.596406  celldm(2)=   0.000000  celldm(3)=   0.000000
     celldm(4)=   0.000000  celldm(5)=   0.000000  celldm(6)=   0.000000

     crystal axes: (cart. coord. in units of alat)
               a(1) = (   0.500000   0.500000   0.500000 )  
               a(2) = (  -0.500000   0.500000   0.500000 )  
               a(3) = (  -0.500000  -0.500000   0.500000 )  

     reciprocal axes: (cart. coord. in units 2 pi/alat)
               b(1) = (  1.000000  0.000000  1.000000 )  
               b(2) = ( -1.000000  1.000000  0.000000 )  
               b(3) = (  0.000000 -1.000000  1.000000 )  


     PseudoPot. # 1 for Na read from file:
     /home/s1333534/quantum_espresso/qe-6.1/pseudo/Na_pbe_v1.uspp.F.UPF
     MD5 check sum: 76a99c7e9422403d3e93cbc85ab7bccb
     Pseudo is Ultrasoft, Zval =  9.0
     Generated by new atomic code, or converted to UPF format
     Using radial grid of  819 points,  5 beta functions with: 
                l(1) =   0
                l(2) =   0
                l(3) =   1
                l(4) =   1
                l(5) =   2
     Q(r) pseudized with  8 coefficients,  rinner =    1.250   1.250   1.250
                                                       1.250   1.250

     atomic species   valence    mass     pseudopotential
        Na             9.00    22.99000     Na( 1.00)

     48 Sym. Ops., with inversion, found



   Cartesian axes

     site n.     atom                  positions (alat units)
         1           Na  tau(   1) = (   0.0000000   0.0000000   0.0000000  )

     number of k points=  1568  Marzari-Vanderbilt smearing, width (Ry)=  0.0200

     Number of k-points >= 100: set verbosity='high' to print them.

     Dense  grid:    21097 G-vectors     FFT dimensions: (  40,  40,  40)

     Smooth grid:     7419 G-vectors     FFT dimensions: (  27,  27,  27)

     Estimated max dynamical RAM per process >       2.07MB

     Estimated total allocated dynamical RAM >       8.29MB

     The potential is recalculated from file :
     ./_ph0/na.bcc.save/charge-density.dat

     Starting wfc are    5 atomic +    4 random wfc

     Band Structure Calculation
     Davidson diagonalization with overlap

     ethr =  1.11E-10,  avg # of iterations = 20.1

     total cpu time spent up to now is      135.0 secs

     End of band structure calculation

     Number of k-points >= 100: set verbosity='high' to print the bands.

     the Fermi energy is     2.2070 ev

     Writing output data file na.bcc.save

                                                                                

     bravais-lattice index     =            3
     lattice parameter (alat)  =       7.5964  a.u.
     unit-cell volume          =     219.1768 (a.u.)^3
     number of atoms/cell      =            1
     number of atomic types    =            1
     kinetic-energy cut-off    =      40.0000  Ry
     charge density cut-off    =     320.0000  Ry
     convergence threshold     =      1.0E-12
     beta                      =       0.7000
     number of iterations used =            4
     Exchange-correlation      = SLA  PW   PBE  PBE ( 1  4  3  4 0 0)


     celldm(1)=    7.59641  celldm(2)=    0.00000  celldm(3)=    0.00000
     celldm(4)=    0.00000  celldm(5)=    0.00000  celldm(6)=    0.00000

     crystal axes: (cart. coord. in units of alat)
               a(1) = (  0.5000  0.5000  0.5000 )  
               a(2) = ( -0.5000  0.5000  0.5000 )  
               a(3) = ( -0.5000 -0.5000  0.5000 )  

     reciprocal axes: (cart. coord. in units 2 pi/alat)
               b(1) = (  1.0000  0.0000  1.0000 )  
               b(2) = ( -1.0000  1.0000  0.0000 )  
               b(3) = (  0.0000 -1.0000  1.0000 )  


     Atoms inside the unit cell: 

     Cartesian axes

     site n.  atom      mass           positions (alat units)
        1     Na  22.9900   tau(    1) = (    0.00000    0.00000    0.00000  )

     Computing dynamical matrix for 
                    q = (   0.0000000  -0.3750000   0.3750000 )

      4 Sym.Ops. (no q -> -q+G )


     G cutoff =  467.7423  (   5275 G-vectors)     FFT grid: ( 40, 40, 40)
     G cutoff =  233.8711  (   1854 G-vectors)  smooth grid: ( 27, 27, 27)

     number of k points=  1568  Marzari-Vanderbilt smearing, width (Ry)=  0.0200

     PseudoPot. # 1 for Na read from file:
     /home/s1333534/quantum_espresso/qe-6.1/pseudo/Na_pbe_v1.uspp.F.UPF
     MD5 check sum: 76a99c7e9422403d3e93cbc85ab7bccb
     Pseudo is Ultrasoft, Zval =  9.0
     Generated by new atomic code, or converted to UPF format
     Using radial grid of  819 points,  5 beta functions with: 
                l(1) =   0
                l(2) =   0
                l(3) =   1
                l(4) =   1
                l(5) =   2
     Q(r) pseudized with  8 coefficients,  rinner =    1.250   1.250   1.250
                                                       1.250   1.250

     Mode symmetry, C_2v (mm2)  point group:


     Atomic displacements:
     There are   3 irreducible representations

     Representation     1      1 modes -A_1  D_1  S_1  To be done

     Representation     2      1 modes -B_1  D_3  S_3  To be done

     Representation     3      1 modes -B_2  D_4  S_4  To be done



     Alpha used in Ewald sum =   2.8000
     PHONON       :  7m 0.71s CPU     7m28.32s WALL



     Representation #  1 mode #   1

     Self-consistent Calculation

      iter #   1 total cpu time :   455.5 secs   av.it.:   5.7
      thresh= 1.000E-02 alpha_mix =  0.700 |ddv_scf|^2 =  3.365E-04

      iter #   2 total cpu time :   462.7 secs   av.it.:   6.7
      thresh= 1.834E-03 alpha_mix =  0.700 |ddv_scf|^2 =  9.568E-04

      iter #   3 total cpu time :   469.3 secs   av.it.:   6.0
      thresh= 3.093E-03 alpha_mix =  0.700 |ddv_scf|^2 =  4.147E-07

      iter #   4 total cpu time :   477.4 secs   av.it.:   7.7
      thresh= 6.439E-05 alpha_mix =  0.700 |ddv_scf|^2 =  1.277E-08

      iter #   5 total cpu time :   486.1 secs   av.it.:   8.1
      thresh= 1.130E-05 alpha_mix =  0.700 |ddv_scf|^2 =  4.423E-10

      iter #   6 total cpu time :   494.2 secs   av.it.:   8.0
      thresh= 2.103E-06 alpha_mix =  0.700 |ddv_scf|^2 =  2.005E-11

      iter #   7 total cpu time :   502.0 secs   av.it.:   7.6
      thresh= 4.478E-07 alpha_mix =  0.700 |ddv_scf|^2 =  1.129E-12

      iter #   8 total cpu time :   510.2 secs   av.it.:   8.1
      thresh= 1.063E-07 alpha_mix =  0.700 |ddv_scf|^2 =  2.808E-14

     End of self-consistent calculation

     Convergence has been achieved 


     Representation #  2 mode #   2

     Self-consistent Calculation

      iter #   1 total cpu time :   517.4 secs   av.it.:   5.5
      thresh= 1.000E-02 alpha_mix =  0.700 |ddv_scf|^2 =  1.465E-05

      iter #   2 total cpu time :   525.2 secs   av.it.:   7.6
      thresh= 3.828E-04 alpha_mix =  0.700 |ddv_scf|^2 =  2.527E-07

      iter #   3 total cpu time :   533.2 secs   av.it.:   7.8
      thresh= 5.027E-05 alpha_mix =  0.700 |ddv_scf|^2 =  6.732E-09

      iter #   4 total cpu time :   540.8 secs   av.it.:   7.3
      thresh= 8.205E-06 alpha_mix =  0.700 |ddv_scf|^2 =  2.198E-11

      iter #   5 total cpu time :   548.7 secs   av.it.:   7.6
      thresh= 4.688E-07 alpha_mix =  0.700 |ddv_scf|^2 =  3.120E-14

     End of self-consistent calculation

     Convergence has been achieved 


     Representation #  3 mode #   3

     Self-consistent Calculation

      iter #   1 total cpu time :   555.9 secs   av.it.:   5.5
      thresh= 1.000E-02 alpha_mix =  0.700 |ddv_scf|^2 =  1.641E-05

      iter #   2 total cpu time :   563.7 secs   av.it.:   7.6
      thresh= 4.051E-04 alpha_mix =  0.700 |ddv_scf|^2 =  2.499E-07

      iter #   3 total cpu time :   571.7 secs   av.it.:   7.7
      thresh= 4.999E-05 alpha_mix =  0.700 |ddv_scf|^2 =  1.268E-08

      iter #   4 total cpu time :   579.3 secs   av.it.:   7.3
      thresh= 1.126E-05 alpha_mix =  0.700 |ddv_scf|^2 =  4.185E-11

      iter #   5 total cpu time :   587.2 secs   av.it.:   7.6
      thresh= 6.469E-07 alpha_mix =  0.700 |ddv_scf|^2 =  4.450E-14

     End of self-consistent calculation

     Convergence has been achieved 

     Number of q in the star =   12
     List of q in the star:
          1   0.000000000  -0.375000000   0.375000000
          2   0.375000000   0.000000000   0.375000000
          3  -0.375000000   0.000000000   0.375000000
          4   0.000000000   0.375000000   0.375000000
          5   0.375000000  -0.375000000   0.000000000
          6  -0.375000000   0.000000000  -0.375000000
          7   0.375000000   0.000000000  -0.375000000
          8   0.000000000  -0.375000000  -0.375000000
          9  -0.375000000  -0.375000000   0.000000000
         10  -0.375000000   0.375000000   0.000000000
         11   0.375000000   0.375000000   0.000000000
         12   0.000000000   0.375000000  -0.375000000

     Diagonalizing the dynamical matrix

     q = (    0.000000000  -0.375000000   0.375000000 ) 

 **************************************************************************
     freq (    1) =       1.396649 [THz] =      46.587210 [cm-1]
     freq (    2) =       2.752160 [THz] =      91.802159 [cm-1]
     freq (    3) =       4.501755 [THz] =     150.162368 [cm-1]
 **************************************************************************

     Mode symmetry, C_2v (mm2)  point group:

     freq (  1 -  1) =         46.6  [cm-1]   --> B_1  D_3  S_3      
     freq (  2 -  2) =         91.8  [cm-1]   --> B_2  D_4  S_4      
     freq (  3 -  3) =        150.2  [cm-1]   --> A_1  D_1  S_1      

     Calculation of q =    0.0000000   0.5000000  -0.5000000

   Info: using nr1, nr2, nr3 values from input

   Info: using nr1, nr2, nr3 values from input

     Parallelization info
     --------------------
     sticks:   dense  smooth     PW     G-vecs:    dense   smooth      PW
     Min         258     130     45                 5274     1854     400
     Max         259     131     46                 5275     1855     401
     Sum        1035     523    181                21097     7419    1601



     bravais-lattice index     =            3
     lattice parameter (alat)  =       7.5964  a.u.
     unit-cell volume          =     219.1768 (a.u.)^3
     number of atoms/cell      =            1
     number of atomic types    =            1
     number of electrons       =         9.00
     number of Kohn-Sham states=            9
     kinetic-energy cutoff     =      40.0000  Ry
     charge density cutoff     =     320.0000  Ry
     Exchange-correlation      = SLA  PW   PBE  PBE ( 1  4  3  4 0 0)

     celldm(1)=   7.596406  celldm(2)=   0.000000  celldm(3)=   0.000000
     celldm(4)=   0.000000  celldm(5)=   0.000000  celldm(6)=   0.000000

     crystal axes: (cart. coord. in units of alat)
               a(1) = (   0.500000   0.500000   0.500000 )  
               a(2) = (  -0.500000   0.500000   0.500000 )  
               a(3) = (  -0.500000  -0.500000   0.500000 )  

     reciprocal axes: (cart. coord. in units 2 pi/alat)
               b(1) = (  1.000000  0.000000  1.000000 )  
               b(2) = ( -1.000000  1.000000  0.000000 )  
               b(3) = (  0.000000 -1.000000  1.000000 )  


     PseudoPot. # 1 for Na read from file:
     /home/s1333534/quantum_espresso/qe-6.1/pseudo/Na_pbe_v1.uspp.F.UPF
     MD5 check sum: 76a99c7e9422403d3e93cbc85ab7bccb
     Pseudo is Ultrasoft, Zval =  9.0
     Generated by new atomic code, or converted to UPF format
     Using radial grid of  819 points,  5 beta functions with: 
                l(1) =   0
                l(2) =   0
                l(3) =   1
                l(4) =   1
                l(5) =   2
     Q(r) pseudized with  8 coefficients,  rinner =    1.250   1.250   1.250
                                                       1.250   1.250

     atomic species   valence    mass     pseudopotential
        Na             9.00    22.99000     Na( 1.00)

     48 Sym. Ops., with inversion, found



   Cartesian axes

     site n.     atom                  positions (alat units)
         1           Na  tau(   1) = (   0.0000000   0.0000000   0.0000000  )

     number of k points=   840  Marzari-Vanderbilt smearing, width (Ry)=  0.0200

     Number of k-points >= 100: set verbosity='high' to print them.

     Dense  grid:    21097 G-vectors     FFT dimensions: (  40,  40,  40)

     Smooth grid:     7419 G-vectors     FFT dimensions: (  27,  27,  27)

     Estimated max dynamical RAM per process >       2.07MB

     Estimated total allocated dynamical RAM >       8.29MB

     The potential is recalculated from file :
     ./_ph0/na.bcc.save/charge-density.dat

     Starting wfc are    5 atomic +    4 random wfc

     Band Structure Calculation
     Davidson diagonalization with overlap

     ethr =  1.11E-10,  avg # of iterations = 20.0

     total cpu time spent up to now is      159.9 secs

     End of band structure calculation

     Number of k-points >= 100: set verbosity='high' to print the bands.

     the Fermi energy is     2.2070 ev

     Writing output data file na.bcc.save

                                                                                

     bravais-lattice index     =            3
     lattice parameter (alat)  =       7.5964  a.u.
     unit-cell volume          =     219.1768 (a.u.)^3
     number of atoms/cell      =            1
     number of atomic types    =            1
     kinetic-energy cut-off    =      40.0000  Ry
     charge density cut-off    =     320.0000  Ry
     convergence threshold     =      1.0E-12
     beta                      =       0.7000
     number of iterations used =            4
     Exchange-correlation      = SLA  PW   PBE  PBE ( 1  4  3  4 0 0)


     celldm(1)=    7.59641  celldm(2)=    0.00000  celldm(3)=    0.00000
     celldm(4)=    0.00000  celldm(5)=    0.00000  celldm(6)=    0.00000

     crystal axes: (cart. coord. in units of alat)
               a(1) = (  0.5000  0.5000  0.5000 )  
               a(2) = ( -0.5000  0.5000  0.5000 )  
               a(3) = ( -0.5000 -0.5000  0.5000 )  

     reciprocal axes: (cart. coord. in units 2 pi/alat)
               b(1) = (  1.0000  0.0000  1.0000 )  
               b(2) = ( -1.0000  1.0000  0.0000 )  
               b(3) = (  0.0000 -1.0000  1.0000 )  


     Atoms inside the unit cell: 

     Cartesian axes

     site n.  atom      mass           positions (alat units)
        1     Na  22.9900   tau(    1) = (    0.00000    0.00000    0.00000  )

     Computing dynamical matrix for 
                    q = (   0.0000000   0.5000000  -0.5000000 )

      9 Sym.Ops. (with q -> -q+G )


     G cutoff =  467.7423  (   5275 G-vectors)     FFT grid: ( 40, 40, 40)
     G cutoff =  233.8711  (   1854 G-vectors)  smooth grid: ( 27, 27, 27)

     number of k points=   840  Marzari-Vanderbilt smearing, width (Ry)=  0.0200

     PseudoPot. # 1 for Na read from file:
     /home/s1333534/quantum_espresso/qe-6.1/pseudo/Na_pbe_v1.uspp.F.UPF
     MD5 check sum: 76a99c7e9422403d3e93cbc85ab7bccb
     Pseudo is Ultrasoft, Zval =  9.0
     Generated by new atomic code, or converted to UPF format
     Using radial grid of  819 points,  5 beta functions with: 
                l(1) =   0
                l(2) =   0
                l(3) =   1
                l(4) =   1
                l(5) =   2
     Q(r) pseudized with  8 coefficients,  rinner =    1.250   1.250   1.250
                                                       1.250   1.250

     Mode symmetry, D_2h (mmm)  point group:


     Atomic displacements:
     There are   3 irreducible representations

     Representation     1      1 modes -B_1u  To be done

     Representation     2      1 modes -B_2u  To be done

     Representation     3      1 modes -B_3u  To be done



     Alpha used in Ewald sum =   2.8000
     PHONON       :  9m34.66s CPU    10m13.71s WALL



     Representation #  1 mode #   1

     Self-consistent Calculation

      iter #   1 total cpu time :   617.5 secs   av.it.:   5.5
      thresh= 1.000E-02 alpha_mix =  0.700 |ddv_scf|^2 =  1.688E-05

      iter #   2 total cpu time :   621.7 secs   av.it.:   7.5
      thresh= 4.109E-04 alpha_mix =  0.700 |ddv_scf|^2 =  2.476E-07

      iter #   3 total cpu time :   626.0 secs   av.it.:   7.7
      thresh= 4.975E-05 alpha_mix =  0.700 |ddv_scf|^2 =  1.449E-08

      iter #   4 total cpu time :   630.1 secs   av.it.:   7.0
      thresh= 1.204E-05 alpha_mix =  0.700 |ddv_scf|^2 =  4.817E-11

      iter #   5 total cpu time :   634.3 secs   av.it.:   7.5
      thresh= 6.941E-07 alpha_mix =  0.700 |ddv_scf|^2 =  4.728E-14

     End of self-consistent calculation

     Convergence has been achieved 


     Representation #  2 mode #   2

     Self-consistent Calculation

      iter #   1 total cpu time :   638.2 secs   av.it.:   5.5
      thresh= 1.000E-02 alpha_mix =  0.700 |ddv_scf|^2 =  1.480E-05

      iter #   2 total cpu time :   642.4 secs   av.it.:   7.6
      thresh= 3.847E-04 alpha_mix =  0.700 |ddv_scf|^2 =  2.497E-07

      iter #   3 total cpu time :   646.7 secs   av.it.:   7.7
      thresh= 4.997E-05 alpha_mix =  0.700 |ddv_scf|^2 =  7.290E-09

      iter #   4 total cpu time :   650.8 secs   av.it.:   7.1
      thresh= 8.538E-06 alpha_mix =  0.700 |ddv_scf|^2 =  2.323E-11

      iter #   5 total cpu time :   655.0 secs   av.it.:   7.5
      thresh= 4.820E-07 alpha_mix =  0.700 |ddv_scf|^2 =  2.891E-14

     End of self-consistent calculation

     Convergence has been achieved 


     Representation #  3 mode #   3

     Self-consistent Calculation

      iter #   1 total cpu time :   659.0 secs   av.it.:   5.6
      thresh= 1.000E-02 alpha_mix =  0.700 |ddv_scf|^2 =  1.263E-04

      iter #   2 total cpu time :   662.8 secs   av.it.:   6.7
      thresh= 1.124E-03 alpha_mix =  0.700 |ddv_scf|^2 =  6.052E-05

      iter #   3 total cpu time :   666.6 secs   av.it.:   6.5
      thresh= 7.780E-04 alpha_mix =  0.700 |ddv_scf|^2 =  9.645E-08

      iter #   4 total cpu time :   670.9 secs   av.it.:   7.6
      thresh= 3.106E-05 alpha_mix =  0.700 |ddv_scf|^2 =  3.274E-10

      iter #   5 total cpu time :   674.7 secs   av.it.:   6.6
      thresh= 1.809E-06 alpha_mix =  0.700 |ddv_scf|^2 =  6.241E-12

      iter #   6 total cpu time :   678.5 secs   av.it.:   6.6
      thresh= 2.498E-07 alpha_mix =  0.700 |ddv_scf|^2 =  2.194E-14

     End of self-consistent calculation

     Convergence has been achieved 

     Number of q in the star =    6
     List of q in the star:
          1   0.000000000   0.500000000  -0.500000000
          2  -0.500000000   0.500000000   0.000000000
          3   0.500000000   0.000000000   0.500000000
          4   0.500000000   0.000000000  -0.500000000
          5   0.000000000   0.500000000   0.500000000
          6   0.500000000   0.500000000   0.000000000

     Diagonalizing the dynamical matrix

     q = (    0.000000000   0.500000000  -0.500000000 ) 

 **************************************************************************
     freq (    1) =       1.311434 [THz] =      43.744718 [cm-1]
     freq (    2) =       2.929595 [THz] =      97.720779 [cm-1]
     freq (    3) =       4.861375 [THz] =     162.158017 [cm-1]
 **************************************************************************

     Mode symmetry, D_2h (mmm)  point group:

     freq (  1 -  1) =         43.7  [cm-1]   --> B_2u               
     freq (  2 -  2) =         97.7  [cm-1]   --> B_1u               
     freq (  3 -  3) =        162.2  [cm-1]   --> B_3u               

     Calculation of q =   -0.1250000  -0.1250000   0.2500000

   Info: using nr1, nr2, nr3 values from input

   Info: using nr1, nr2, nr3 values from input

     Parallelization info
     --------------------
     sticks:   dense  smooth     PW     G-vecs:    dense   smooth      PW
     Min         258     130     43                 5274     1854     369
     Max         260     131     44                 5275     1855     372
     Sum        1035     523    173                21097     7419    1481



     bravais-lattice index     =            3
     lattice parameter (alat)  =       7.5964  a.u.
     unit-cell volume          =     219.1768 (a.u.)^3
     number of atoms/cell      =            1
     number of atomic types    =            1
     number of electrons       =         9.00
     number of Kohn-Sham states=            9
     kinetic-energy cutoff     =      40.0000  Ry
     charge density cutoff     =     320.0000  Ry
     Exchange-correlation      = SLA  PW   PBE  PBE ( 1  4  3  4 0 0)

     celldm(1)=   7.596406  celldm(2)=   0.000000  celldm(3)=   0.000000
     celldm(4)=   0.000000  celldm(5)=   0.000000  celldm(6)=   0.000000

     crystal axes: (cart. coord. in units of alat)
               a(1) = (   0.500000   0.500000   0.500000 )  
               a(2) = (  -0.500000   0.500000   0.500000 )  
               a(3) = (  -0.500000  -0.500000   0.500000 )  

     reciprocal axes: (cart. coord. in units 2 pi/alat)
               b(1) = (  1.000000  0.000000  1.000000 )  
               b(2) = ( -1.000000  1.000000  0.000000 )  
               b(3) = (  0.000000 -1.000000  1.000000 )  


     PseudoPot. # 1 for Na read from file:
     /home/s1333534/quantum_espresso/qe-6.1/pseudo/Na_pbe_v1.uspp.F.UPF
     MD5 check sum: 76a99c7e9422403d3e93cbc85ab7bccb
     Pseudo is Ultrasoft, Zval =  9.0
     Generated by new atomic code, or converted to UPF format
     Using radial grid of  819 points,  5 beta functions with: 
                l(1) =   0
                l(2) =   0
                l(3) =   1
                l(4) =   1
                l(5) =   2
     Q(r) pseudized with  8 coefficients,  rinner =    1.250   1.250   1.250
                                                       1.250   1.250

     atomic species   valence    mass     pseudopotential
        Na             9.00    22.99000     Na( 1.00)

     48 Sym. Ops., with inversion, found



   Cartesian axes

     site n.     atom                  positions (alat units)
         1           Na  tau(   1) = (   0.0000000   0.0000000   0.0000000  )

     number of k points=  2940  Marzari-Vanderbilt smearing, width (Ry)=  0.0200

     Number of k-points >= 100: set verbosity='high' to print them.

     Dense  grid:    21097 G-vectors     FFT dimensions: (  40,  40,  40)

     Smooth grid:     7419 G-vectors     FFT dimensions: (  27,  27,  27)

     Estimated max dynamical RAM per process >       2.07MB

     Estimated total allocated dynamical RAM >       8.29MB

     The potential is recalculated from file :
     ./_ph0/na.bcc.save/charge-density.dat

     Starting wfc are    5 atomic +    4 random wfc

     Band Structure Calculation
     Davidson diagonalization with overlap

     ethr =  1.11E-10,  avg # of iterations = 20.1

     total cpu time spent up to now is      243.0 secs

     End of band structure calculation

     Number of k-points >= 100: set verbosity='high' to print the bands.

     the Fermi energy is     2.2070 ev

     Writing output data file na.bcc.save

                                                                                

     bravais-lattice index     =            3
     lattice parameter (alat)  =       7.5964  a.u.
     unit-cell volume          =     219.1768 (a.u.)^3
     number of atoms/cell      =            1
     number of atomic types    =            1
     kinetic-energy cut-off    =      40.0000  Ry
     charge density cut-off    =     320.0000  Ry
     convergence threshold     =      1.0E-12
     beta                      =       0.7000
     number of iterations used =            4
     Exchange-correlation      = SLA  PW   PBE  PBE ( 1  4  3  4 0 0)


     celldm(1)=    7.59641  celldm(2)=    0.00000  celldm(3)=    0.00000
     celldm(4)=    0.00000  celldm(5)=    0.00000  celldm(6)=    0.00000

     crystal axes: (cart. coord. in units of alat)
               a(1) = (  0.5000  0.5000  0.5000 )  
               a(2) = ( -0.5000  0.5000  0.5000 )  
               a(3) = ( -0.5000 -0.5000  0.5000 )  

     reciprocal axes: (cart. coord. in units 2 pi/alat)
               b(1) = (  1.0000  0.0000  1.0000 )  
               b(2) = ( -1.0000  1.0000  0.0000 )  
               b(3) = (  0.0000 -1.0000  1.0000 )  


     Atoms inside the unit cell: 

     Cartesian axes

     site n.  atom      mass           positions (alat units)
        1     Na  22.9900   tau(    1) = (    0.00000    0.00000    0.00000  )

     Computing dynamical matrix for 
                    q = (  -0.1250000  -0.1250000   0.2500000 )

      2 Sym.Ops. (no q -> -q+G )


     G cutoff =  467.7423  (   5275 G-vectors)     FFT grid: ( 40, 40, 40)
     G cutoff =  233.8711  (   1854 G-vectors)  smooth grid: ( 27, 27, 27)

     number of k points=  2940  Marzari-Vanderbilt smearing, width (Ry)=  0.0200

     PseudoPot. # 1 for Na read from file:
     /home/s1333534/quantum_espresso/qe-6.1/pseudo/Na_pbe_v1.uspp.F.UPF
     MD5 check sum: 76a99c7e9422403d3e93cbc85ab7bccb
     Pseudo is Ultrasoft, Zval =  9.0
     Generated by new atomic code, or converted to UPF format
     Using radial grid of  819 points,  5 beta functions with: 
                l(1) =   0
                l(2) =   0
                l(3) =   1
                l(4) =   1
                l(5) =   2
     Q(r) pseudized with  8 coefficients,  rinner =    1.250   1.250   1.250
                                                       1.250   1.250

     Mode symmetry, C_s (m)     point group:


     Atomic displacements:
     There are   3 irreducible representations

     Representation     1      1 modes -A'  To be done

     Representation     2      1 modes -A'  To be done

     Representation     3      1 modes -A''  To be done



     Alpha used in Ewald sum =   2.8000
     PHONON       : 12m 1.15s CPU    12m49.08s WALL



     Representation #  1 mode #   1

     Self-consistent Calculation

      iter #   1 total cpu time :   782.4 secs   av.it.:   5.6
      thresh= 1.000E-02 alpha_mix =  0.700 |ddv_scf|^2 =  7.647E-04

      iter #   2 total cpu time :   795.7 secs   av.it.:   6.7
      thresh= 2.765E-03 alpha_mix =  0.700 |ddv_scf|^2 =  3.221E-02

      iter #   3 total cpu time :   806.5 secs   av.it.:   4.9
      thresh= 1.000E-02 alpha_mix =  0.700 |ddv_scf|^2 =  3.301E-07

      iter #   4 total cpu time :   822.0 secs   av.it.:   8.0
      thresh= 5.746E-05 alpha_mix =  0.700 |ddv_scf|^2 =  7.457E-09

      iter #   5 total cpu time :   836.8 secs   av.it.:   7.8
      thresh= 8.636E-06 alpha_mix =  0.700 |ddv_scf|^2 =  6.780E-10

      iter #   6 total cpu time :   852.3 secs   av.it.:   7.6
      thresh= 2.604E-06 alpha_mix =  0.700 |ddv_scf|^2 =  1.636E-10

      iter #   7 total cpu time :   865.5 secs   av.it.:   6.7
      thresh= 1.279E-06 alpha_mix =  0.700 |ddv_scf|^2 =  3.004E-10

      iter #   8 total cpu time :   878.9 secs   av.it.:   6.7
      thresh= 1.733E-06 alpha_mix =  0.700 |ddv_scf|^2 =  5.646E-11

      iter #   9 total cpu time :   891.3 secs   av.it.:   6.1
      thresh= 7.514E-07 alpha_mix =  0.700 |ddv_scf|^2 =  4.694E-12

      iter #  10 total cpu time :   905.6 secs   av.it.:   7.3
      thresh= 2.167E-07 alpha_mix =  0.700 |ddv_scf|^2 =  2.908E-14

     End of self-consistent calculation

     Convergence has been achieved 


     Representation #  2 mode #   2

     Self-consistent Calculation

      iter #   1 total cpu time :   919.4 secs   av.it.:   5.7
      thresh= 1.000E-02 alpha_mix =  0.700 |ddv_scf|^2 =  6.779E-03

      iter #   2 total cpu time :   931.9 secs   av.it.:   6.1
      thresh= 8.233E-03 alpha_mix =  0.700 |ddv_scf|^2 =  2.902E-01

      iter #   3 total cpu time :   944.3 secs   av.it.:   5.9
      thresh= 1.000E-02 alpha_mix =  0.700 |ddv_scf|^2 =  3.430E-06

      iter #   4 total cpu time :   958.4 secs   av.it.:   7.3
      thresh= 1.852E-04 alpha_mix =  0.700 |ddv_scf|^2 =  2.984E-08

      iter #   5 total cpu time :   973.4 secs   av.it.:   7.7
      thresh= 1.727E-05 alpha_mix =  0.700 |ddv_scf|^2 =  2.555E-09

      iter #   6 total cpu time :   988.0 secs   av.it.:   7.6
      thresh= 5.055E-06 alpha_mix =  0.700 |ddv_scf|^2 =  5.269E-11

      iter #   7 total cpu time :  1003.5 secs   av.it.:   8.1
      thresh= 7.259E-07 alpha_mix =  0.700 |ddv_scf|^2 =  4.138E-10

      iter #   8 total cpu time :  1014.3 secs   av.it.:   5.1
      thresh= 2.034E-06 alpha_mix =  0.700 |ddv_scf|^2 =  4.081E-12

      iter #   9 total cpu time :  1027.8 secs   av.it.:   6.8
      thresh= 2.020E-07 alpha_mix =  0.700 |ddv_scf|^2 =  1.144E-13

     End of self-consistent calculation

     Convergence has been achieved 


     Representation #  3 mode #   3

     Self-consistent Calculation

      iter #   1 total cpu time :  1041.1 secs   av.it.:   5.5
      thresh= 1.000E-02 alpha_mix =  0.700 |ddv_scf|^2 =  1.533E-05

      iter #   2 total cpu time :  1055.8 secs   av.it.:   7.6
      thresh= 3.916E-04 alpha_mix =  0.700 |ddv_scf|^2 =  2.512E-07

      iter #   3 total cpu time :  1071.5 secs   av.it.:   7.9
      thresh= 5.012E-05 alpha_mix =  0.700 |ddv_scf|^2 =  8.842E-09

      iter #   4 total cpu time :  1085.9 secs   av.it.:   7.5
      thresh= 9.403E-06 alpha_mix =  0.700 |ddv_scf|^2 =  4.332E-11

      iter #   5 total cpu time :  1100.6 secs   av.it.:   7.6
      thresh= 6.582E-07 alpha_mix =  0.700 |ddv_scf|^2 =  4.403E-14

     End of self-consistent calculation

     Convergence has been achieved 

     Number of q in the star =   24
     List of q in the star:
          1  -0.125000000  -0.125000000   0.250000000
          2  -0.125000000  -0.250000000   0.125000000
          3   0.125000000  -0.250000000   0.125000000
          4  -0.125000000   0.125000000  -0.250000000
          5  -0.125000000   0.250000000  -0.125000000
          6   0.125000000   0.125000000  -0.250000000
          7   0.125000000   0.250000000  -0.125000000
          8   0.125000000  -0.250000000  -0.125000000
          9  -0.250000000   0.125000000  -0.125000000
         10   0.250000000   0.125000000   0.125000000
         11   0.125000000   0.125000000   0.250000000
         12  -0.250000000  -0.125000000   0.125000000
         13   0.250000000  -0.125000000  -0.125000000
         14   0.125000000  -0.125000000  -0.250000000
         15   0.125000000  -0.125000000   0.250000000
         16   0.125000000   0.250000000   0.125000000
         17  -0.125000000  -0.125000000  -0.250000000
         18  -0.125000000   0.125000000   0.250000000
         19  -0.125000000   0.250000000   0.125000000
         20  -0.125000000  -0.250000000  -0.125000000
         21   0.250000000   0.125000000  -0.125000000
         22  -0.250000000   0.125000000   0.125000000
         23   0.250000000  -0.125000000   0.125000000
         24  -0.250000000  -0.125000000  -0.125000000

     Diagonalizing the dynamical matrix

     q = (   -0.125000000  -0.125000000   0.250000000 ) 

 **************************************************************************
     freq (    1) =       1.819399 [THz] =      60.688617 [cm-1]
     freq (    2) =       1.963747 [THz] =      65.503548 [cm-1]
     freq (    3) =       3.318169 [THz] =     110.682207 [cm-1]
 **************************************************************************

     Mode symmetry, C_s (m)     point group:

     freq (  1 -  1) =         60.7  [cm-1]   --> A'                 
     freq (  2 -  2) =         65.5  [cm-1]   --> A''                
     freq (  3 -  3) =        110.7  [cm-1]   --> A'                 

     Calculation of q =   -0.1250000  -0.2500000   0.3750000

   Info: using nr1, nr2, nr3 values from input

   Info: using nr1, nr2, nr3 values from input

     Parallelization info
     --------------------
     sticks:   dense  smooth     PW     G-vecs:    dense   smooth      PW
     Min         258     130     45                 5274     1854     388
     Max         260     131     46                 5275     1856     389
     Sum        1035     523    181                21097     7419    1553



     bravais-lattice index     =            3
     lattice parameter (alat)  =       7.5964  a.u.
     unit-cell volume          =     219.1768 (a.u.)^3
     number of atoms/cell      =            1
     number of atomic types    =            1
     number of electrons       =         9.00
     number of Kohn-Sham states=            9
     kinetic-energy cutoff     =      40.0000  Ry
     charge density cutoff     =     320.0000  Ry
     Exchange-correlation      = SLA  PW   PBE  PBE ( 1  4  3  4 0 0)

     celldm(1)=   7.596406  celldm(2)=   0.000000  celldm(3)=   0.000000
     celldm(4)=   0.000000  celldm(5)=   0.000000  celldm(6)=   0.000000

     crystal axes: (cart. coord. in units of alat)
               a(1) = (   0.500000   0.500000   0.500000 )  
               a(2) = (  -0.500000   0.500000   0.500000 )  
               a(3) = (  -0.500000  -0.500000   0.500000 )  

     reciprocal axes: (cart. coord. in units 2 pi/alat)
               b(1) = (  1.000000  0.000000  1.000000 )  
               b(2) = ( -1.000000  1.000000  0.000000 )  
               b(3) = (  0.000000 -1.000000  1.000000 )  


     PseudoPot. # 1 for Na read from file:
     /home/s1333534/quantum_espresso/qe-6.1/pseudo/Na_pbe_v1.uspp.F.UPF
     MD5 check sum: 76a99c7e9422403d3e93cbc85ab7bccb
     Pseudo is Ultrasoft, Zval =  9.0
     Generated by new atomic code, or converted to UPF format
     Using radial grid of  819 points,  5 beta functions with: 
                l(1) =   0
                l(2) =   0
                l(3) =   1
                l(4) =   1
                l(5) =   2
     Q(r) pseudized with  8 coefficients,  rinner =    1.250   1.250   1.250
                                                       1.250   1.250

     atomic species   valence    mass     pseudopotential
        Na             9.00    22.99000     Na( 1.00)

     48 Sym. Ops., with inversion, found



   Cartesian axes

     site n.     atom                  positions (alat units)
         1           Na  tau(   1) = (   0.0000000   0.0000000   0.0000000  )

     number of k points=  5488  Marzari-Vanderbilt smearing, width (Ry)=  0.0200

     Number of k-points >= 100: set verbosity='high' to print them.

     Dense  grid:    21097 G-vectors     FFT dimensions: (  40,  40,  40)

     Smooth grid:     7419 G-vectors     FFT dimensions: (  27,  27,  27)

     Estimated max dynamical RAM per process >       2.07MB

     Estimated total allocated dynamical RAM >       8.29MB

     The potential is recalculated from file :
     ./_ph0/na.bcc.save/charge-density.dat

     Starting wfc are    5 atomic +    4 random wfc

     Band Structure Calculation
     Davidson diagonalization with overlap

     ethr =  1.11E-10,  avg # of iterations = 19.9

     total cpu time spent up to now is      399.8 secs

     End of band structure calculation

     Number of k-points >= 100: set verbosity='high' to print the bands.

     the Fermi energy is     2.2070 ev

     Writing output data file na.bcc.save

                                                                                

     bravais-lattice index     =            3
     lattice parameter (alat)  =       7.5964  a.u.
     unit-cell volume          =     219.1768 (a.u.)^3
     number of atoms/cell      =            1
     number of atomic types    =            1
     kinetic-energy cut-off    =      40.0000  Ry
     charge density cut-off    =     320.0000  Ry
     convergence threshold     =      1.0E-12
     beta                      =       0.7000
     number of iterations used =            4
     Exchange-correlation      = SLA  PW   PBE  PBE ( 1  4  3  4 0 0)


     celldm(1)=    7.59641  celldm(2)=    0.00000  celldm(3)=    0.00000
     celldm(4)=    0.00000  celldm(5)=    0.00000  celldm(6)=    0.00000

     crystal axes: (cart. coord. in units of alat)
               a(1) = (  0.5000  0.5000  0.5000 )  
               a(2) = ( -0.5000  0.5000  0.5000 )  
               a(3) = ( -0.5000 -0.5000  0.5000 )  

     reciprocal axes: (cart. coord. in units 2 pi/alat)
               b(1) = (  1.0000  0.0000  1.0000 )  
               b(2) = ( -1.0000  1.0000  0.0000 )  
               b(3) = (  0.0000 -1.0000  1.0000 )  


     Atoms inside the unit cell: 

     Cartesian axes

     site n.  atom      mass           positions (alat units)
        1     Na  22.9900   tau(    1) = (    0.00000    0.00000    0.00000  )

     Computing dynamical matrix for 
                    q = (  -0.1250000  -0.2500000   0.3750000 )

     No symmetry!

     G cutoff =  467.7423  (   5275 G-vectors)     FFT grid: ( 40, 40, 40)
     G cutoff =  233.8711  (   1854 G-vectors)  smooth grid: ( 27, 27, 27)

     number of k points=  5488  Marzari-Vanderbilt smearing, width (Ry)=  0.0200

     PseudoPot. # 1 for Na read from file:
     /home/s1333534/quantum_espresso/qe-6.1/pseudo/Na_pbe_v1.uspp.F.UPF
     MD5 check sum: 76a99c7e9422403d3e93cbc85ab7bccb
     Pseudo is Ultrasoft, Zval =  9.0
     Generated by new atomic code, or converted to UPF format
     Using radial grid of  819 points,  5 beta functions with: 
                l(1) =   0
                l(2) =   0
                l(3) =   1
                l(4) =   1
                l(5) =   2
     Q(r) pseudized with  8 coefficients,  rinner =    1.250   1.250   1.250
                                                       1.250   1.250

     Mode symmetry, C_1 (1)     point group:


     Atomic displacements:
     There are   3 irreducible representations

     Representation     1      1 modes -A  To be done

     Representation     2      1 modes -A  To be done

     Representation     3      1 modes -A  To be done



     Alpha used in Ewald sum =   2.8000
     PHONON       : 19m48.87s CPU    21m10.72s WALL



     Representation #  1 mode #   1

     Self-consistent Calculation

      iter #   1 total cpu time :  1296.0 secs   av.it.:   5.7
      thresh= 1.000E-02 alpha_mix =  0.700 |ddv_scf|^2 =  2.344E-05

      iter #   2 total cpu time :  1325.2 secs   av.it.:   7.9
      thresh= 4.841E-04 alpha_mix =  0.700 |ddv_scf|^2 =  4.621E-05

      iter #   3 total cpu time :  1348.7 secs   av.it.:   6.1
      thresh= 6.798E-04 alpha_mix =  0.700 |ddv_scf|^2 =  4.278E-06

      iter #   4 total cpu time :  1375.2 secs   av.it.:   7.2
      thresh= 2.068E-04 alpha_mix =  0.700 |ddv_scf|^2 =  5.792E-09

      iter #   5 total cpu time :  1403.4 secs   av.it.:   7.9
      thresh= 7.610E-06 alpha_mix =  0.700 |ddv_scf|^2 =  1.487E-10

      iter #   6 total cpu time :  1433.2 secs   av.it.:   8.1
      thresh= 1.219E-06 alpha_mix =  0.700 |ddv_scf|^2 =  6.103E-12

      iter #   7 total cpu time :  1462.9 secs   av.it.:   8.4
      thresh= 2.470E-07 alpha_mix =  0.700 |ddv_scf|^2 =  9.355E-13

     End of self-consistent calculation

     Convergence has been achieved 


     Representation #  2 mode #   2

     Self-consistent Calculation

      iter #   1 total cpu time :  1489.0 secs   av.it.:   5.8
      thresh= 1.000E-02 alpha_mix =  0.700 |ddv_scf|^2 =  3.300E-04

      iter #   2 total cpu time :  1515.6 secs   av.it.:   7.1
      thresh= 1.817E-03 alpha_mix =  0.700 |ddv_scf|^2 =  1.790E-03

      iter #   3 total cpu time :  1538.6 secs   av.it.:   5.7
      thresh= 4.231E-03 alpha_mix =  0.700 |ddv_scf|^2 =  2.786E-07

      iter #   4 total cpu time :  1568.2 secs   av.it.:   8.2
      thresh= 5.279E-05 alpha_mix =  0.700 |ddv_scf|^2 =  8.217E-09

      iter #   5 total cpu time :  1597.7 secs   av.it.:   8.2
      thresh= 9.065E-06 alpha_mix =  0.700 |ddv_scf|^2 =  5.914E-10

      iter #   6 total cpu time :  1627.1 secs   av.it.:   8.2
      thresh= 2.432E-06 alpha_mix =  0.700 |ddv_scf|^2 =  2.188E-11

      iter #   7 total cpu time :  1655.8 secs   av.it.:   7.8
      thresh= 4.678E-07 alpha_mix =  0.700 |ddv_scf|^2 =  1.856E-12

      iter #   8 total cpu time :  1684.2 secs   av.it.:   7.7
      thresh= 1.362E-07 alpha_mix =  0.700 |ddv_scf|^2 =  3.586E-12

      iter #   9 total cpu time :  1708.6 secs   av.it.:   6.2
      thresh= 1.894E-07 alpha_mix =  0.700 |ddv_scf|^2 =  4.578E-15

     End of self-consistent calculation

     Convergence has been achieved 


     Representation #  3 mode #   3

     Self-consistent Calculation

      iter #   1 total cpu time :  1735.1 secs   av.it.:   5.8
      thresh= 1.000E-02 alpha_mix =  0.700 |ddv_scf|^2 =  3.201E-04

      iter #   2 total cpu time :  1762.2 secs   av.it.:   7.1
      thresh= 1.789E-03 alpha_mix =  0.700 |ddv_scf|^2 =  1.716E-03

      iter #   3 total cpu time :  1784.7 secs   av.it.:   5.7
      thresh= 4.143E-03 alpha_mix =  0.700 |ddv_scf|^2 =  2.218E-07

      iter #   4 total cpu time :  1814.3 secs   av.it.:   8.1
      thresh= 4.709E-05 alpha_mix =  0.700 |ddv_scf|^2 =  9.257E-09

      iter #   5 total cpu time :  1843.8 secs   av.it.:   8.3
      thresh= 9.621E-06 alpha_mix =  0.700 |ddv_scf|^2 =  4.085E-10

      iter #   6 total cpu time :  1873.9 secs   av.it.:   8.2
      thresh= 2.021E-06 alpha_mix =  0.700 |ddv_scf|^2 =  2.457E-11

      iter #   7 total cpu time :  1902.3 secs   av.it.:   7.8
      thresh= 4.957E-07 alpha_mix =  0.700 |ddv_scf|^2 =  9.307E-13

     End of self-consistent calculation

     Convergence has been achieved 

     Number of q in the star =   48
     List of q in the star:
          1  -0.125000000  -0.250000000   0.375000000
          2  -0.250000000  -0.125000000   0.375000000
          3  -0.125000000  -0.375000000   0.250000000
          4   0.125000000  -0.375000000   0.250000000
          5  -0.125000000   0.250000000  -0.375000000
          6  -0.125000000   0.375000000  -0.250000000
          7   0.125000000   0.250000000  -0.375000000
          8   0.125000000   0.375000000  -0.250000000
          9   0.250000000  -0.375000000  -0.125000000
         10  -0.375000000   0.125000000  -0.250000000
         11   0.375000000   0.125000000   0.250000000
         12   0.250000000   0.125000000   0.375000000
         13  -0.375000000  -0.125000000   0.250000000
         14   0.375000000  -0.125000000  -0.250000000
         15   0.125000000  -0.250000000  -0.375000000
         16   0.250000000  -0.125000000  -0.375000000
         17  -0.250000000   0.125000000  -0.375000000
         18  -0.375000000  -0.250000000   0.125000000
         19  -0.375000000   0.250000000  -0.125000000
         20   0.375000000   0.250000000   0.125000000
         21   0.250000000  -0.125000000   0.375000000
         22  -0.250000000   0.375000000  -0.125000000
         23   0.125000000  -0.375000000  -0.250000000
         24   0.125000000   0.375000000   0.250000000
         25   0.250000000   0.125000000  -0.375000000
         26  -0.125000000  -0.250000000  -0.375000000
         27  -0.250000000   0.125000000   0.375000000
         28  -0.125000000   0.375000000   0.250000000
         29  -0.125000000   0.250000000   0.375000000
         30   0.125000000  -0.250000000   0.375000000
         31  -0.125000000  -0.375000000  -0.250000000
         32   0.125000000   0.250000000   0.375000000
         33   0.375000000  -0.250000000  -0.125000000
         34   0.250000000   0.375000000   0.125000000
         35  -0.250000000  -0.375000000   0.125000000
         36   0.375000000   0.250000000  -0.125000000
         37  -0.375000000   0.250000000   0.125000000
         38   0.375000000  -0.250000000   0.125000000
         39  -0.375000000  -0.250000000  -0.125000000
         40  -0.250000000  -0.125000000  -0.375000000
         41   0.250000000  -0.375000000   0.125000000
         42  -0.250000000  -0.375000000  -0.125000000
         43   0.250000000   0.375000000  -0.125000000
         44  -0.250000000   0.375000000   0.125000000
         45  -0.375000000   0.125000000   0.250000000
         46  -0.375000000  -0.125000000  -0.250000000
         47   0.375000000  -0.125000000   0.250000000
         48   0.375000000   0.125000000  -0.250000000

     Diagonalizing the dynamical matrix

     q = (   -0.125000000  -0.250000000   0.375000000 ) 

 **************************************************************************
     freq (    1) =       2.221560 [THz] =      74.103264 [cm-1]
     freq (    2) =       2.881592 [THz] =      96.119578 [cm-1]
     freq (    3) =       4.298021 [THz] =     143.366534 [cm-1]
 **************************************************************************

     Mode symmetry, C_1 (1)     point group:

     freq (  1 -  1) =         74.1  [cm-1]   --> A                  
     freq (  2 -  2) =         96.1  [cm-1]   --> A                  
     freq (  3 -  3) =        143.4  [cm-1]   --> A                  

     Calculation of q =   -0.1250000   0.6250000  -0.5000000

   Info: using nr1, nr2, nr3 values from input

   Info: using nr1, nr2, nr3 values from input

     Parallelization info
     --------------------
     sticks:   dense  smooth     PW     G-vecs:    dense   smooth      PW
     Min         258     130     49                 5274     1854     430
     Max         260     131     50                 5275     1855     431
     Sum        1035     523    197                21097     7419    1721



     bravais-lattice index     =            3
     lattice parameter (alat)  =       7.5964  a.u.
     unit-cell volume          =     219.1768 (a.u.)^3
     number of atoms/cell      =            1
     number of atomic types    =            1
     number of electrons       =         9.00
     number of Kohn-Sham states=            9
     kinetic-energy cutoff     =      40.0000  Ry
     charge density cutoff     =     320.0000  Ry
     Exchange-correlation      = SLA  PW   PBE  PBE ( 1  4  3  4 0 0)

     celldm(1)=   7.596406  celldm(2)=   0.000000  celldm(3)=   0.000000
     celldm(4)=   0.000000  celldm(5)=   0.000000  celldm(6)=   0.000000

     crystal axes: (cart. coord. in units of alat)
               a(1) = (   0.500000   0.500000   0.500000 )  
               a(2) = (  -0.500000   0.500000   0.500000 )  
               a(3) = (  -0.500000  -0.500000   0.500000 )  

     reciprocal axes: (cart. coord. in units 2 pi/alat)
               b(1) = (  1.000000  0.000000  1.000000 )  
               b(2) = ( -1.000000  1.000000  0.000000 )  
               b(3) = (  0.000000 -1.000000  1.000000 )  


     PseudoPot. # 1 for Na read from file:
     /home/s1333534/quantum_espresso/qe-6.1/pseudo/Na_pbe_v1.uspp.F.UPF
     MD5 check sum: 76a99c7e9422403d3e93cbc85ab7bccb
     Pseudo is Ultrasoft, Zval =  9.0
     Generated by new atomic code, or converted to UPF format
     Using radial grid of  819 points,  5 beta functions with: 
                l(1) =   0
                l(2) =   0
                l(3) =   1
                l(4) =   1
                l(5) =   2
     Q(r) pseudized with  8 coefficients,  rinner =    1.250   1.250   1.250
                                                       1.250   1.250

     atomic species   valence    mass     pseudopotential
        Na             9.00    22.99000     Na( 1.00)

     48 Sym. Ops., with inversion, found



   Cartesian axes

     site n.     atom                  positions (alat units)
         1           Na  tau(   1) = (   0.0000000   0.0000000   0.0000000  )

     number of k points=  5488  Marzari-Vanderbilt smearing, width (Ry)=  0.0200

     Number of k-points >= 100: set verbosity='high' to print them.

     Dense  grid:    21097 G-vectors     FFT dimensions: (  40,  40,  40)

     Smooth grid:     7419 G-vectors     FFT dimensions: (  27,  27,  27)

     Estimated max dynamical RAM per process >       2.07MB

     Estimated total allocated dynamical RAM >       8.29MB

     The potential is recalculated from file :
     ./_ph0/na.bcc.save/charge-density.dat

     Starting wfc are    5 atomic +    4 random wfc

     Band Structure Calculation
     Davidson diagonalization with overlap

     ethr =  1.11E-10,  avg # of iterations = 19.9

     total cpu time spent up to now is      559.3 secs

     End of band structure calculation

     Number of k-points >= 100: set verbosity='high' to print the bands.

     the Fermi energy is     2.2070 ev

     Writing output data file na.bcc.save

                                                                                

     bravais-lattice index     =            3
     lattice parameter (alat)  =       7.5964  a.u.
     unit-cell volume          =     219.1768 (a.u.)^3
     number of atoms/cell      =            1
     number of atomic types    =            1
     kinetic-energy cut-off    =      40.0000  Ry
     charge density cut-off    =     320.0000  Ry
     convergence threshold     =      1.0E-12
     beta                      =       0.7000
     number of iterations used =            4
     Exchange-correlation      = SLA  PW   PBE  PBE ( 1  4  3  4 0 0)


     celldm(1)=    7.59641  celldm(2)=    0.00000  celldm(3)=    0.00000
     celldm(4)=    0.00000  celldm(5)=    0.00000  celldm(6)=    0.00000

     crystal axes: (cart. coord. in units of alat)
               a(1) = (  0.5000  0.5000  0.5000 )  
               a(2) = ( -0.5000  0.5000  0.5000 )  
               a(3) = ( -0.5000 -0.5000  0.5000 )  

     reciprocal axes: (cart. coord. in units 2 pi/alat)
               b(1) = (  1.0000  0.0000  1.0000 )  
               b(2) = ( -1.0000  1.0000  0.0000 )  
               b(3) = (  0.0000 -1.0000  1.0000 )  


     Atoms inside the unit cell: 

     Cartesian axes

[...]
     Exchange-correlation      = SLA  PW   PBE  PBE ( 1  4  3  4 0 0)


     celldm(1)=    7.59641  celldm(2)=    0.00000  celldm(3)=    0.00000
     celldm(4)=    0.00000  celldm(5)=    0.00000  celldm(6)=    0.00000

     crystal axes: (cart. coord. in units of alat)
               a(1) = (  0.5000  0.5000  0.5000 )  
               a(2) = ( -0.5000  0.5000  0.5000 )  
               a(3) = ( -0.5000 -0.5000  0.5000 )  

     reciprocal axes: (cart. coord. in units 2 pi/alat)
               b(1) = (  1.0000  0.0000  1.0000 )  
               b(2) = ( -1.0000  1.0000  0.0000 )  
               b(3) = (  0.0000 -1.0000  1.0000 )  


     Atoms inside the unit cell: 

     Cartesian axes

     site n.  atom      mass           positions (alat units)
        1     Na  22.9900   tau(    1) = (    0.00000    0.00000    0.00000  )

     Computing dynamical matrix for 
                    q = (   0.0000000   0.8750000  -0.1250000 )

      4 Sym.Ops. (no q -> -q+G )


     G cutoff =  467.7423  (   5275 G-vectors)     FFT grid: ( 40, 40, 40)
     G cutoff =  233.8711  (   1855 G-vectors)  smooth grid: ( 27, 27, 27)

     number of k points=  1568  Marzari-Vanderbilt smearing, width (Ry)=  0.0200

     PseudoPot. # 1 for Na read from file:
     /home/s1333534/quantum_espresso/qe-6.1/pseudo/Na_pbe_v1.uspp.F.UPF
     MD5 check sum: 76a99c7e9422403d3e93cbc85ab7bccb
     Pseudo is Ultrasoft, Zval =  9.0
     Generated by new atomic code, or converted to UPF format
     Using radial grid of  819 points,  5 beta functions with: 
                l(1) =   0
                l(2) =   0
                l(3) =   1
                l(4) =   1
                l(5) =   2
     Q(r) pseudized with  8 coefficients,  rinner =    1.250   1.250   1.250
                                                       1.250   1.250

     Mode symmetry, C_2v (mm2)  point group:


     Atomic displacements:
     There are   3 irreducible representations

     Representation     1      1 modes -A_1  D_1  S_1  To be done

     Representation     2      1 modes -B_1  D_3  S_3  To be done

     Representation     3      1 modes -B_2  D_4  S_4  To be done



     Alpha used in Ewald sum =   2.8000
     PHONON       :     2h 7m CPU        2h16m WALL



     Representation #  1 mode #   1

     Self-consistent Calculation

      iter #   1 total cpu time :  8210.2 secs   av.it.:   5.6
      thresh= 1.000E-02 alpha_mix =  0.700 |ddv_scf|^2 =  2.760E-05

      iter #   2 total cpu time :  8218.2 secs   av.it.:   7.7
      thresh= 5.254E-04 alpha_mix =  0.700 |ddv_scf|^2 =  8.649E-07

      iter #   3 total cpu time :  8226.2 secs   av.it.:   7.6
      thresh= 9.300E-05 alpha_mix =  0.700 |ddv_scf|^2 =  3.077E-08

      iter #   4 total cpu time :  8234.4 secs   av.it.:   8.0
      thresh= 1.754E-05 alpha_mix =  0.700 |ddv_scf|^2 =  1.559E-09

      iter #   5 total cpu time :  8242.9 secs   av.it.:   8.0
      thresh= 3.949E-06 alpha_mix =  0.700 |ddv_scf|^2 =  1.134E-10

      iter #   6 total cpu time :  8251.1 secs   av.it.:   7.8
      thresh= 1.065E-06 alpha_mix =  0.700 |ddv_scf|^2 =  6.939E-13

     End of self-consistent calculation

     Convergence has been achieved 


     Representation #  2 mode #   2

     Self-consistent Calculation

      iter #   1 total cpu time :  8258.4 secs   av.it.:   5.5
      thresh= 1.000E-02 alpha_mix =  0.700 |ddv_scf|^2 =  2.508E-05

      iter #   2 total cpu time :  8266.3 secs   av.it.:   7.5
      thresh= 5.008E-04 alpha_mix =  0.700 |ddv_scf|^2 =  3.283E-07

      iter #   3 total cpu time :  8274.2 secs   av.it.:   7.4
      thresh= 5.730E-05 alpha_mix =  0.700 |ddv_scf|^2 =  3.041E-08

      iter #   4 total cpu time :  8282.0 secs   av.it.:   7.5
      thresh= 1.744E-05 alpha_mix =  0.700 |ddv_scf|^2 =  1.253E-10

      iter #   5 total cpu time :  8289.8 secs   av.it.:   7.4
      thresh= 1.119E-06 alpha_mix =  0.700 |ddv_scf|^2 =  5.285E-14

     End of self-consistent calculation

     Convergence has been achieved 


     Representation #  3 mode #   3

     Self-consistent Calculation

      iter #   1 total cpu time :  8297.2 secs   av.it.:   5.6
      thresh= 1.000E-02 alpha_mix =  0.700 |ddv_scf|^2 =  3.434E-05

      iter #   2 total cpu time :  8305.1 secs   av.it.:   7.4
      thresh= 5.860E-04 alpha_mix =  0.700 |ddv_scf|^2 =  1.456E-06

      iter #   3 total cpu time :  8312.8 secs   av.it.:   7.3
      thresh= 1.207E-04 alpha_mix =  0.700 |ddv_scf|^2 =  3.694E-08

      iter #   4 total cpu time :  8320.7 secs   av.it.:   7.6
      thresh= 1.922E-05 alpha_mix =  0.700 |ddv_scf|^2 =  1.169E-09

      iter #   5 total cpu time :  8328.4 secs   av.it.:   7.3
      thresh= 3.419E-06 alpha_mix =  0.700 |ddv_scf|^2 =  3.144E-12

      iter #   6 total cpu time :  8336.6 secs   av.it.:   7.8
      thresh= 1.773E-07 alpha_mix =  0.700 |ddv_scf|^2 =  4.335E-15

     End of self-consistent calculation

     Convergence has been achieved 

     Number of q in the star =   12
     List of q in the star:
          1   0.000000000   0.875000000  -0.125000000
          2   0.000000000  -0.875000000  -0.125000000
          3   0.875000000   0.000000000  -0.125000000
          4  -0.875000000   0.000000000  -0.125000000
          5   0.125000000   0.000000000  -0.875000000
          6   0.125000000   0.875000000   0.000000000
          7   0.000000000   0.875000000   0.125000000
          8   0.875000000   0.000000000   0.125000000
          9   0.125000000  -0.875000000   0.000000000
         10  -0.125000000  -0.875000000   0.000000000
         11   0.875000000  -0.125000000   0.000000000
         12   0.000000000  -0.875000000   0.125000000

     Diagonalizing the dynamical matrix

     q = (    0.000000000   0.875000000  -0.125000000 ) 

 **************************************************************************
     freq (    1) =       4.212445 [THz] =     140.512037 [cm-1]
     freq (    2) =       4.519831 [THz] =     150.765321 [cm-1]
     freq (    3) =       4.655003 [THz] =     155.274191 [cm-1]
 **************************************************************************

     Mode symmetry, C_2v (mm2)  point group:

     freq (  1 -  1) =        140.5  [cm-1]   --> B_1  D_3  S_3      
     freq (  2 -  2) =        150.8  [cm-1]   --> B_2  D_4  S_4      
     freq (  3 -  3) =        155.3  [cm-1]   --> A_1  D_1  S_1      

     Calculation of q =    0.0000000   0.0000000  -1.0000000

   Info: using nr1, nr2, nr3 values from input

   Info: using nr1, nr2, nr3 values from input

     Parallelization info
     --------------------
     sticks:   dense  smooth     PW     G-vecs:    dense   smooth      PW
     Min         258     130     45                 5274     1854     400
     Max         259     131     46                 5275     1855     401
     Sum        1035     523    181                21097     7419    1601



     bravais-lattice index     =            3
     lattice parameter (alat)  =       7.5964  a.u.
     unit-cell volume          =     219.1768 (a.u.)^3
     number of atoms/cell      =            1
     number of atomic types    =            1
     number of electrons       =         9.00
     number of Kohn-Sham states=            9
     kinetic-energy cutoff     =      40.0000  Ry
     charge density cutoff     =     320.0000  Ry
     Exchange-correlation      = SLA  PW   PBE  PBE ( 1  4  3  4 0 0)

     celldm(1)=   7.596406  celldm(2)=   0.000000  celldm(3)=   0.000000
     celldm(4)=   0.000000  celldm(5)=   0.000000  celldm(6)=   0.000000

     crystal axes: (cart. coord. in units of alat)
               a(1) = (   0.500000   0.500000   0.500000 )  
               a(2) = (  -0.500000   0.500000   0.500000 )  
               a(3) = (  -0.500000  -0.500000   0.500000 )  

     reciprocal axes: (cart. coord. in units 2 pi/alat)
               b(1) = (  1.000000  0.000000  1.000000 )  
               b(2) = ( -1.000000  1.000000  0.000000 )  
               b(3) = (  0.000000 -1.000000  1.000000 )  


     PseudoPot. # 1 for Na read from file:
     /home/s1333534/quantum_espresso/qe-6.1/pseudo/Na_pbe_v1.uspp.F.UPF
     MD5 check sum: 76a99c7e9422403d3e93cbc85ab7bccb
     Pseudo is Ultrasoft, Zval =  9.0
     Generated by new atomic code, or converted to UPF format
     Using radial grid of  819 points,  5 beta functions with: 
                l(1) =   0
                l(2) =   0
                l(3) =   1
                l(4) =   1
                l(5) =   2
     Q(r) pseudized with  8 coefficients,  rinner =    1.250   1.250   1.250
                                                       1.250   1.250

     atomic species   valence    mass     pseudopotential
        Na             9.00    22.99000     Na( 1.00)

     48 Sym. Ops., with inversion, found



   Cartesian axes

     site n.     atom                  positions (alat units)
         1           Na  tau(   1) = (   0.0000000   0.0000000   0.0000000  )

     number of k points=   200  Marzari-Vanderbilt smearing, width (Ry)=  0.0200

     Number of k-points >= 100: set verbosity='high' to print them.

     Dense  grid:    21097 G-vectors     FFT dimensions: (  40,  40,  40)

     Smooth grid:     7419 G-vectors     FFT dimensions: (  27,  27,  27)

     Estimated max dynamical RAM per process >       2.07MB

     Estimated total allocated dynamical RAM >       8.29MB

     The potential is recalculated from file :
     ./_ph0/na.bcc.save/charge-density.dat

     Starting wfc are    5 atomic +    4 random wfc

     Band Structure Calculation
     Davidson diagonalization with overlap

     ethr =  1.11E-10,  avg # of iterations = 20.3

     total cpu time spent up to now is     1836.1 secs

     End of band structure calculation

     Number of k-points >= 100: set verbosity='high' to print the bands.

     the Fermi energy is     2.2070 ev

     Writing output data file na.bcc.save

                                                                                

     bravais-lattice index     =            3
     lattice parameter (alat)  =       7.5964  a.u.
     unit-cell volume          =     219.1768 (a.u.)^3
     number of atoms/cell      =            1
     number of atomic types    =            1
     kinetic-energy cut-off    =      40.0000  Ry
     charge density cut-off    =     320.0000  Ry
     convergence threshold     =      1.0E-12
     beta                      =       0.7000
     number of iterations used =            4
     Exchange-correlation      = SLA  PW   PBE  PBE ( 1  4  3  4 0 0)


     celldm(1)=    7.59641  celldm(2)=    0.00000  celldm(3)=    0.00000
     celldm(4)=    0.00000  celldm(5)=    0.00000  celldm(6)=    0.00000

     crystal axes: (cart. coord. in units of alat)
               a(1) = (  0.5000  0.5000  0.5000 )  
               a(2) = ( -0.5000  0.5000  0.5000 )  
               a(3) = ( -0.5000 -0.5000  0.5000 )  

     reciprocal axes: (cart. coord. in units 2 pi/alat)
               b(1) = (  1.0000  0.0000  1.0000 )  
               b(2) = ( -1.0000  1.0000  0.0000 )  
               b(3) = (  0.0000 -1.0000  1.0000 )  


     Atoms inside the unit cell: 

     Cartesian axes

     site n.  atom      mass           positions (alat units)
        1     Na  22.9900   tau(    1) = (    0.00000    0.00000    0.00000  )

     Computing dynamical matrix for 
                    q = (   0.0000000   0.0000000  -1.0000000 )

     49 Sym.Ops. (with q -> -q+G )


     G cutoff =  467.7423  (   5275 G-vectors)     FFT grid: ( 40, 40, 40)
     G cutoff =  233.8711  (   1854 G-vectors)  smooth grid: ( 27, 27, 27)

     number of k points=   200  Marzari-Vanderbilt smearing, width (Ry)=  0.0200

     PseudoPot. # 1 for Na read from file:
     /home/s1333534/quantum_espresso/qe-6.1/pseudo/Na_pbe_v1.uspp.F.UPF
     MD5 check sum: 76a99c7e9422403d3e93cbc85ab7bccb
     Pseudo is Ultrasoft, Zval =  9.0
     Generated by new atomic code, or converted to UPF format
     Using radial grid of  819 points,  5 beta functions with: 
                l(1) =   0
                l(2) =   0
                l(3) =   1
                l(4) =   1
                l(5) =   2
     Q(r) pseudized with  8 coefficients,  rinner =    1.250   1.250   1.250
                                                       1.250   1.250

     Mode symmetry, O_h (m-3m)  point group:


     Atomic displacements:
     There are   1 irreducible representations

     Representation     1      3 modes -T_1u G_15  G_4-  To be done



     Alpha used in Ewald sum =   2.8000
     PHONON       :     2h 9m CPU        2h19m WALL



     Representation #  1 modes #   1  2  3

     Self-consistent Calculation

      iter #   1 total cpu time :  8346.4 secs   av.it.:   5.7
      thresh= 1.000E-02 alpha_mix =  0.700 |ddv_scf|^2 =  2.967E-06

      iter #   2 total cpu time :  8350.0 secs   av.it.:   8.4
      thresh= 1.722E-04 alpha_mix =  0.700 |ddv_scf|^2 =  4.202E-08

      iter #   3 total cpu time :  8353.5 secs   av.it.:   8.2
      thresh= 2.050E-05 alpha_mix =  0.700 |ddv_scf|^2 =  3.623E-09

      iter #   4 total cpu time :  8357.1 secs   av.it.:   8.3
      thresh= 6.019E-06 alpha_mix =  0.700 |ddv_scf|^2 =  1.431E-11

      iter #   5 total cpu time :  8360.6 secs   av.it.:   8.2
      thresh= 3.783E-07 alpha_mix =  0.700 |ddv_scf|^2 =  5.055E-15

     End of self-consistent calculation

     Convergence has been achieved 

     Number of q in the star =    1
     List of q in the star:
          1   0.000000000   0.000000000  -1.000000000

     Diagonalizing the dynamical matrix

     q = (    0.000000000   0.000000000  -1.000000000 ) 

 **************************************************************************
     freq (    1) =       4.387183 [THz] =     146.340667 [cm-1]
     freq (    2) =       4.387183 [THz] =     146.340667 [cm-1]
     freq (    3) =       4.387183 [THz] =     146.340667 [cm-1]
 **************************************************************************

     Mode symmetry, O_h (m-3m)  point group:

     freq (  1 -  3) =        146.3  [cm-1]   --> T_1u G_15  G_4-    

     init_run     :      5.36s CPU      5.42s WALL (      28 calls)
     electrons    :   1688.09s CPU   1784.37s WALL (      28 calls)

     Called by init_run:
     wfcinit      :      0.00s CPU      0.00s WALL (      28 calls)
     potinit      :      0.40s CPU      0.42s WALL (      28 calls)

     Called by electrons:
     c_bands      :   1687.79s CPU   1784.06s WALL (      28 calls)
     v_of_rho     :      0.32s CPU      0.34s WALL (      29 calls)
     newd         :      0.34s CPU      0.35s WALL (      29 calls)

     Called by c_bands:
     init_us_2    :     89.64s CPU     86.76s WALL (  899753 calls)
     cegterg      :   1553.75s CPU   1638.40s WALL (   83189 calls)

     Called by sum_band:

     Called by *egterg:
     h_psi        :   5357.36s CPU   5715.98s WALL ( 7563457 calls)
     s_psi        :    129.10s CPU    143.48s WALL (14349279 calls)
     g_psi        :      8.96s CPU     11.04s WALL ( 1265334 calls)
     cdiaghg      :    270.16s CPU    275.14s WALL ( 1328500 calls)

     Called by h_psi:
     h_psi:pot    :   5331.99s CPU   5687.25s WALL ( 7563457 calls)
     h_psi:calbec :    106.31s CPU    121.52s WALL ( 7563457 calls)
     vloc_psi     :   5116.23s CPU   5455.59s WALL ( 7563457 calls)
     add_vuspsi   :     92.45s CPU     87.67s WALL ( 7563457 calls)

     General routines
     calbec       :    236.83s CPU    238.83s WALL (15901840 calls)
     fft          :      3.15s CPU      3.35s WALL (    8917 calls)
     ffts         :      9.85s CPU     10.14s WALL (   97067 calls)
     fftw         :   5859.16s CPU   5975.67s WALL (73109543 calls)
     interpolate  :      0.59s CPU      0.65s WALL (    1237 calls)
     davcio       :     42.96s CPU     97.26s WALL ( 3395623 calls)

     Parallel routines
     fft_scatter  :    828.74s CPU   1138.24s WALL (73215527 calls)

     PHONON       :     2h 9m CPU        2h19m WALL

     INITIALIZATION: 
     phq_setup    :      1.06s CPU      1.06s WALL (      29 calls)
     phq_init     :    123.88s CPU    129.98s WALL (      29 calls)

     phq_init     :    123.88s CPU    129.98s WALL (      29 calls)
     init_vloc    :      0.08s CPU      0.08s WALL (      29 calls)
     init_us_1    :      2.79s CPU      2.80s WALL (      29 calls)
     newd         :      0.34s CPU      0.35s WALL (      29 calls)
     dvanqq       :      1.49s CPU      1.51s WALL (      29 calls)
     drho         :    100.79s CPU    105.83s WALL (      29 calls)

     DYNAMICAL MATRIX:
     dynmat0      :     12.91s CPU     13.30s WALL (      29 calls)
     phqscf       :   5908.77s CPU   6391.38s WALL (      29 calls)
     dynmatrix    :      0.03s CPU      0.04s WALL (      29 calls)

     phqscf       :   5908.77s CPU   6391.38s WALL (      29 calls)
     solve_linter :   5886.93s CPU   6368.52s WALL (      76 calls)
     drhodv       :     21.76s CPU     22.74s WALL (      76 calls)

     dynmat0      :     12.91s CPU     13.30s WALL (      29 calls)
     dynmat_us    :     12.86s CPU     13.25s WALL (      29 calls)
     d2ionq       :      0.03s CPU      0.03s WALL (      29 calls)

     dynmat_us    :     12.86s CPU     13.25s WALL (      29 calls)
     addusdynmat  :      0.00s CPU      0.00s WALL (      29 calls)

     phqscf       :   5908.77s CPU   6391.38s WALL (      29 calls)
     solve_linter :   5886.93s CPU   6368.52s WALL (      76 calls)

     solve_linter :   5886.93s CPU   6368.52s WALL (      76 calls)
     dvqpsi_us    :    171.61s CPU    182.77s WALL (   95049 calls)
     ortho        :     40.51s CPU     48.52s WALL (  634054 calls)
     cgsolve      :   4564.06s CPU   4884.23s WALL (  634054 calls)
     incdrhoscf   :    513.86s CPU    563.86s WALL (  634054 calls)
     addusddens   :     11.64s CPU     11.72s WALL (     567 calls)
     vpsifft      :    424.11s CPU    461.98s WALL (  539005 calls)
     dv_of_drho   :      3.77s CPU      3.90s WALL (     546 calls)
     mix_pot      :      0.48s CPU      1.27s WALL (     491 calls)
     ef_shift     :      0.02s CPU      0.03s WALL (       6 calls)
     localdos     :      0.08s CPU      0.08s WALL (       1 calls)
     psymdvscf    :      8.57s CPU      8.71s WALL (     425 calls)
     newdq        :     10.48s CPU     10.52s WALL (     491 calls)
     adddvscf     :     20.76s CPU     16.16s WALL (  539005 calls)
     drhodvus     :      0.02s CPU      0.03s WALL (      76 calls)

     dvqpsi_us    :    171.61s CPU    182.77s WALL (   95049 calls)
     dvqpsi_us_on :     22.02s CPU     21.91s WALL (   95049 calls)

     cgsolve      :   4564.06s CPU   4884.23s WALL (  634054 calls)
     ch_psi       :   4474.97s CPU   4801.01s WALL ( 6151768 calls)

     ch_psi       :   4474.97s CPU   4801.01s WALL ( 6151768 calls)
     h_psi        :   5357.36s CPU   5715.98s WALL ( 7563457 calls)
     last         :    241.10s CPU    270.91s WALL ( 6151768 calls)

     h_psi        :   5357.36s CPU   5715.98s WALL ( 7563457 calls)
     add_vuspsi   :     92.45s CPU     87.67s WALL ( 7563457 calls)

     incdrhoscf   :    513.86s CPU    563.86s WALL (  634054 calls)
     addusdbec    :     16.22s CPU     21.36s WALL (  729103 calls)

     drhodvus     :      0.02s CPU      0.03s WALL (      76 calls)

      General routines
     calbec       :    236.83s CPU    238.83s WALL (15901840 calls)
     fft          :      3.15s CPU      3.35s WALL (    8917 calls)
     ffts         :      9.85s CPU     10.14s WALL (   97067 calls)
     fftw         :   5859.16s CPU   5975.67s WALL (73109543 calls)
     davcio       :     42.96s CPU     97.26s WALL ( 3395623 calls)
     write_rec    :      0.39s CPU      1.35s WALL (     567 calls)


     PHONON       :     2h 9m CPU        2h19m WALL


   This run was terminated on:  14:13: 0  21Dec2017            

=------------------------------------------------------------------------------=
   JOB DONE.
=------------------------------------------------------------------------------=
