
     Program PWSCF v.6.1 (svn rev. 13369) starts on  1Feb2018 at 18:47:31 

     This program is part of the open-source Quantum ESPRESSO suite
     for quantum simulation of materials; please cite
         "P. Giannozzi et al., J. Phys.:Condens. Matter 21 395502 (2009);
          URL http://www.quantum-espresso.org", 
     in publications or presentations arising from this work. More details at
     http://www.quantum-espresso.org/quote

     Parallel version (MPI), running on    64 processors
     K-points division:     npool     =       4
     R & G space division:  proc/nbgrp/npool/nimage =      16
     Waiting for input...
     Reading input from standard input

     Current dimensions of program PWSCF are:
     Max number of different atomic species (ntypx) = 10
     Max number of k-points (npk) =  80000
     Max angular momentum in pseudopotentials (lmaxx) =  3

     Subspace diagonalization in iterative solution of the eigenvalue problem:
     a serial algorithm will be used


     Parallelization info
     --------------------
     sticks:   dense  smooth     PW     G-vecs:    dense   smooth      PW
     Min          62      31     10                 1300      461      90
     Max          63      32     11                 1303      465      94
     Sum        1003     499    163                20827     7391    1459



     bravais-lattice index     =            2
     lattice parameter (alat)  =       9.5000  a.u.
     unit-cell volume          =     214.3438 (a.u.)^3
     number of atoms/cell      =            1
     number of atomic types    =            1
     number of electrons       =         9.00
     number of Kohn-Sham states=            9
     kinetic-energy cutoff     =      40.0000  Ry
     charge density cutoff     =     320.0000  Ry
     convergence threshold     =      1.0E-10
     mixing beta               =       0.7000
     number of iterations used =            8  plain     mixing
     Exchange-correlation      = SLA  PW   PBE  PBE ( 1  4  3  4 0 0)

     celldm(1)=   9.500000  celldm(2)=   0.000000  celldm(3)=   0.000000
     celldm(4)=   0.000000  celldm(5)=   0.000000  celldm(6)=   0.000000

     crystal axes: (cart. coord. in units of alat)
               a(1) = (  -0.500000   0.000000   0.500000 )  
               a(2) = (   0.000000   0.500000   0.500000 )  
               a(3) = (  -0.500000   0.500000   0.000000 )  

     reciprocal axes: (cart. coord. in units 2 pi/alat)
               b(1) = ( -1.000000 -1.000000  1.000000 )  
               b(2) = (  1.000000  1.000000  1.000000 )  
               b(3) = ( -1.000000  1.000000 -1.000000 )  


     PseudoPot. # 1 for Na read from file:
     /home/s1333534/quantum_espresso/qe-6.1/pseudo/Na_pbe_v1.uspp.F.UPF
     MD5 check sum: 76a99c7e9422403d3e93cbc85ab7bccb
     Pseudo is Ultrasoft, Zval =  9.0
     Generated by new atomic code, or converted to UPF format
     Using radial grid of  819 points,  5 beta functions with: 
                l(1) =   0
                l(2) =   0
                l(3) =   1
                l(4) =   1
                l(5) =   2
     Q(r) pseudized with  8 coefficients,  rinner =    1.250   1.250   1.250
                                                       1.250   1.250

     atomic species   valence    mass     pseudopotential
        Na             9.00    22.99000     Na( 1.00)

     48 Sym. Ops., with inversion, found



   Cartesian axes

     site n.     atom                  positions (alat units)
         1           Na  tau(   1) = (   0.0000000   0.0000000   0.0000000  )

     number of k points=   770  Marzari-Vanderbilt smearing, width (Ry)=  0.0200

     Number of k-points >= 100: set verbosity='high' to print them.

     Dense  grid:    20827 G-vectors     FFT dimensions: (  40,  40,  40)

     Smooth grid:     7391 G-vectors     FFT dimensions: (  27,  27,  27)

     Estimated max dynamical RAM per process >       2.48MB

     Estimated total allocated dynamical RAM >     158.65MB

     Initial potential from superposition of free atoms

     starting charge    8.99371, renormalised to    9.00000
     Starting wfc are    5 randomized atomic wfcs +    4 random wfc

     total cpu time spent up to now is        1.0 secs

     per-process dynamical memory:     8.6 Mb

     Self-consistent Calculation

     iteration #  1     ecut=    40.00 Ry     beta=0.70
     Davidson diagonalization with overlap
     ethr =  1.00E-02,  avg # of iterations =  5.4

     Threshold (ethr) on eigenvalues was too large:
     Diagonalizing with lowered threshold

     Davidson diagonalization with overlap
     ethr =  1.08E-05,  avg # of iterations =  3.7

     total cpu time spent up to now is        8.1 secs

     total energy              =     -95.10474638 Ry
     Harris-Foulkes estimate   =     -95.10503574 Ry
     estimated scf accuracy    <       0.00097013 Ry

     iteration #  2     ecut=    40.00 Ry     beta=0.70
     Davidson diagonalization with overlap
     ethr =  1.08E-05,  avg # of iterations =  2.0

     total cpu time spent up to now is       10.2 secs

     total energy              =     -95.10486163 Ry
     Harris-Foulkes estimate   =     -95.10488798 Ry
     estimated scf accuracy    <       0.00010727 Ry

     iteration #  3     ecut=    40.00 Ry     beta=0.70
     Davidson diagonalization with overlap
     ethr =  1.19E-06,  avg # of iterations =  2.1

     total cpu time spent up to now is       12.4 secs

     total energy              =     -95.10487432 Ry
     Harris-Foulkes estimate   =     -95.10487552 Ry
     estimated scf accuracy    <       0.00000641 Ry

     iteration #  4     ecut=    40.00 Ry     beta=0.70
     Davidson diagonalization with overlap
     ethr =  7.12E-08,  avg # of iterations =  1.0

     total cpu time spent up to now is       14.3 secs

     total energy              =     -95.10487492 Ry
     Harris-Foulkes estimate   =     -95.10487486 Ry
     estimated scf accuracy    <          9.2E-09 Ry

     iteration #  5     ecut=    40.00 Ry     beta=0.70
     Davidson diagonalization with overlap
     ethr =  1.02E-10,  avg # of iterations =  3.0

     total cpu time spent up to now is       16.9 secs

     total energy              =     -95.10487495 Ry
     Harris-Foulkes estimate   =     -95.10487495 Ry
     estimated scf accuracy    <          1.6E-09 Ry

     iteration #  6     ecut=    40.00 Ry     beta=0.70
     Davidson diagonalization with overlap
     ethr =  1.73E-11,  avg # of iterations =  1.6

     total cpu time spent up to now is       19.0 secs

     End of self-consistent calculation

     Number of k-points >= 100: set verbosity='high' to print the bands.

     the Fermi energy is     2.3028 ev

!    total energy              =     -95.10487495 Ry
     Harris-Foulkes estimate   =     -95.10487495 Ry
     estimated scf accuracy    <          4.1E-11 Ry

     The total energy is the sum of the following terms:

     one-electron contribution =     -84.70663388 Ry
     hartree contribution      =      42.98315274 Ry
     xc contribution           =     -14.28937061 Ry
     ewald contribution        =     -39.09198190 Ry
     smearing contrib. (-TS)   =      -0.00004131 Ry

     convergence has been achieved in   6 iterations


     Computing stress (Cartesian axis) and pressure

          total   stress  (Ry/bohr**3)                   (kbar)     P=   12.65
   0.00008596  -0.00000000  -0.00000000         12.65     -0.00     -0.00
  -0.00000000   0.00008596   0.00000000         -0.00     12.65      0.00
  -0.00000000   0.00000000   0.00008596         -0.00      0.00     12.65


     Writing output data file na.fcc.save

     init_run     :      0.73s CPU      0.79s WALL (       1 calls)
     electrons    :     16.87s CPU     18.01s WALL (       1 calls)
     stress       :      0.36s CPU      0.37s WALL (       1 calls)

     Called by init_run:
     wfcinit      :      0.55s CPU      0.58s WALL (       1 calls)
     potinit      :      0.03s CPU      0.04s WALL (       1 calls)

     Called by electrons:
     c_bands      :     14.59s CPU     15.61s WALL (       7 calls)
     sum_band     :      2.12s CPU      2.23s WALL (       7 calls)
     v_of_rho     :      0.07s CPU      0.07s WALL (       7 calls)
     newd         :      0.06s CPU      0.06s WALL (       7 calls)
     mix_rho      :      0.01s CPU      0.01s WALL (       7 calls)

     Called by c_bands:
     init_us_2    :      0.22s CPU      0.23s WALL (    3088 calls)
     cegterg      :     12.86s CPU     13.86s WALL (    1351 calls)

     Called by sum_band:
     sum_band:bec :      0.01s CPU      0.02s WALL (    1351 calls)
     addusdens    :      0.07s CPU      0.07s WALL (       7 calls)

     Called by *egterg:
     h_psi        :      9.49s CPU     10.06s WALL (    5303 calls)
     s_psi        :      0.10s CPU      0.11s WALL (    5303 calls)
     g_psi        :      0.03s CPU      0.03s WALL (    3759 calls)
     cdiaghg      :      2.23s CPU      2.42s WALL (    4917 calls)

     Called by h_psi:
     h_psi:pot    :      9.45s CPU     10.01s WALL (    5303 calls)
     h_psi:calbec :      0.40s CPU      0.42s WALL (    5303 calls)
     vloc_psi     :      8.90s CPU      9.43s WALL (    5303 calls)
     add_vuspsi   :      0.10s CPU      0.11s WALL (    5303 calls)

     General routines
     calbec       :      0.51s CPU      0.54s WALL (    6847 calls)
     fft          :      0.09s CPU      0.09s WALL (     117 calls)
     ffts         :      0.01s CPU      0.01s WALL (      14 calls)
     fftw         :      9.54s CPU     10.10s WALL (   78697 calls)
     interpolate  :      0.02s CPU      0.02s WALL (      14 calls)
     davcio       :      0.00s CPU      0.07s WALL (     193 calls)

     Parallel routines
     fft_scatter  :      4.65s CPU      4.92s WALL (   78828 calls)

     PWSCF        :    20.95s CPU        22.44s WALL


   This run was terminated on:  18:47:54   1Feb2018            

=------------------------------------------------------------------------------=
   JOB DONE.
=------------------------------------------------------------------------------=
