
     Program PWSCF v.6.1 (svn rev. 13369) starts on 20Dec2017 at 15:28:56 

     This program is part of the open-source Quantum ESPRESSO suite
     for quantum simulation of materials; please cite
         "P. Giannozzi et al., J. Phys.:Condens. Matter 21 395502 (2009);
          URL http://www.quantum-espresso.org", 
     in publications or presentations arising from this work. More details at
     http://www.quantum-espresso.org/quote

     Parallel version (MPI), running on     4 processors
     R & G space division:  proc/nbgrp/npool/nimage =       4
     Waiting for input...
     Reading input from standard input

     Current dimensions of program PWSCF are:
     Max number of different atomic species (ntypx) = 10
     Max number of k-points (npk) =  40000
     Max angular momentum in pseudopotentials (lmaxx) =  3

     Subspace diagonalization in iterative solution of the eigenvalue problem:
     a serial algorithm will be used


     Parallelization info
     --------------------
     sticks:   dense  smooth     PW     G-vecs:    dense   smooth      PW
     Min         297     148     49                 6733     2394     457
     Max         298     150     50                 6734     2395     460
     Sum        1189     595    199                26933     9577    1837



     bravais-lattice index     =            2
     lattice parameter (alat)  =      10.3729  a.u.
     unit-cell volume          =     279.0244 (a.u.)^3
     number of atoms/cell      =            1
     number of atomic types    =            1
     number of electrons       =         9.00
     number of Kohn-Sham states=            9
     kinetic-energy cutoff     =      40.0000  Ry
     charge density cutoff     =     320.0000  Ry
     convergence threshold     =      1.0E-08
     mixing beta               =       0.7000
     number of iterations used =            8  plain     mixing
     Exchange-correlation      = SLA  PW   PBE  PBE ( 1  4  3  4 0 0)
     nstep                     =           50


     celldm(1)=  10.372913  celldm(2)=   0.000000  celldm(3)=   0.000000
     celldm(4)=   0.000000  celldm(5)=   0.000000  celldm(6)=   0.000000

     crystal axes: (cart. coord. in units of alat)
               a(1) = (  -0.500000   0.000000   0.500000 )  
               a(2) = (   0.000000   0.500000   0.500000 )  
               a(3) = (  -0.500000   0.500000   0.000000 )  

     reciprocal axes: (cart. coord. in units 2 pi/alat)
               b(1) = ( -1.000000 -1.000000  1.000000 )  
               b(2) = (  1.000000  1.000000  1.000000 )  
               b(3) = ( -1.000000  1.000000 -1.000000 )  


     PseudoPot. # 1 for Na read from file:
     /home/s1333534/quantum_espresso/qe-6.1/pseudo/Na_pbe_v1.uspp.F.UPF
     MD5 check sum: 76a99c7e9422403d3e93cbc85ab7bccb
     Pseudo is Ultrasoft, Zval =  9.0
     Generated by new atomic code, or converted to UPF format
     Using radial grid of  819 points,  5 beta functions with: 
                l(1) =   0
                l(2) =   0
                l(3) =   1
                l(4) =   1
                l(5) =   2
     Q(r) pseudized with  8 coefficients,  rinner =    1.250   1.250   1.250
                                                       1.250   1.250

     atomic species   valence    mass     pseudopotential
        Na             9.00    22.99000     Na( 1.00)

     48 Sym. Ops., with inversion, found



   Cartesian axes

     site n.     atom                  positions (alat units)
         1           Na  tau(   1) = (   0.0000000   0.0000000   0.0000000  )

     number of k points=   770  Marzari-Vanderbilt smearing, width (Ry)=  0.0200

     Number of k-points >= 100: set verbosity='high' to print them.

     Dense  grid:    26933 G-vectors     FFT dimensions: (  45,  45,  45)

     Smooth grid:     9577 G-vectors     FFT dimensions: (  30,  30,  30)

     Estimated max dynamical RAM per process >      36.31MB

     Estimated total allocated dynamical RAM >     145.25MB

     Initial potential from superposition of free atoms

     starting charge    8.99371, renormalised to    9.00000
     Starting wfc are    5 randomized atomic wfcs +    4 random wfc

     total cpu time spent up to now is        2.8 secs

     per-process dynamical memory:    45.9 Mb

     Self-consistent Calculation

     iteration #  1     ecut=    40.00 Ry     beta=0.70
     Davidson diagonalization with overlap
     ethr =  1.00E-02,  avg # of iterations =  5.6

     Threshold (ethr) on eigenvalues was too large:
     Diagonalizing with lowered threshold

     Davidson diagonalization with overlap
     ethr =  9.67E-06,  avg # of iterations =  4.3

     total cpu time spent up to now is       20.9 secs

     total energy              =     -95.10574723 Ry
     Harris-Foulkes estimate   =     -95.10589128 Ry
     estimated scf accuracy    <       0.00087066 Ry

     iteration #  2     ecut=    40.00 Ry     beta=0.70
     Davidson diagonalization with overlap
     ethr =  9.67E-06,  avg # of iterations =  1.8

     total cpu time spent up to now is       26.6 secs

     total energy              =     -95.10583687 Ry
     Harris-Foulkes estimate   =     -95.10585428 Ry
     estimated scf accuracy    <       0.00009407 Ry

     iteration #  3     ecut=    40.00 Ry     beta=0.70
     Davidson diagonalization with overlap
     ethr =  1.05E-06,  avg # of iterations =  2.1

     total cpu time spent up to now is       32.7 secs

     total energy              =     -95.10584936 Ry
     Harris-Foulkes estimate   =     -95.10585004 Ry
     estimated scf accuracy    <       0.00000549 Ry

     iteration #  4     ecut=    40.00 Ry     beta=0.70
     Davidson diagonalization with overlap
     ethr =  6.10E-08,  avg # of iterations =  1.0

     total cpu time spent up to now is       38.0 secs

     total energy              =     -95.10584990 Ry
     Harris-Foulkes estimate   =     -95.10584986 Ry
     estimated scf accuracy    <       0.00000002 Ry

     iteration #  5     ecut=    40.00 Ry     beta=0.70
     Davidson diagonalization with overlap
     ethr =  2.05E-10,  avg # of iterations =  3.0

     total cpu time spent up to now is       45.3 secs

     End of self-consistent calculation

     Number of k-points >= 100: set verbosity='high' to print the bands.

     the Fermi energy is     1.1757 ev

!    total energy              =     -95.10584993 Ry
     Harris-Foulkes estimate   =     -95.10584993 Ry
     estimated scf accuracy    <          1.5E-09 Ry

     The total energy is the sum of the following terms:

     one-electron contribution =     -90.48031518 Ry
     hartree contribution      =      45.43178721 Ry
     xc contribution           =     -14.25500096 Ry
     ewald contribution        =     -35.80226912 Ry
     smearing contrib. (-TS)   =      -0.00005189 Ry

     convergence has been achieved in   5 iterations

     Forces acting on atoms (cartesian axes, Ry/au):

     atom    1 type  1   force =     0.00000000    0.00000000    0.00000000

     Total force =     0.000000     Total SCF correction =     0.000000


     Computing stress (Cartesian axis) and pressure

          total   stress  (Ry/bohr**3)                   (kbar)     P=   -9.24
  -0.00006278  -0.00000000   0.00000000         -9.24     -0.00      0.00
  -0.00000000  -0.00006278   0.00000000         -0.00     -9.24      0.00
   0.00000000  -0.00000000  -0.00006278          0.00     -0.00     -9.24


     BFGS Geometry Optimization

     number of scf cycles    =   1
     number of bfgs steps    =   0

     enthalpy new            =     -95.1248176314 Ry

     new trust radius        =       0.0004338808 bohr
     new conv_thr            =       0.0000000100 Ry

     new unit-cell volume =    279.13316 a.u.^3 (    41.36327 Ang^3 )
     density =      0.92294 g/cm^3

CELL_PARAMETERS (alat= 10.37291315)
  -0.500064937   0.000000000   0.500064937
  -0.000000000   0.500064937   0.500064937
  -0.500064937   0.500064937  -0.000000000

ATOMIC_POSITIONS (crystal)
Na       0.000000000   0.000000000   0.000000000



     Writing output data file na.fcc.save
     NEW-OLD atomic charge density approx. for the potential
     extrapolated charge    9.00350, renormalised to    9.00000

     total cpu time spent up to now is       48.6 secs

     per-process dynamical memory:    58.6 Mb

     Self-consistent Calculation

     iteration #  1     ecut=    40.00 Ry     beta=0.70
     Davidson diagonalization with overlap
     ethr =  1.00E-06,  avg # of iterations =  2.0

     Threshold (ethr) on eigenvalues was too large:
     Diagonalizing with lowered threshold

     Davidson diagonalization with overlap
     ethr =  5.15E-08,  avg # of iterations =  1.0

     total cpu time spent up to now is       60.2 secs

     total energy              =     -95.10583471 Ry
     Harris-Foulkes estimate   =     -95.07767856 Ry
     estimated scf accuracy    <       0.00000464 Ry

     iteration #  2     ecut=    40.00 Ry     beta=0.70
     Davidson diagonalization with overlap
     ethr =  5.16E-08,  avg # of iterations =  3.0

     total cpu time spent up to now is       67.5 secs

     total energy              =     -95.10584312 Ry
     Harris-Foulkes estimate   =     -95.10584650 Ry
     estimated scf accuracy    <       0.00000769 Ry

     iteration #  3     ecut=    40.00 Ry     beta=0.70
     Davidson diagonalization with overlap
     ethr =  5.16E-08,  avg # of iterations =  1.7

     total cpu time spent up to now is       73.2 secs

     total energy              =     -95.10584315 Ry
     Harris-Foulkes estimate   =     -95.10584362 Ry
     estimated scf accuracy    <       0.00000150 Ry

     iteration #  4     ecut=    40.00 Ry     beta=0.70
     Davidson diagonalization with overlap
     ethr =  1.66E-08,  avg # of iterations =  1.0

     total cpu time spent up to now is       78.5 secs

     total energy              =     -95.10584303 Ry
     Harris-Foulkes estimate   =     -95.10584321 Ry
     estimated scf accuracy    <       0.00000053 Ry

     iteration #  5     ecut=    40.00 Ry     beta=0.70
     Davidson diagonalization with overlap
     ethr =  5.87E-09,  avg # of iterations =  1.0

     total cpu time spent up to now is       83.8 secs

     total energy              =     -95.10584300 Ry
     Harris-Foulkes estimate   =     -95.10584305 Ry
     estimated scf accuracy    <       0.00000018 Ry

     iteration #  6     ecut=    40.00 Ry     beta=0.70
     Davidson diagonalization with overlap
     ethr =  1.96E-09,  avg # of iterations =  1.0

     total cpu time spent up to now is       89.1 secs

     total energy              =     -95.10584295 Ry
     Harris-Foulkes estimate   =     -95.10584300 Ry
     estimated scf accuracy    <       0.00000007 Ry

     iteration #  7     ecut=    40.00 Ry     beta=0.70
     Davidson diagonalization with overlap
     ethr =  8.17E-10,  avg # of iterations =  2.0

     total cpu time spent up to now is       95.6 secs

     End of self-consistent calculation

     Number of k-points >= 100: set verbosity='high' to print the bands.

     the Fermi energy is     1.1743 ev

!    total energy              =     -95.10584297 Ry
     Harris-Foulkes estimate   =     -95.10584297 Ry
     estimated scf accuracy    <          2.0E-09 Ry

     The total energy is the sum of the following terms:

     one-electron contribution =     -90.48823507 Ry
     hartree contribution      =      45.43495740 Ry
     xc contribution           =     -14.25489342 Ry
     ewald contribution        =     -35.79761997 Ry
     smearing contrib. (-TS)   =      -0.00005191 Ry

     convergence has been achieved in   7 iterations

     Forces acting on atoms (cartesian axes, Ry/au):

     atom    1 type  1   force =     0.00000000    0.00000000    0.00000000

     Total force =     0.000000     Total SCF correction =     0.000000


     Computing stress (Cartesian axis) and pressure

          total   stress  (Ry/bohr**3)                   (kbar)     P=   -9.74
  -0.00006623   0.00000000   0.00000000         -9.74      0.00      0.00
   0.00000000  -0.00006623  -0.00000000          0.00     -9.74     -0.00
   0.00000000  -0.00000000  -0.00006623          0.00     -0.00     -9.74


     bfgs converged in   2 scf cycles and   1 bfgs steps
     (criteria: energy <  1.0E-04 Ry, force <  1.0E-03Ry/Bohr, cell <  5.0E-01kbar)

     End of BFGS Geometry Optimization

     Final enthalpy =     -95.1248180595 Ry
Begin final coordinates
     new unit-cell volume =    279.13316 a.u.^3 (    41.36327 Ang^3 )
     density =      0.92294 g/cm^3

CELL_PARAMETERS (alat= 10.37291315)
  -0.500064937   0.000000000   0.500064937
  -0.000000000   0.500064937   0.500064937
  -0.500064937   0.500064937  -0.000000000

ATOMIC_POSITIONS (crystal)
Na       0.000000000   0.000000000   0.000000000
End final coordinates



     A final scf calculation at the relaxed structure.
     The G-vectors are recalculated for the final unit cell
     Results may differ from those at the preceding step.

     Parallelization info
     --------------------
     sticks:   dense  smooth     PW     G-vecs:    dense   smooth      PW
     Min         297     148     49                 6733     2394     457
     Max         298     150     50                 6734     2395     460
     Sum        1189     595    199                26933     9577    1837



     bravais-lattice index     =            2
     lattice parameter (alat)  =      10.3729  a.u.
     unit-cell volume          =     279.1332 (a.u.)^3
     number of atoms/cell      =            1
     number of atomic types    =            1
     number of electrons       =         9.00
     number of Kohn-Sham states=            9
     kinetic-energy cutoff     =      40.0000  Ry
     charge density cutoff     =     320.0000  Ry
     convergence threshold     =      1.0E-08
     mixing beta               =       0.7000
     number of iterations used =            8  plain     mixing
     Exchange-correlation      = SLA  PW   PBE  PBE ( 1  4  3  4 0 0)

     celldm(1)=  10.372913  celldm(2)=   0.000000  celldm(3)=   0.000000
     celldm(4)=   0.000000  celldm(5)=   0.000000  celldm(6)=   0.000000

     crystal axes: (cart. coord. in units of alat)
               a(1) = (  -0.500065   0.000000   0.500065 )  
               a(2) = (  -0.000000   0.500065   0.500065 )  
               a(3) = (  -0.500065   0.500065  -0.000000 )  

     reciprocal axes: (cart. coord. in units 2 pi/alat)
               b(1) = ( -0.999870 -0.999870  0.999870 )  
               b(2) = (  0.999870  0.999870  0.999870 )  
               b(3) = ( -0.999870  0.999870 -0.999870 )  


     PseudoPot. # 1 for Na read from file:
     /home/s1333534/quantum_espresso/qe-6.1/pseudo/Na_pbe_v1.uspp.F.UPF
     MD5 check sum: 76a99c7e9422403d3e93cbc85ab7bccb
     Pseudo is Ultrasoft, Zval =  9.0
     Generated by new atomic code, or converted to UPF format
     Using radial grid of  819 points,  5 beta functions with: 
                l(1) =   0
                l(2) =   0
                l(3) =   1
                l(4) =   1
                l(5) =   2
     Q(r) pseudized with  8 coefficients,  rinner =    1.250   1.250   1.250
                                                       1.250   1.250

     atomic species   valence    mass     pseudopotential
        Na             9.00    22.99000     Na( 1.00)

     48 Sym. Ops., with inversion, found



   Cartesian axes

     site n.     atom                  positions (alat units)
         1           Na  tau(   1) = (  -0.0000000   0.0000000   0.0000000  )

     number of k points=   770  Marzari-Vanderbilt smearing, width (Ry)=  0.0200

     Number of k-points >= 100: set verbosity='high' to print them.

     Dense  grid:    26933 G-vectors     FFT dimensions: (  45,  45,  45)

     Smooth grid:     9577 G-vectors     FFT dimensions: (  30,  30,  30)

     Estimated max dynamical RAM per process >      36.31MB

     Estimated total allocated dynamical RAM >     145.25MB

     Initial potential from superposition of free atoms

     starting charge    8.99371, renormalised to    9.00000
     Starting wfc are    5 randomized atomic wfcs +    4 random wfc

     Writing output data file na.fcc.save

     total cpu time spent up to now is      101.0 secs

     per-process dynamical memory:    54.9 Mb

     Self-consistent Calculation

     iteration #  1     ecut=    40.00 Ry     beta=0.70
     Davidson diagonalization with overlap
     c_bands:  1 eigenvalues not converged
     c_bands:  1 eigenvalues not converged
     c_bands:  1 eigenvalues not converged
     c_bands:  1 eigenvalues not converged
     c_bands:  1 eigenvalues not converged
     c_bands:  1 eigenvalues not converged
     c_bands:  1 eigenvalues not converged
     c_bands:  1 eigenvalues not converged
     c_bands:  1 eigenvalues not converged
     c_bands:  1 eigenvalues not converged
     c_bands:  1 eigenvalues not converged
     c_bands:  1 eigenvalues not converged
     c_bands:  1 eigenvalues not converged
     c_bands:  1 eigenvalues not converged
     c_bands:  1 eigenvalues not converged
     c_bands:  1 eigenvalues not converged
     c_bands:  1 eigenvalues not converged
     c_bands:  1 eigenvalues not converged
     c_bands:  1 eigenvalues not converged
     ethr =  1.00E-06,  avg # of iterations = 11.8

     total cpu time spent up to now is      118.9 secs

     total energy              =     -95.10573891 Ry
     Harris-Foulkes estimate   =     -95.10588715 Ry
     estimated scf accuracy    <       0.00087423 Ry

     iteration #  2     ecut=    40.00 Ry     beta=0.70
     Davidson diagonalization with overlap
     ethr =  9.71E-06,  avg # of iterations =  2.0

     total cpu time spent up to now is      124.9 secs

     total energy              =     -95.10583256 Ry
     Harris-Foulkes estimate   =     -95.10585130 Ry
     estimated scf accuracy    <       0.00009659 Ry

     iteration #  3     ecut=    40.00 Ry     beta=0.70
     Davidson diagonalization with overlap
     ethr =  1.07E-06,  avg # of iterations =  2.0

     total cpu time spent up to now is      131.1 secs

     total energy              =     -95.10584435 Ry
     Harris-Foulkes estimate   =     -95.10584527 Ry
     estimated scf accuracy    <       0.00000592 Ry

     iteration #  4     ecut=    40.00 Ry     beta=0.70
     Davidson diagonalization with overlap
     ethr =  6.58E-08,  avg # of iterations =  1.0

     total cpu time spent up to now is      136.5 secs

     total energy              =     -95.10584492 Ry
     Harris-Foulkes estimate   =     -95.10584487 Ry
     estimated scf accuracy    <       0.00000001 Ry

     iteration #  5     ecut=    40.00 Ry     beta=0.70
     Davidson diagonalization with overlap
     ethr =  1.59E-10,  avg # of iterations =  3.0

     total cpu time spent up to now is      143.9 secs

     End of self-consistent calculation

     Number of k-points >= 100: set verbosity='high' to print the bands.

     the Fermi energy is     1.1743 ev

!    total energy              =     -95.10584495 Ry
     Harris-Foulkes estimate   =     -95.10584495 Ry
     estimated scf accuracy    <          1.9E-09 Ry

     The total energy is the sum of the following terms:

     one-electron contribution =     -90.48853357 Ry
     hartree contribution      =      45.43532005 Ry
     xc contribution           =     -14.25495956 Ry
     ewald contribution        =     -35.79761997 Ry
     smearing contrib. (-TS)   =      -0.00005191 Ry

     convergence has been achieved in   5 iterations

     Forces acting on atoms (cartesian axes, Ry/au):

     atom    1 type  1   force =     0.00000000    0.00000000    0.00000000

     Total force =     0.000000     Total SCF correction =     0.000000


     Computing stress (Cartesian axis) and pressure

          total   stress  (Ry/bohr**3)                   (kbar)     P=   -9.21
  -0.00006263  -0.00000000   0.00000000         -9.21     -0.00      0.00
  -0.00000000  -0.00006263   0.00000000         -0.00     -9.21      0.00
   0.00000000   0.00000000  -0.00006263          0.00      0.00     -9.21


     Writing output data file na.fcc.save

     init_run     :      4.69s CPU      5.07s WALL (       2 calls)
     electrons    :    121.79s CPU    132.34s WALL (       3 calls)
     update_pot   :      0.25s CPU      0.26s WALL (       1 calls)
     forces       :      0.85s CPU      0.90s WALL (       3 calls)
     stress       :      5.29s CPU      5.45s WALL (       3 calls)

     Called by init_run:
     wfcinit      :      3.84s CPU      4.18s WALL (       2 calls)
     potinit      :      0.12s CPU      0.12s WALL (       2 calls)

     Called by electrons:
     c_bands      :    102.14s CPU    111.14s WALL (      19 calls)
     sum_band     :     19.04s CPU     20.56s WALL (      19 calls)
     v_of_rho     :      0.35s CPU      0.37s WALL (      20 calls)
     newd         :      0.31s CPU      0.33s WALL (      20 calls)
     mix_rho      :      0.02s CPU      0.02s WALL (      19 calls)

     Called by c_bands:
     init_us_2    :      4.58s CPU      4.53s WALL (   35420 calls)
     cegterg      :     97.84s CPU    106.73s WALL (   14630 calls)

     Called by sum_band:
     sum_band:bec :      0.02s CPU      0.06s WALL (   14630 calls)
     addusdens    :      0.38s CPU      0.40s WALL (      19 calls)

     Called by *egterg:
     h_psi        :     84.39s CPU     92.14s WALL (   54864 calls)
     s_psi        :      1.04s CPU      0.91s WALL (   54864 calls)
     g_psi        :      0.53s CPU      0.56s WALL (   38694 calls)
     cdiaghg      :      7.97s CPU      8.48s WALL (   51014 calls)

     Called by h_psi:
     h_psi:pot    :     84.09s CPU     91.64s WALL (   54864 calls)
     h_psi:calbec :      1.92s CPU      1.81s WALL (   54864 calls)
     vloc_psi     :     81.29s CPU     88.66s WALL (   54864 calls)
     add_vuspsi   :      0.80s CPU      1.02s WALL (   54864 calls)

     General routines
     calbec       :      3.08s CPU      2.96s WALL (   81044 calls)
     fft          :      0.16s CPU      0.18s WALL (     341 calls)
     ffts         :      0.01s CPU      0.01s WALL (      39 calls)
     fftw         :     89.09s CPU     91.28s WALL (  853220 calls)
     interpolate  :      0.03s CPU      0.03s WALL (      39 calls)
     davcio       :      0.01s CPU      0.03s WALL (    1540 calls)

     Parallel routines
     fft_scatter  :     11.97s CPU     16.09s WALL (  853600 calls)

     PWSCF        :  2m15.02s CPU     2m26.62s WALL


   This run was terminated on:  15:31:23  20Dec2017            

=------------------------------------------------------------------------------=
   JOB DONE.
=------------------------------------------------------------------------------=
