
     Program PWSCF v.6.1 (svn rev. 13369) starts on 20Dec2017 at 15:42:28 

     This program is part of the open-source Quantum ESPRESSO suite
     for quantum simulation of materials; please cite
         "P. Giannozzi et al., J. Phys.:Condens. Matter 21 395502 (2009);
          URL http://www.quantum-espresso.org", 
     in publications or presentations arising from this work. More details at
     http://www.quantum-espresso.org/quote

     Parallel version (MPI), running on     4 processors
     R & G space division:  proc/nbgrp/npool/nimage =       4
     Waiting for input...
     Reading input from standard input

     Current dimensions of program PWSCF are:
     Max number of different atomic species (ntypx) = 10
     Max number of k-points (npk) =  40000
     Max angular momentum in pseudopotentials (lmaxx) =  3

     Subspace diagonalization in iterative solution of the eigenvalue problem:
     a serial algorithm will be used


     Parallelization info
     --------------------
     sticks:   dense  smooth     PW     G-vecs:    dense   smooth      PW
     Min         222     109     37                 4393     1557     309
     Max         223     110     38                 4394     1558     312
     Sum         889     439    151                17573     6231    1243



     bravais-lattice index     =            2
     lattice parameter (alat)  =       9.0090  a.u.
     unit-cell volume          =     182.7948 (a.u.)^3
     number of atoms/cell      =            1
     number of atomic types    =            1
     number of electrons       =         9.00
     number of Kohn-Sham states=            9
     kinetic-energy cutoff     =      40.0000  Ry
     charge density cutoff     =     320.0000  Ry
     convergence threshold     =      1.0E-08
     mixing beta               =       0.7000
     number of iterations used =            8  plain     mixing
     Exchange-correlation      = SLA  PW   PBE  PBE ( 1  4  3  4 0 0)
     nstep                     =           50


     celldm(1)=   9.008960  celldm(2)=   0.000000  celldm(3)=   0.000000
     celldm(4)=   0.000000  celldm(5)=   0.000000  celldm(6)=   0.000000

     crystal axes: (cart. coord. in units of alat)
               a(1) = (  -0.500000   0.000000   0.500000 )  
               a(2) = (   0.000000   0.500000   0.500000 )  
               a(3) = (  -0.500000   0.500000   0.000000 )  

     reciprocal axes: (cart. coord. in units 2 pi/alat)
               b(1) = ( -1.000000 -1.000000  1.000000 )  
               b(2) = (  1.000000  1.000000  1.000000 )  
               b(3) = ( -1.000000  1.000000 -1.000000 )  


     PseudoPot. # 1 for Na read from file:
     /home/s1333534/quantum_espresso/qe-6.1/pseudo/Na_pbe_v1.uspp.F.UPF
     MD5 check sum: 76a99c7e9422403d3e93cbc85ab7bccb
     Pseudo is Ultrasoft, Zval =  9.0
     Generated by new atomic code, or converted to UPF format
     Using radial grid of  819 points,  5 beta functions with: 
                l(1) =   0
                l(2) =   0
                l(3) =   1
                l(4) =   1
                l(5) =   2
     Q(r) pseudized with  8 coefficients,  rinner =    1.250   1.250   1.250
                                                       1.250   1.250

     atomic species   valence    mass     pseudopotential
        Na             9.00    22.99000     Na( 1.00)

     48 Sym. Ops., with inversion, found



   Cartesian axes

     site n.     atom                  positions (alat units)
         1           Na  tau(   1) = (   0.0000000   0.0000000   0.0000000  )

     number of k points=   770  Marzari-Vanderbilt smearing, width (Ry)=  0.0200

     Number of k-points >= 100: set verbosity='high' to print them.

     Dense  grid:    17573 G-vectors     FFT dimensions: (  40,  40,  40)

     Smooth grid:     6231 G-vectors     FFT dimensions: (  25,  25,  25)

     Estimated max dynamical RAM per process >      23.78MB

     Estimated total allocated dynamical RAM >      95.11MB

     Initial potential from superposition of free atoms

     starting charge    8.99371, renormalised to    9.00000
     Starting wfc are    5 randomized atomic wfcs +    4 random wfc

     total cpu time spent up to now is        1.5 secs

     per-process dynamical memory:    32.8 Mb

     Self-consistent Calculation

     iteration #  1     ecut=    40.00 Ry     beta=0.70
     Davidson diagonalization with overlap
     ethr =  1.00E-02,  avg # of iterations =  5.3

     Threshold (ethr) on eigenvalues was too large:
     Diagonalizing with lowered threshold

     Davidson diagonalization with overlap
     ethr =  1.31E-05,  avg # of iterations =  3.3

     total cpu time spent up to now is       10.4 secs

     total energy              =     -95.09870325 Ry
     Harris-Foulkes estimate   =     -95.09911793 Ry
     estimated scf accuracy    <       0.00117471 Ry

     iteration #  2     ecut=    40.00 Ry     beta=0.70
     Davidson diagonalization with overlap
     ethr =  1.31E-05,  avg # of iterations =  2.0

     total cpu time spent up to now is       13.5 secs

     total energy              =     -95.09885031 Ry
     Harris-Foulkes estimate   =     -95.09888470 Ry
     estimated scf accuracy    <       0.00013124 Ry

     iteration #  3     ecut=    40.00 Ry     beta=0.70
     Davidson diagonalization with overlap
     ethr =  1.46E-06,  avg # of iterations =  2.1

     total cpu time spent up to now is       16.7 secs

     total energy              =     -95.09886640 Ry
     Harris-Foulkes estimate   =     -95.09886768 Ry
     estimated scf accuracy    <       0.00000767 Ry

     iteration #  4     ecut=    40.00 Ry     beta=0.70
     Davidson diagonalization with overlap
     ethr =  8.53E-08,  avg # of iterations =  1.0

     total cpu time spent up to now is       19.4 secs

     total energy              =     -95.09886710 Ry
     Harris-Foulkes estimate   =     -95.09886704 Ry
     estimated scf accuracy    <       0.00000001 Ry

     iteration #  5     ecut=    40.00 Ry     beta=0.70
     Davidson diagonalization with overlap
     ethr =  1.17E-10,  avg # of iterations =  3.0

     total cpu time spent up to now is       23.2 secs

     End of self-consistent calculation

     Number of k-points >= 100: set verbosity='high' to print the bands.

     the Fermi energy is     3.1571 ev

!    total energy              =     -95.09886714 Ry
     Harris-Foulkes estimate   =     -95.09886713 Ry
     estimated scf accuracy    <          1.7E-09 Ry

     The total energy is the sum of the following terms:

     one-electron contribution =     -80.99322552 Ry
     hartree contribution      =      41.43031829 Ry
     xc contribution           =     -14.31320227 Ry
     ewald contribution        =     -41.22272104 Ry
     smearing contrib. (-TS)   =      -0.00003659 Ry

     convergence has been achieved in   5 iterations

     Forces acting on atoms (cartesian axes, Ry/au):

     atom    1 type  1   force =     0.00000000    0.00000000    0.00000000

     Total force =     0.000000     Total SCF correction =     0.000000


     Computing stress (Cartesian axis) and pressure

          total   stress  (Ry/bohr**3)                   (kbar)     P=   39.57
   0.00026900   0.00000000   0.00000000         39.57      0.00      0.00
   0.00000000   0.00026900   0.00000000          0.00     39.57      0.00
   0.00000000   0.00000000   0.00026900          0.00      0.00     39.57


     BFGS Geometry Optimization

     bfgs converged in   1 scf cycles and   0 bfgs steps
     (criteria: energy <  1.0E-04 Ry, force <  1.0E-03Ry/Bohr, cell <  5.0E-01kbar)

     End of BFGS Geometry Optimization

     Final enthalpy =     -95.0491625660 Ry
Begin final coordinates
     new unit-cell volume =    182.79484 a.u.^3 (    27.08740 Ang^3 )
     density =      1.40936 g/cm^3

CELL_PARAMETERS (alat=  9.00895959)
  -0.500000000   0.000000000   0.500000000
   0.000000000   0.500000000   0.500000000
  -0.500000000   0.500000000   0.000000000

ATOMIC_POSITIONS (crystal)
Na       0.000000000   0.000000000   0.000000000
End final coordinates



     A final scf calculation at the relaxed structure.
     The G-vectors are recalculated for the final unit cell
     Results may differ from those at the preceding step.

     Parallelization info
     --------------------
     sticks:   dense  smooth     PW     G-vecs:    dense   smooth      PW
     Min         222     109     37                 4393     1557     309
     Max         223     110     38                 4394     1558     312
     Sum         889     439    151                17573     6231    1243



     bravais-lattice index     =            2
     lattice parameter (alat)  =       9.0090  a.u.
     unit-cell volume          =     182.7948 (a.u.)^3
     number of atoms/cell      =            1
     number of atomic types    =            1
     number of electrons       =         9.00
     number of Kohn-Sham states=            9
     kinetic-energy cutoff     =      40.0000  Ry
     charge density cutoff     =     320.0000  Ry
     convergence threshold     =      1.0E-08
     mixing beta               =       0.7000
     number of iterations used =            8  plain     mixing
     Exchange-correlation      = SLA  PW   PBE  PBE ( 1  4  3  4 0 0)

     celldm(1)=   9.008960  celldm(2)=   0.000000  celldm(3)=   0.000000
     celldm(4)=   0.000000  celldm(5)=   0.000000  celldm(6)=   0.000000

     crystal axes: (cart. coord. in units of alat)
               a(1) = (  -0.500000   0.000000   0.500000 )  
               a(2) = (   0.000000   0.500000   0.500000 )  
               a(3) = (  -0.500000   0.500000   0.000000 )  

     reciprocal axes: (cart. coord. in units 2 pi/alat)
               b(1) = ( -1.000000 -1.000000  1.000000 )  
               b(2) = (  1.000000  1.000000  1.000000 )  
               b(3) = ( -1.000000  1.000000 -1.000000 )  


     PseudoPot. # 1 for Na read from file:
     /home/s1333534/quantum_espresso/qe-6.1/pseudo/Na_pbe_v1.uspp.F.UPF
     MD5 check sum: 76a99c7e9422403d3e93cbc85ab7bccb
     Pseudo is Ultrasoft, Zval =  9.0
     Generated by new atomic code, or converted to UPF format
     Using radial grid of  819 points,  5 beta functions with: 
                l(1) =   0
                l(2) =   0
                l(3) =   1
                l(4) =   1
                l(5) =   2
     Q(r) pseudized with  8 coefficients,  rinner =    1.250   1.250   1.250
                                                       1.250   1.250

     atomic species   valence    mass     pseudopotential
        Na             9.00    22.99000     Na( 1.00)

     48 Sym. Ops., with inversion, found



   Cartesian axes

     site n.     atom                  positions (alat units)
         1           Na  tau(   1) = (   0.0000000   0.0000000   0.0000000  )

     number of k points=   770  Marzari-Vanderbilt smearing, width (Ry)=  0.0200

     Number of k-points >= 100: set verbosity='high' to print them.

     Dense  grid:    17573 G-vectors     FFT dimensions: (  40,  40,  40)

     Smooth grid:     6231 G-vectors     FFT dimensions: (  25,  25,  25)

     Estimated max dynamical RAM per process >      23.78MB

     Estimated total allocated dynamical RAM >      95.11MB

     Initial potential from superposition of free atoms

     starting charge    8.99371, renormalised to    9.00000
     Starting wfc are    5 randomized atomic wfcs +    4 random wfc

     Writing output data file na.fcc.save

     total cpu time spent up to now is       26.8 secs

     per-process dynamical memory:    40.1 Mb

     Self-consistent Calculation

     iteration #  1     ecut=    40.00 Ry     beta=0.70
     Davidson diagonalization with overlap
     c_bands:  1 eigenvalues not converged
     c_bands:  1 eigenvalues not converged
     ethr =  1.00E-06,  avg # of iterations = 10.6

     total cpu time spent up to now is       35.9 secs

     total energy              =     -95.09869792 Ry
     Harris-Foulkes estimate   =     -95.09911823 Ry
     estimated scf accuracy    <       0.00118012 Ry

     iteration #  2     ecut=    40.00 Ry     beta=0.70
     Davidson diagonalization with overlap
     ethr =  1.31E-05,  avg # of iterations =  2.0

     total cpu time spent up to now is       39.0 secs

     total energy              =     -95.09885066 Ry
     Harris-Foulkes estimate   =     -95.09888720 Ry
     estimated scf accuracy    <       0.00013522 Ry

     iteration #  3     ecut=    40.00 Ry     beta=0.70
     Davidson diagonalization with overlap
     ethr =  1.50E-06,  avg # of iterations =  2.0

     total cpu time spent up to now is       42.1 secs

     total energy              =     -95.09886639 Ry
     Harris-Foulkes estimate   =     -95.09886784 Ry
     estimated scf accuracy    <       0.00000806 Ry

     iteration #  4     ecut=    40.00 Ry     beta=0.70
     Davidson diagonalization with overlap
     ethr =  8.95E-08,  avg # of iterations =  1.0

     total cpu time spent up to now is       44.8 secs

     End of self-consistent calculation

     Number of k-points >= 100: set verbosity='high' to print the bands.

     the Fermi energy is     3.1573 ev

!    total energy              =     -95.09886711 Ry
     Harris-Foulkes estimate   =     -95.09886705 Ry
     estimated scf accuracy    <          9.5E-09 Ry

     The total energy is the sum of the following terms:

     one-electron contribution =     -80.99304252 Ry
     hartree contribution      =      41.43009725 Ry
     xc contribution           =     -14.31316420 Ry
     ewald contribution        =     -41.22272104 Ry
     smearing contrib. (-TS)   =      -0.00003659 Ry

     convergence has been achieved in   4 iterations

     Forces acting on atoms (cartesian axes, Ry/au):

     atom    1 type  1   force =     0.00000000    0.00000000    0.00000000

     Total force =     0.000000     Total SCF correction =     0.000000


     Computing stress (Cartesian axis) and pressure

          total   stress  (Ry/bohr**3)                   (kbar)     P=   39.29
   0.00026706   0.00000000   0.00000000         39.29      0.00      0.00
   0.00000000   0.00026706  -0.00000000          0.00     39.29     -0.00
   0.00000000  -0.00000000   0.00026706          0.00     -0.00     39.29


     Writing output data file na.fcc.save

     init_run     :      2.70s CPU      2.85s WALL (       2 calls)
     electrons    :     37.25s CPU     39.78s WALL (       2 calls)
     forces       :      0.39s CPU      0.39s WALL (       2 calls)
     stress       :      2.32s CPU      2.33s WALL (       2 calls)

     Called by init_run:
     wfcinit      :      2.00s CPU      2.14s WALL (       2 calls)
     potinit      :      0.08s CPU      0.08s WALL (       2 calls)

     Called by electrons:
     c_bands      :     31.94s CPU     34.12s WALL (      10 calls)
     sum_band     :      5.09s CPU      5.43s WALL (      10 calls)
     v_of_rho     :      0.13s CPU      0.13s WALL (      11 calls)
     newd         :      0.13s CPU      0.13s WALL (      11 calls)
     mix_rho      :      0.01s CPU      0.01s WALL (      10 calls)

     Called by c_bands:
     init_us_2    :      1.82s CPU      1.67s WALL (   20020 calls)
     cegterg      :     30.46s CPU     32.66s WALL (    7700 calls)

     Called by sum_band:
     sum_band:bec :      0.01s CPU      0.02s WALL (    7700 calls)
     addusdens    :      0.13s CPU      0.14s WALL (      10 calls)

     Called by *egterg:
     h_psi        :     23.97s CPU     25.68s WALL (   34184 calls)
     s_psi        :      0.42s CPU      0.38s WALL (   34184 calls)
     g_psi        :      0.18s CPU      0.23s WALL (   24944 calls)
     cdiaghg      :      4.97s CPU      5.15s WALL (   31874 calls)

     Called by h_psi:
     h_psi:pot    :     23.84s CPU     25.52s WALL (   34184 calls)
     h_psi:calbec :      0.58s CPU      0.63s WALL (   34184 calls)
     vloc_psi     :     22.86s CPU     24.38s WALL (   34184 calls)
     add_vuspsi   :      0.34s CPU      0.43s WALL (   34184 calls)

     General routines
     calbec       :      0.79s CPU      0.90s WALL (   49584 calls)
     fft          :      0.06s CPU      0.07s WALL (     188 calls)
     ffts         :      0.00s CPU      0.00s WALL (      21 calls)
     fftw         :     22.95s CPU     23.92s WALL (  497186 calls)
     interpolate  :      0.01s CPU      0.01s WALL (      21 calls)
     davcio       :      0.01s CPU      0.01s WALL (    1540 calls)

     Parallel routines
     fft_scatter  :      4.97s CPU      6.55s WALL (  497395 calls)

     PWSCF        :    44.06s CPU        46.83s WALL


   This run was terminated on:  15:43:15  20Dec2017            

=------------------------------------------------------------------------------=
   JOB DONE.
=------------------------------------------------------------------------------=
