
     Program PWSCF v.6.1 (svn rev. 13369) starts on 20Dec2017 at 15:31:28 

     This program is part of the open-source Quantum ESPRESSO suite
     for quantum simulation of materials; please cite
         "P. Giannozzi et al., J. Phys.:Condens. Matter 21 395502 (2009);
          URL http://www.quantum-espresso.org", 
     in publications or presentations arising from this work. More details at
     http://www.quantum-espresso.org/quote

     Parallel version (MPI), running on     4 processors
     R & G space division:  proc/nbgrp/npool/nimage =       4
     Waiting for input...
     Reading input from standard input

     Current dimensions of program PWSCF are:
     Max number of different atomic species (ntypx) = 10
     Max number of k-points (npk) =  40000
     Max angular momentum in pseudopotentials (lmaxx) =  3

     Subspace diagonalization in iterative solution of the eigenvalue problem:
     a serial algorithm will be used


     Parallelization info
     --------------------
     sticks:   dense  smooth     PW     G-vecs:    dense   smooth      PW
     Min         267     133     46                 5821     2024     409
     Max         268     134     47                 5825     2025     411
     Sum        1069     535    187                23289     8099    1639



     bravais-lattice index     =            2
     lattice parameter (alat)  =       9.8608  a.u.
     unit-cell volume          =     239.7048 (a.u.)^3
     number of atoms/cell      =            1
     number of atomic types    =            1
     number of electrons       =         9.00
     number of Kohn-Sham states=            9
     kinetic-energy cutoff     =      40.0000  Ry
     charge density cutoff     =     320.0000  Ry
     convergence threshold     =      1.0E-08
     mixing beta               =       0.7000
     number of iterations used =            8  plain     mixing
     Exchange-correlation      = SLA  PW   PBE  PBE ( 1  4  3  4 0 0)
     nstep                     =           50


     celldm(1)=   9.860803  celldm(2)=   0.000000  celldm(3)=   0.000000
     celldm(4)=   0.000000  celldm(5)=   0.000000  celldm(6)=   0.000000

     crystal axes: (cart. coord. in units of alat)
               a(1) = (  -0.500000   0.000000   0.500000 )  
               a(2) = (   0.000000   0.500000   0.500000 )  
               a(3) = (  -0.500000   0.500000   0.000000 )  

     reciprocal axes: (cart. coord. in units 2 pi/alat)
               b(1) = ( -1.000000 -1.000000  1.000000 )  
               b(2) = (  1.000000  1.000000  1.000000 )  
               b(3) = ( -1.000000  1.000000 -1.000000 )  


     PseudoPot. # 1 for Na read from file:
     /home/s1333534/quantum_espresso/qe-6.1/pseudo/Na_pbe_v1.uspp.F.UPF
     MD5 check sum: 76a99c7e9422403d3e93cbc85ab7bccb
     Pseudo is Ultrasoft, Zval =  9.0
     Generated by new atomic code, or converted to UPF format
     Using radial grid of  819 points,  5 beta functions with: 
                l(1) =   0
                l(2) =   0
                l(3) =   1
                l(4) =   1
                l(5) =   2
     Q(r) pseudized with  8 coefficients,  rinner =    1.250   1.250   1.250
                                                       1.250   1.250

     atomic species   valence    mass     pseudopotential
        Na             9.00    22.99000     Na( 1.00)

     48 Sym. Ops., with inversion, found



   Cartesian axes

     site n.     atom                  positions (alat units)
         1           Na  tau(   1) = (   0.0000000   0.0000000   0.0000000  )

     number of k points=   770  Marzari-Vanderbilt smearing, width (Ry)=  0.0200

     Number of k-points >= 100: set verbosity='high' to print them.

     Dense  grid:    23289 G-vectors     FFT dimensions: (  40,  40,  40)

     Smooth grid:     8099 G-vectors     FFT dimensions: (  30,  30,  30)

     Estimated max dynamical RAM per process >      30.88MB

     Estimated total allocated dynamical RAM >     123.52MB

     Initial potential from superposition of free atoms

     starting charge    8.99371, renormalised to    9.00000
     Starting wfc are    5 randomized atomic wfcs +    4 random wfc

     total cpu time spent up to now is        2.5 secs

     per-process dynamical memory:    39.7 Mb

     Self-consistent Calculation

     iteration #  1     ecut=    40.00 Ry     beta=0.70
     Davidson diagonalization with overlap
     ethr =  1.00E-02,  avg # of iterations =  5.4

     Threshold (ethr) on eigenvalues was too large:
     Diagonalizing with lowered threshold

     Davidson diagonalization with overlap
     ethr =  9.98E-06,  avg # of iterations =  4.0

     total cpu time spent up to now is       18.8 secs

     total energy              =     -95.10634723 Ry
     Harris-Foulkes estimate   =     -95.10656487 Ry
     estimated scf accuracy    <       0.00089550 Ry

     iteration #  2     ecut=    40.00 Ry     beta=0.70
     Davidson diagonalization with overlap
     ethr =  9.95E-06,  avg # of iterations =  2.0

     total cpu time spent up to now is       24.3 secs

     total energy              =     -95.10644816 Ry
     Harris-Foulkes estimate   =     -95.10646990 Ry
     estimated scf accuracy    <       0.00009791 Ry

     iteration #  3     ecut=    40.00 Ry     beta=0.70
     Davidson diagonalization with overlap
     ethr =  1.09E-06,  avg # of iterations =  2.1

     total cpu time spent up to now is       30.1 secs

     total energy              =     -95.10645999 Ry
     Harris-Foulkes estimate   =     -95.10646101 Ry
     estimated scf accuracy    <       0.00000588 Ry

     iteration #  4     ecut=    40.00 Ry     beta=0.70
     Davidson diagonalization with overlap
     ethr =  6.53E-08,  avg # of iterations =  1.0

     total cpu time spent up to now is       35.1 secs

     total energy              =     -95.10646055 Ry
     Harris-Foulkes estimate   =     -95.10646050 Ry
     estimated scf accuracy    <       0.00000001 Ry

     iteration #  5     ecut=    40.00 Ry     beta=0.70
     Davidson diagonalization with overlap
     ethr =  1.19E-10,  avg # of iterations =  3.0

     total cpu time spent up to now is       42.0 secs

     End of self-consistent calculation

     Number of k-points >= 100: set verbosity='high' to print the bands.

     the Fermi energy is     1.7855 ev

!    total energy              =     -95.10646058 Ry
     Harris-Foulkes estimate   =     -95.10646058 Ry
     estimated scf accuracy    <          1.6E-09 Ry

     The total energy is the sum of the following terms:

     one-electron contribution =     -87.21093664 Ry
     hartree contribution      =      44.04022545 Ry
     xc contribution           =     -14.27408117 Ry
     ewald contribution        =     -37.66162285 Ry
     smearing contrib. (-TS)   =      -0.00004537 Ry

     convergence has been achieved in   5 iterations

     Forces acting on atoms (cartesian axes, Ry/au):

     atom    1 type  1   force =     0.00000000    0.00000000    0.00000000

     Total force =     0.000000     Total SCF correction =     0.000000


     Computing stress (Cartesian axis) and pressure

          total   stress  (Ry/bohr**3)                   (kbar)     P=    0.83
   0.00000564  -0.00000000  -0.00000000          0.83     -0.00     -0.00
  -0.00000000   0.00000564   0.00000000         -0.00      0.83      0.00
  -0.00000000   0.00000000   0.00000564         -0.00      0.00      0.83


     BFGS Geometry Optimization

     number of scf cycles    =   1
     number of bfgs steps    =   0

     enthalpy new            =     -95.1064605800 Ry

     new trust radius        =       0.0004363676 bohr
     new conv_thr            =       0.0000000100 Ry

     new unit-cell volume =    239.80619 a.u.^3 (    35.53561 Ang^3 )
     density =      1.07430 g/cm^3

CELL_PARAMETERS (alat=  9.86080259)
  -0.500070462   0.000000000   0.500070462
  -0.000000000   0.500070462   0.500070462
  -0.500070462   0.500070462   0.000000000

ATOMIC_POSITIONS (crystal)
Na       0.000000000   0.000000000   0.000000000



     Writing output data file na.fcc.save
     NEW-OLD atomic charge density approx. for the potential
     extrapolated charge    9.00380, renormalised to    9.00000

     total cpu time spent up to now is       44.9 secs

     per-process dynamical memory:    50.7 Mb

     Self-consistent Calculation

     iteration #  1     ecut=    40.00 Ry     beta=0.70
     Davidson diagonalization with overlap
     ethr =  1.00E-06,  avg # of iterations =  2.0

     Threshold (ethr) on eigenvalues was too large:
     Diagonalizing with lowered threshold

     Davidson diagonalization with overlap
     ethr =  5.97E-08,  avg # of iterations =  1.0

     total cpu time spent up to now is       55.9 secs

     total energy              =     -95.10645145 Ry
     Harris-Foulkes estimate   =     -95.07708652 Ry
     estimated scf accuracy    <       0.00000538 Ry

     iteration #  2     ecut=    40.00 Ry     beta=0.70
     Davidson diagonalization with overlap
     ethr =  5.97E-08,  avg # of iterations =  2.9

     total cpu time spent up to now is       62.6 secs

     total energy              =     -95.10646119 Ry
     Harris-Foulkes estimate   =     -95.10646512 Ry
     estimated scf accuracy    <       0.00000894 Ry

     iteration #  3     ecut=    40.00 Ry     beta=0.70
     Davidson diagonalization with overlap
     ethr =  5.97E-08,  avg # of iterations =  1.6

     total cpu time spent up to now is       67.8 secs

     total energy              =     -95.10646126 Ry
     Harris-Foulkes estimate   =     -95.10646178 Ry
     estimated scf accuracy    <       0.00000175 Ry

     iteration #  4     ecut=    40.00 Ry     beta=0.70
     Davidson diagonalization with overlap
     ethr =  1.94E-08,  avg # of iterations =  1.0

     total cpu time spent up to now is       72.8 secs

     total energy              =     -95.10646111 Ry
     Harris-Foulkes estimate   =     -95.10646133 Ry
     estimated scf accuracy    <       0.00000067 Ry

     iteration #  5     ecut=    40.00 Ry     beta=0.70
     Davidson diagonalization with overlap
     ethr =  7.46E-09,  avg # of iterations =  1.0

     total cpu time spent up to now is       77.8 secs

     total energy              =     -95.10646106 Ry
     Harris-Foulkes estimate   =     -95.10646113 Ry
     estimated scf accuracy    <       0.00000024 Ry

     iteration #  6     ecut=    40.00 Ry     beta=0.70
     Davidson diagonalization with overlap
     ethr =  2.72E-09,  avg # of iterations =  1.0

     total cpu time spent up to now is       82.8 secs

     total energy              =     -95.10646100 Ry
     Harris-Foulkes estimate   =     -95.10646106 Ry
     estimated scf accuracy    <       0.00000010 Ry

     iteration #  7     ecut=    40.00 Ry     beta=0.70
     Davidson diagonalization with overlap
     ethr =  1.08E-09,  avg # of iterations =  2.0

     total cpu time spent up to now is       88.8 secs

     End of self-consistent calculation

     Number of k-points >= 100: set verbosity='high' to print the bands.

     the Fermi energy is     1.7836 ev

!    total energy              =     -95.10646102 Ry
     Harris-Foulkes estimate   =     -95.10646102 Ry
     estimated scf accuracy    <          5.1E-10 Ry

     The total energy is the sum of the following terms:

     one-electron contribution =     -87.22008654 Ry
     hartree contribution      =      44.04397777 Ry
     xc contribution           =     -14.27399069 Ry
     ewald contribution        =     -37.65631618 Ry
     smearing contrib. (-TS)   =      -0.00004538 Ry

     convergence has been achieved in   7 iterations

     Forces acting on atoms (cartesian axes, Ry/au):

     atom    1 type  1   force =     0.00000000    0.00000000    0.00000000

     Total force =     0.000000     Total SCF correction =     0.000000


     Computing stress (Cartesian axis) and pressure

          total   stress  (Ry/bohr**3)                   (kbar)     P=    0.43
   0.00000294  -0.00000000  -0.00000000          0.43     -0.00     -0.00
  -0.00000000   0.00000294   0.00000000         -0.00      0.43      0.00
  -0.00000000   0.00000000   0.00000294         -0.00      0.00      0.43


     bfgs converged in   2 scf cycles and   1 bfgs steps
     (criteria: energy <  1.0E-04 Ry, force <  1.0E-03Ry/Bohr, cell <  5.0E-01kbar)

     End of BFGS Geometry Optimization

     Final enthalpy =     -95.1064610183 Ry
Begin final coordinates
     new unit-cell volume =    239.80619 a.u.^3 (    35.53561 Ang^3 )
     density =      1.07430 g/cm^3

CELL_PARAMETERS (alat=  9.86080259)
  -0.500070462   0.000000000   0.500070462
  -0.000000000   0.500070462   0.500070462
  -0.500070462   0.500070462   0.000000000

ATOMIC_POSITIONS (crystal)
Na       0.000000000   0.000000000   0.000000000
End final coordinates



     A final scf calculation at the relaxed structure.
     The G-vectors are recalculated for the final unit cell
     Results may differ from those at the preceding step.

     Parallelization info
     --------------------
     sticks:   dense  smooth     PW     G-vecs:    dense   smooth      PW
     Min         267     133     46                 5821     2024     409
     Max         268     134     47                 5825     2025     411
     Sum        1069     535    187                23289     8099    1639



     bravais-lattice index     =            2
     lattice parameter (alat)  =       9.8608  a.u.
     unit-cell volume          =     239.8062 (a.u.)^3
     number of atoms/cell      =            1
     number of atomic types    =            1
     number of electrons       =         9.00
     number of Kohn-Sham states=            9
     kinetic-energy cutoff     =      40.0000  Ry
     charge density cutoff     =     320.0000  Ry
     convergence threshold     =      1.0E-08
     mixing beta               =       0.7000
     number of iterations used =            8  plain     mixing
     Exchange-correlation      = SLA  PW   PBE  PBE ( 1  4  3  4 0 0)

     celldm(1)=   9.860803  celldm(2)=   0.000000  celldm(3)=   0.000000
     celldm(4)=   0.000000  celldm(5)=   0.000000  celldm(6)=   0.000000

     crystal axes: (cart. coord. in units of alat)
               a(1) = (  -0.500070   0.000000   0.500070 )  
               a(2) = (  -0.000000   0.500070   0.500070 )  
               a(3) = (  -0.500070   0.500070   0.000000 )  

     reciprocal axes: (cart. coord. in units 2 pi/alat)
               b(1) = ( -0.999859 -0.999859  0.999859 )  
               b(2) = (  0.999859  0.999859  0.999859 )  
               b(3) = ( -0.999859  0.999859 -0.999859 )  


     PseudoPot. # 1 for Na read from file:
     /home/s1333534/quantum_espresso/qe-6.1/pseudo/Na_pbe_v1.uspp.F.UPF
     MD5 check sum: 76a99c7e9422403d3e93cbc85ab7bccb
     Pseudo is Ultrasoft, Zval =  9.0
     Generated by new atomic code, or converted to UPF format
     Using radial grid of  819 points,  5 beta functions with: 
                l(1) =   0
                l(2) =   0
                l(3) =   1
                l(4) =   1
                l(5) =   2
     Q(r) pseudized with  8 coefficients,  rinner =    1.250   1.250   1.250
                                                       1.250   1.250

     atomic species   valence    mass     pseudopotential
        Na             9.00    22.99000     Na( 1.00)

     48 Sym. Ops., with inversion, found



   Cartesian axes

     site n.     atom                  positions (alat units)
         1           Na  tau(   1) = (  -0.0000000   0.0000000   0.0000000  )

     number of k points=   770  Marzari-Vanderbilt smearing, width (Ry)=  0.0200

     Number of k-points >= 100: set verbosity='high' to print them.

     Dense  grid:    23289 G-vectors     FFT dimensions: (  40,  40,  40)

     Smooth grid:     8099 G-vectors     FFT dimensions: (  30,  30,  30)

     Estimated max dynamical RAM per process >      30.88MB

     Estimated total allocated dynamical RAM >     123.52MB

     Initial potential from superposition of free atoms

     starting charge    8.99371, renormalised to    9.00000
     Starting wfc are    5 randomized atomic wfcs +    4 random wfc

     Writing output data file na.fcc.save

     total cpu time spent up to now is       94.2 secs

     per-process dynamical memory:    48.0 Mb

     Self-consistent Calculation

     iteration #  1     ecut=    40.00 Ry     beta=0.70
     Davidson diagonalization with overlap
     c_bands:  1 eigenvalues not converged
     c_bands:  1 eigenvalues not converged
     c_bands:  1 eigenvalues not converged
     c_bands:  1 eigenvalues not converged
     c_bands:  1 eigenvalues not converged
     c_bands:  1 eigenvalues not converged
     c_bands:  1 eigenvalues not converged
     c_bands:  1 eigenvalues not converged
     c_bands:  1 eigenvalues not converged
     c_bands:  1 eigenvalues not converged
     c_bands:  1 eigenvalues not converged
     c_bands:  1 eigenvalues not converged
     c_bands:  1 eigenvalues not converged
     c_bands:  1 eigenvalues not converged
     ethr =  1.00E-06,  avg # of iterations = 11.3

     total cpu time spent up to now is      110.5 secs

     total energy              =     -95.10634590 Ry
     Harris-Foulkes estimate   =     -95.10656840 Ry
     estimated scf accuracy    <       0.00089916 Ry

     iteration #  2     ecut=    40.00 Ry     beta=0.70
     Davidson diagonalization with overlap
     ethr =  9.99E-06,  avg # of iterations =  2.0

     total cpu time spent up to now is      116.1 secs

     total energy              =     -95.10645108 Ry
     Harris-Foulkes estimate   =     -95.10647443 Ry
     estimated scf accuracy    <       0.00010085 Ry

     iteration #  3     ecut=    40.00 Ry     beta=0.70
     Davidson diagonalization with overlap
     ethr =  1.12E-06,  avg # of iterations =  2.0

     total cpu time spent up to now is      121.9 secs

     total energy              =     -95.10646238 Ry
     Harris-Foulkes estimate   =     -95.10646360 Ry
     estimated scf accuracy    <       0.00000627 Ry

     iteration #  4     ecut=    40.00 Ry     beta=0.70
     Davidson diagonalization with overlap
     ethr =  6.97E-08,  avg # of iterations =  1.0

     total cpu time spent up to now is      126.9 secs

     End of self-consistent calculation

     Number of k-points >= 100: set verbosity='high' to print the bands.

     the Fermi energy is     1.7838 ev

!    total energy              =     -95.10646297 Ry
     Harris-Foulkes estimate   =     -95.10646291 Ry
     estimated scf accuracy    <          8.5E-09 Ry

     The total energy is the sum of the following terms:

     one-electron contribution =     -87.21991183 Ry
     hartree contribution      =      44.04376510 Ry
     xc contribution           =     -14.27395468 Ry
     ewald contribution        =     -37.65631618 Ry
     smearing contrib. (-TS)   =      -0.00004538 Ry

     convergence has been achieved in   4 iterations

     Forces acting on atoms (cartesian axes, Ry/au):

     atom    1 type  1   force =     0.00000000    0.00000000    0.00000000

     Total force =     0.000000     Total SCF correction =     0.000000


     Computing stress (Cartesian axis) and pressure

          total   stress  (Ry/bohr**3)                   (kbar)     P=    0.43
   0.00000294   0.00000000  -0.00000000          0.43      0.00     -0.00
   0.00000000   0.00000294   0.00000000          0.00      0.43      0.00
  -0.00000000   0.00000000   0.00000294         -0.00      0.00      0.43


     Writing output data file na.fcc.save

     init_run     :      4.54s CPU      4.73s WALL (       2 calls)
     electrons    :    110.98s CPU    116.15s WALL (       3 calls)
     update_pot   :      0.22s CPU      0.22s WALL (       1 calls)
     forces       :      0.78s CPU      0.79s WALL (       3 calls)
     stress       :      4.66s CPU      4.67s WALL (       3 calls)

     Called by init_run:
     wfcinit      :      3.75s CPU      3.93s WALL (       2 calls)
     potinit      :      0.10s CPU      0.10s WALL (       2 calls)

     Called by electrons:
     c_bands      :     93.14s CPU     97.53s WALL (      18 calls)
     sum_band     :     17.40s CPU     18.18s WALL (      18 calls)
     v_of_rho     :      0.22s CPU      0.22s WALL (      19 calls)
     newd         :      0.26s CPU      0.26s WALL (      19 calls)
     mix_rho      :      0.01s CPU      0.01s WALL (      18 calls)

     Called by c_bands:
     init_us_2    :      3.62s CPU      3.55s WALL (   33880 calls)
     cegterg      :     89.70s CPU     94.04s WALL (   13860 calls)

     Called by sum_band:
     sum_band:bec :      0.01s CPU      0.05s WALL (   13860 calls)
     addusdens    :      0.33s CPU      0.33s WALL (      18 calls)

     Called by *egterg:
     h_psi        :     78.47s CPU     82.43s WALL (   51134 calls)
     s_psi        :      0.87s CPU      0.71s WALL (   51134 calls)
     g_psi        :      0.43s CPU      0.44s WALL (   35734 calls)
     cdiaghg      :      7.10s CPU      7.34s WALL (   47284 calls)

     Called by h_psi:
     h_psi:pot    :     78.26s CPU     82.08s WALL (   51134 calls)
     h_psi:calbec :      1.64s CPU      1.31s WALL (   51134 calls)
     vloc_psi     :     76.06s CPU     79.86s WALL (   51134 calls)
     add_vuspsi   :      0.49s CPU      0.79s WALL (   51134 calls)

     General routines
     calbec       :      2.96s CPU      2.54s WALL (   76544 calls)
     fft          :      0.13s CPU      0.14s WALL (     325 calls)
     ffts         :      0.01s CPU      0.01s WALL (      37 calls)
     fftw         :     84.04s CPU     85.20s WALL (  807884 calls)
     interpolate  :      0.02s CPU      0.02s WALL (      37 calls)
     davcio       :      0.01s CPU      0.02s WALL (    1540 calls)

     Parallel routines
     fft_scatter  :     14.46s CPU     17.21s WALL (  808246 calls)

     PWSCF        :  2m 3.29s CPU     2m 9.30s WALL


   This run was terminated on:  15:33:37  20Dec2017            

=------------------------------------------------------------------------------=
   JOB DONE.
=------------------------------------------------------------------------------=
