
     Program PWSCF v.6.1 (svn rev. 13369) starts on 20Dec2017 at 15:35:33 

     This program is part of the open-source Quantum ESPRESSO suite
     for quantum simulation of materials; please cite
         "P. Giannozzi et al., J. Phys.:Condens. Matter 21 395502 (2009);
          URL http://www.quantum-espresso.org", 
     in publications or presentations arising from this work. More details at
     http://www.quantum-espresso.org/quote

     Parallel version (MPI), running on     4 processors
     R & G space division:  proc/nbgrp/npool/nimage =       4
     Waiting for input...
     Reading input from standard input

     Current dimensions of program PWSCF are:
     Max number of different atomic species (ntypx) = 10
     Max number of k-points (npk) =  40000
     Max angular momentum in pseudopotentials (lmaxx) =  3

     Subspace diagonalization in iterative solution of the eigenvalue problem:
     a serial algorithm will be used


     Parallelization info
     --------------------
     sticks:   dense  smooth     PW     G-vecs:    dense   smooth      PW
     Min         238     118     40                 4945     1718     351
     Max         239     119     41                 4950     1721     354
     Sum         955     475    163                19795     6879    1411



     bravais-lattice index     =            2
     lattice parameter (alat)  =       9.3469  a.u.
     unit-cell volume          =     204.1475 (a.u.)^3
     number of atoms/cell      =            1
     number of atomic types    =            1
     number of electrons       =         9.00
     number of Kohn-Sham states=            9
     kinetic-energy cutoff     =      40.0000  Ry
     charge density cutoff     =     320.0000  Ry
     convergence threshold     =      1.0E-08
     mixing beta               =       0.7000
     number of iterations used =            8  plain     mixing
     Exchange-correlation      = SLA  PW   PBE  PBE ( 1  4  3  4 0 0)
     nstep                     =           50


     celldm(1)=   9.346910  celldm(2)=   0.000000  celldm(3)=   0.000000
     celldm(4)=   0.000000  celldm(5)=   0.000000  celldm(6)=   0.000000

     crystal axes: (cart. coord. in units of alat)
               a(1) = (  -0.500000   0.000000   0.500000 )  
               a(2) = (   0.000000   0.500000   0.500000 )  
               a(3) = (  -0.500000   0.500000   0.000000 )  

     reciprocal axes: (cart. coord. in units 2 pi/alat)
               b(1) = ( -1.000000 -1.000000  1.000000 )  
               b(2) = (  1.000000  1.000000  1.000000 )  
               b(3) = ( -1.000000  1.000000 -1.000000 )  


     PseudoPot. # 1 for Na read from file:
     /home/s1333534/quantum_espresso/qe-6.1/pseudo/Na_pbe_v1.uspp.F.UPF
     MD5 check sum: 76a99c7e9422403d3e93cbc85ab7bccb
     Pseudo is Ultrasoft, Zval =  9.0
     Generated by new atomic code, or converted to UPF format
     Using radial grid of  819 points,  5 beta functions with: 
                l(1) =   0
                l(2) =   0
                l(3) =   1
                l(4) =   1
                l(5) =   2
     Q(r) pseudized with  8 coefficients,  rinner =    1.250   1.250   1.250
                                                       1.250   1.250

     atomic species   valence    mass     pseudopotential
        Na             9.00    22.99000     Na( 1.00)

     48 Sym. Ops., with inversion, found



   Cartesian axes

     site n.     atom                  positions (alat units)
         1           Na  tau(   1) = (   0.0000000   0.0000000   0.0000000  )

     number of k points=   770  Marzari-Vanderbilt smearing, width (Ry)=  0.0200

     Number of k-points >= 100: set verbosity='high' to print them.

     Dense  grid:    19795 G-vectors     FFT dimensions: (  40,  40,  40)

     Smooth grid:     6879 G-vectors     FFT dimensions: (  27,  27,  27)

     Estimated max dynamical RAM per process >      26.46MB

     Estimated total allocated dynamical RAM >     105.85MB

     Initial potential from superposition of free atoms

     starting charge    8.99371, renormalised to    9.00000
     Starting wfc are    5 randomized atomic wfcs +    4 random wfc

     total cpu time spent up to now is        2.1 secs

     per-process dynamical memory:    34.5 Mb

     Self-consistent Calculation

     iteration #  1     ecut=    40.00 Ry     beta=0.70
     Davidson diagonalization with overlap
     ethr =  1.00E-02,  avg # of iterations =  5.3

     Threshold (ethr) on eigenvalues was too large:
     Diagonalizing with lowered threshold

     Davidson diagonalization with overlap
     ethr =  1.13E-05,  avg # of iterations =  3.5

     total cpu time spent up to now is       14.9 secs

     total energy              =     -95.10340701 Ry
     Harris-Foulkes estimate   =     -95.10373186 Ry
     estimated scf accuracy    <       0.00101948 Ry

     iteration #  2     ecut=    40.00 Ry     beta=0.70
     Davidson diagonalization with overlap
     ethr =  1.13E-05,  avg # of iterations =  2.0

     total cpu time spent up to now is       19.4 secs

     total energy              =     -95.10353042 Ry
     Harris-Foulkes estimate   =     -95.10355907 Ry
     estimated scf accuracy    <       0.00011320 Ry

     iteration #  3     ecut=    40.00 Ry     beta=0.70
     Davidson diagonalization with overlap
     ethr =  1.26E-06,  avg # of iterations =  2.1

     total cpu time spent up to now is       24.1 secs

     total energy              =     -95.10354388 Ry
     Harris-Foulkes estimate   =     -95.10354513 Ry
     estimated scf accuracy    <       0.00000673 Ry

     iteration #  4     ecut=    40.00 Ry     beta=0.70
     Davidson diagonalization with overlap
     ethr =  7.48E-08,  avg # of iterations =  1.0

     total cpu time spent up to now is       28.1 secs

     End of self-consistent calculation

     Number of k-points >= 100: set verbosity='high' to print the bands.

     the Fermi energy is     2.5489 ev

!    total energy              =     -95.10354450 Ry
     Harris-Foulkes estimate   =     -95.10354444 Ry
     estimated scf accuracy    <          9.3E-09 Ry

     The total energy is the sum of the following terms:

     one-electron contribution =     -83.58843514 Ry
     hartree contribution      =      42.51354372 Ry
     xc contribution           =     -14.29635513 Ry
     ewald contribution        =     -39.73225823 Ry
     smearing contrib. (-TS)   =      -0.00003973 Ry

     convergence has been achieved in   4 iterations

     Forces acting on atoms (cartesian axes, Ry/au):

     atom    1 type  1   force =     0.00000000    0.00000000    0.00000000

     Total force =     0.000000     Total SCF correction =     0.000000


     Computing stress (Cartesian axis) and pressure

          total   stress  (Ry/bohr**3)                   (kbar)     P=   19.32
   0.00013130  -0.00000000  -0.00000000         19.32     -0.00     -0.00
  -0.00000000   0.00013130   0.00000000         -0.00     19.32      0.00
  -0.00000000   0.00000000   0.00013130         -0.00      0.00     19.32


     BFGS Geometry Optimization

     number of scf cycles    =   1
     number of bfgs steps    =   0

     enthalpy new            =     -95.0757891617 Ry

     new trust radius        =       0.0003324804 bohr
     new conv_thr            =       0.0000000100 Ry

     new unit-cell volume =    204.07629 a.u.^3 (    30.24099 Ang^3 )
     density =      1.26239 g/cm^3

CELL_PARAMETERS (alat=  9.34690965)
  -0.499941825   0.000000000   0.499941825
  -0.000000000   0.499941825   0.499941825
  -0.499941825   0.499941825   0.000000000

ATOMIC_POSITIONS (crystal)
Na       0.000000000   0.000000000   0.000000000



     Writing output data file na.fcc.save
     NEW-OLD atomic charge density approx. for the potential
     extrapolated charge    8.99686, renormalised to    9.00000

     total cpu time spent up to now is       30.7 secs

     per-process dynamical memory:    44.1 Mb

     Self-consistent Calculation

     iteration #  1     ecut=    40.00 Ry     beta=0.70
     Davidson diagonalization with overlap
     ethr =  1.00E-06,  avg # of iterations =  2.1

     Threshold (ethr) on eigenvalues was too large:
     Diagonalizing with lowered threshold

     Davidson diagonalization with overlap
     ethr =  4.05E-08,  avg # of iterations =  1.0

     total cpu time spent up to now is       39.7 secs

     total energy              =     -95.10352865 Ry
     Harris-Foulkes estimate   =     -95.12671633 Ry
     estimated scf accuracy    <       0.00000365 Ry

     iteration #  2     ecut=    40.00 Ry     beta=0.70
     Davidson diagonalization with overlap
     ethr =  4.06E-08,  avg # of iterations =  2.9

     total cpu time spent up to now is      145.7 secs

     total energy              =     -95.10353521 Ry
     Harris-Foulkes estimate   =     -95.10353786 Ry
     estimated scf accuracy    <       0.00000603 Ry

     iteration #  3     ecut=    40.00 Ry     beta=0.70
     Davidson diagonalization with overlap
     ethr =  4.06E-08,  avg # of iterations =  1.5

     total cpu time spent up to now is      174.8 secs

     total energy              =     -95.10353515 Ry
     Harris-Foulkes estimate   =     -95.10353560 Ry
     estimated scf accuracy    <       0.00000117 Ry

     iteration #  4     ecut=    40.00 Ry     beta=0.70
     Davidson diagonalization with overlap
     ethr =  1.30E-08,  avg # of iterations =  1.0

     total cpu time spent up to now is      207.7 secs

     total energy              =     -95.10353517 Ry
     Harris-Foulkes estimate   =     -95.10353523 Ry
     estimated scf accuracy    <       0.00000029 Ry

     iteration #  5     ecut=    40.00 Ry     beta=0.70
     Davidson diagonalization with overlap
     ethr =  3.18E-09,  avg # of iterations =  1.0

     total cpu time spent up to now is      219.0 secs

     total energy              =     -95.10353517 Ry
     Harris-Foulkes estimate   =     -95.10353518 Ry
     estimated scf accuracy    <       0.00000018 Ry

     iteration #  6     ecut=    40.00 Ry     beta=0.70
     Davidson diagonalization with overlap
     ethr =  2.03E-09,  avg # of iterations =  1.0

     total cpu time spent up to now is      238.5 secs

     total energy              =     -95.10353512 Ry
     Harris-Foulkes estimate   =     -95.10353517 Ry
     estimated scf accuracy    <       0.00000015 Ry

     iteration #  7     ecut=    40.00 Ry     beta=0.70
     Davidson diagonalization with overlap
     ethr =  1.64E-09,  avg # of iterations =  1.0

     total cpu time spent up to now is      245.2 secs

     total energy              =     -95.10353508 Ry
     Harris-Foulkes estimate   =     -95.10353513 Ry
     estimated scf accuracy    <       0.00000006 Ry

     iteration #  8     ecut=    40.00 Ry     beta=0.70
     Davidson diagonalization with overlap
     ethr =  6.48E-10,  avg # of iterations =  2.0

     total cpu time spent up to now is      262.7 secs

     End of self-consistent calculation

     Number of k-points >= 100: set verbosity='high' to print the bands.

     the Fermi energy is     2.5504 ev

!    total energy              =     -95.10353510 Ry
     Harris-Foulkes estimate   =     -95.10353510 Ry
     estimated scf accuracy    <          3.2E-09 Ry

     The total energy is the sum of the following terms:

     one-electron contribution =     -83.58074691 Ry
     hartree contribution      =      42.51062347 Ry
     xc contribution           =     -14.29649034 Ry
     ewald contribution        =     -39.73688159 Ry
     smearing contrib. (-TS)   =      -0.00003972 Ry

     convergence has been achieved in   8 iterations

     Forces acting on atoms (cartesian axes, Ry/au):

     atom    1 type  1   force =     0.00000000    0.00000000    0.00000000

     Total force =     0.000000     Total SCF correction =     0.000000


     Computing stress (Cartesian axis) and pressure

          total   stress  (Ry/bohr**3)                   (kbar)     P=   19.87
   0.00013505  -0.00000000   0.00000000         19.87     -0.00      0.00
   0.00000000   0.00013505  -0.00000000          0.00     19.87     -0.00
   0.00000000   0.00000000   0.00013505          0.00      0.00     19.87


     bfgs converged in   2 scf cycles and   1 bfgs steps
     (criteria: energy <  1.0E-04 Ry, force <  1.0E-03Ry/Bohr, cell <  5.0E-01kbar)

     End of BFGS Geometry Optimization

     Final enthalpy =     -95.0757894448 Ry
Begin final coordinates
     new unit-cell volume =    204.07629 a.u.^3 (    30.24099 Ang^3 )
     density =      1.26239 g/cm^3

CELL_PARAMETERS (alat=  9.34690965)
  -0.499941825   0.000000000   0.499941825
  -0.000000000   0.499941825   0.499941825
  -0.499941825   0.499941825   0.000000000

ATOMIC_POSITIONS (crystal)
Na       0.000000000   0.000000000   0.000000000
End final coordinates



     A final scf calculation at the relaxed structure.
     The G-vectors are recalculated for the final unit cell
     Results may differ from those at the preceding step.

     Parallelization info
     --------------------
     sticks:   dense  smooth     PW     G-vecs:    dense   smooth      PW
     Min         238     118     40                 4933     1718     351
     Max         239     119     41                 4938     1721     354
     Sum         955     475    163                19747     6879    1411



     bravais-lattice index     =            2
     lattice parameter (alat)  =       9.3469  a.u.
     unit-cell volume          =     204.0763 (a.u.)^3
     number of atoms/cell      =            1
     number of atomic types    =            1
     number of electrons       =         9.00
     number of Kohn-Sham states=            9
     kinetic-energy cutoff     =      40.0000  Ry
     charge density cutoff     =     320.0000  Ry
     convergence threshold     =      1.0E-08
     mixing beta               =       0.7000
     number of iterations used =            8  plain     mixing
     Exchange-correlation      = SLA  PW   PBE  PBE ( 1  4  3  4 0 0)

     celldm(1)=   9.346910  celldm(2)=   0.000000  celldm(3)=   0.000000
     celldm(4)=   0.000000  celldm(5)=   0.000000  celldm(6)=   0.000000

     crystal axes: (cart. coord. in units of alat)
               a(1) = (  -0.499942   0.000000   0.499942 )  
               a(2) = (  -0.000000   0.499942   0.499942 )  
               a(3) = (  -0.499942   0.499942   0.000000 )  

     reciprocal axes: (cart. coord. in units 2 pi/alat)
               b(1) = ( -1.000116 -1.000116  1.000116 )  
               b(2) = (  1.000116  1.000116  1.000116 )  
               b(3) = ( -1.000116  1.000116 -1.000116 )  


     PseudoPot. # 1 for Na read from file:
     /home/s1333534/quantum_espresso/qe-6.1/pseudo/Na_pbe_v1.uspp.F.UPF
     MD5 check sum: 76a99c7e9422403d3e93cbc85ab7bccb
     Pseudo is Ultrasoft, Zval =  9.0
     Generated by new atomic code, or converted to UPF format
     Using radial grid of  819 points,  5 beta functions with: 
                l(1) =   0
                l(2) =   0
                l(3) =   1
                l(4) =   1
                l(5) =   2
     Q(r) pseudized with  8 coefficients,  rinner =    1.250   1.250   1.250
                                                       1.250   1.250

     atomic species   valence    mass     pseudopotential
        Na             9.00    22.99000     Na( 1.00)

     48 Sym. Ops., with inversion, found



   Cartesian axes

     site n.     atom                  positions (alat units)
         1           Na  tau(   1) = (  -0.0000000   0.0000000   0.0000000  )

     number of k points=   770  Marzari-Vanderbilt smearing, width (Ry)=  0.0200

     Number of k-points >= 100: set verbosity='high' to print them.

     Dense  grid:    19747 G-vectors     FFT dimensions: (  40,  40,  40)

     Smooth grid:     6879 G-vectors     FFT dimensions: (  27,  27,  27)

     Estimated max dynamical RAM per process >      26.46MB

     Estimated total allocated dynamical RAM >     105.83MB

     Initial potential from superposition of free atoms

     starting charge    8.99371, renormalised to    9.00000
     Starting wfc are    5 randomized atomic wfcs +    4 random wfc

     Writing output data file na.fcc.save

     total cpu time spent up to now is      270.9 secs

     per-process dynamical memory:    42.1 Mb

     Self-consistent Calculation

     iteration #  1     ecut=    40.00 Ry     beta=0.70
     Davidson diagonalization with overlap
     c_bands:  1 eigenvalues not converged
     c_bands:  1 eigenvalues not converged
     c_bands:  1 eigenvalues not converged
     c_bands:  1 eigenvalues not converged
     ethr =  1.00E-06,  avg # of iterations = 10.8

     total cpu time spent up to now is      299.8 secs

     total energy              =     -95.10339161 Ry
     Harris-Foulkes estimate   =     -95.10372384 Ry
     estimated scf accuracy    <       0.00102423 Ry

     iteration #  2     ecut=    40.00 Ry     beta=0.70
     Davidson diagonalization with overlap
     ethr =  1.14E-05,  avg # of iterations =  2.0

     total cpu time spent up to now is      305.4 secs

     total energy              =     -95.10351962 Ry
     Harris-Foulkes estimate   =     -95.10355013 Ry
     estimated scf accuracy    <       0.00011648 Ry

     iteration #  3     ecut=    40.00 Ry     beta=0.70
     Davidson diagonalization with overlap
     ethr =  1.29E-06,  avg # of iterations =  2.0

     total cpu time spent up to now is      346.0 secs

     total energy              =     -95.10353271 Ry
     Harris-Foulkes estimate   =     -95.10353413 Ry
     estimated scf accuracy    <       0.00000709 Ry

     iteration #  4     ecut=    40.00 Ry     beta=0.70
     Davidson diagonalization with overlap
     ethr =  7.87E-08,  avg # of iterations =  1.0

     total cpu time spent up to now is      351.1 secs

     End of self-consistent calculation

     Number of k-points >= 100: set verbosity='high' to print the bands.

     the Fermi energy is     2.5507 ev

!    total energy              =     -95.10353334 Ry
     Harris-Foulkes estimate   =     -95.10353329 Ry
     estimated scf accuracy    <          8.0E-09 Ry

     The total energy is the sum of the following terms:

     one-electron contribution =     -83.58033559 Ry
     hartree contribution      =      42.51012229 Ry
     xc contribution           =     -14.29639872 Ry
     ewald contribution        =     -39.73688159 Ry
     smearing contrib. (-TS)   =      -0.00003972 Ry

     convergence has been achieved in   4 iterations

     Forces acting on atoms (cartesian axes, Ry/au):

     atom    1 type  1   force =     0.00000000    0.00000000    0.00000000

     Total force =     0.000000     Total SCF correction =     0.000000


     Computing stress (Cartesian axis) and pressure

          total   stress  (Ry/bohr**3)                   (kbar)     P=   19.30
   0.00013117  -0.00000000  -0.00000000         19.30     -0.00     -0.00
  -0.00000000   0.00013117   0.00000000         -0.00     19.30      0.00
  -0.00000000   0.00000000   0.00013117         -0.00      0.00     19.30


     Writing output data file na.fcc.save

     init_run     :      4.38s CPU      4.95s WALL (       2 calls)
     electrons    :    270.37s CPU    338.35s WALL (       3 calls)
     update_pot   :      0.19s CPU      0.19s WALL (       1 calls)
     forces       :      0.67s CPU      0.68s WALL (       3 calls)
     stress       :      5.95s CPU      6.76s WALL (       3 calls)

     Called by init_run:
     wfcinit      :      3.60s CPU      4.00s WALL (       2 calls)
     potinit      :      0.09s CPU      0.09s WALL (       2 calls)

     Called by electrons:
     c_bands      :    211.00s CPU    262.04s WALL (      18 calls)
     sum_band     :     58.96s CPU     75.89s WALL (      18 calls)
     v_of_rho     :      0.22s CPU      0.22s WALL (      19 calls)
     newd         :      0.25s CPU      0.25s WALL (      19 calls)
     mix_rho      :      0.01s CPU      0.02s WALL (      18 calls)

     Called by c_bands:
     init_us_2    :      3.03s CPU      3.15s WALL (   33880 calls)
     cegterg      :    205.29s CPU    255.19s WALL (   13860 calls)

     Called by sum_band:
     sum_band:bec :      0.02s CPU      0.05s WALL (   13860 calls)
     addusdens    :      0.28s CPU      0.29s WALL (      18 calls)

     Called by *egterg:
     h_psi        :    160.60s CPU    198.72s WALL (   48698 calls)
     s_psi        :      0.71s CPU      0.62s WALL (   48698 calls)
     g_psi        :      0.34s CPU      0.36s WALL (   33298 calls)
     cdiaghg      :     21.01s CPU     26.64s WALL (   44848 calls)

     Called by h_psi:
     h_psi:pot    :    160.46s CPU    198.46s WALL (   48698 calls)
     h_psi:calbec :      8.42s CPU     10.95s WALL (   48698 calls)
     vloc_psi     :    151.41s CPU    186.69s WALL (   48698 calls)
     add_vuspsi   :      0.57s CPU      0.70s WALL (   48698 calls)

     General routines
     calbec       :     16.28s CPU     21.53s WALL (   74108 calls)
     fft          :      0.16s CPU      0.17s WALL (     325 calls)
     ffts         :      0.01s CPU      0.01s WALL (      37 calls)
     fftw         :    197.26s CPU    244.49s WALL (  791868 calls)
     interpolate  :      0.02s CPU      0.02s WALL (      37 calls)
     davcio       :      0.00s CPU      0.03s WALL (    1540 calls)

     Parallel routines
     fft_scatter  :    145.86s CPU    190.66s WALL (  792230 calls)

     PWSCF        :  4m43.73s CPU     5m53.92s WALL


   This run was terminated on:  15:41:26  20Dec2017            

=------------------------------------------------------------------------------=
   JOB DONE.
=------------------------------------------------------------------------------=
