
     Program PWSCF v.6.1 (svn rev. 13369) starts on 20Dec2017 at 15:41:27 

     This program is part of the open-source Quantum ESPRESSO suite
     for quantum simulation of materials; please cite
         "P. Giannozzi et al., J. Phys.:Condens. Matter 21 395502 (2009);
          URL http://www.quantum-espresso.org", 
     in publications or presentations arising from this work. More details at
     http://www.quantum-espresso.org/quote

     Parallel version (MPI), running on     4 processors
     R & G space division:  proc/nbgrp/npool/nimage =       4
     Waiting for input...
     Reading input from standard input

     Current dimensions of program PWSCF are:
     Max number of different atomic species (ntypx) = 10
     Max number of k-points (npk) =  40000
     Max angular momentum in pseudopotentials (lmaxx) =  3

     Subspace diagonalization in iterative solution of the eigenvalue problem:
     a serial algorithm will be used


     Parallelization info
     --------------------
     sticks:   dense  smooth     PW     G-vecs:    dense   smooth      PW
     Min         231     115     40                 4624     1641     340
     Max         232     117     41                 4626     1642     342
     Sum         925     463    163                18499     6567    1363



     bravais-lattice index     =            2
     lattice parameter (alat)  =       9.1543  a.u.
     unit-cell volume          =     191.7866 (a.u.)^3
     number of atoms/cell      =            1
     number of atomic types    =            1
     number of electrons       =         9.00
     number of Kohn-Sham states=            9
     kinetic-energy cutoff     =      40.0000  Ry
     charge density cutoff     =     320.0000  Ry
     convergence threshold     =      1.0E-08
     mixing beta               =       0.7000
     number of iterations used =            8  plain     mixing
     Exchange-correlation      = SLA  PW   PBE  PBE ( 1  4  3  4 0 0)
     nstep                     =           50


     celldm(1)=   9.154320  celldm(2)=   0.000000  celldm(3)=   0.000000
     celldm(4)=   0.000000  celldm(5)=   0.000000  celldm(6)=   0.000000

     crystal axes: (cart. coord. in units of alat)
               a(1) = (  -0.500000   0.000000   0.500000 )  
               a(2) = (   0.000000   0.500000   0.500000 )  
               a(3) = (  -0.500000   0.500000   0.000000 )  

     reciprocal axes: (cart. coord. in units 2 pi/alat)
               b(1) = ( -1.000000 -1.000000  1.000000 )  
               b(2) = (  1.000000  1.000000  1.000000 )  
               b(3) = ( -1.000000  1.000000 -1.000000 )  


     PseudoPot. # 1 for Na read from file:
     /home/s1333534/quantum_espresso/qe-6.1/pseudo/Na_pbe_v1.uspp.F.UPF
     MD5 check sum: 76a99c7e9422403d3e93cbc85ab7bccb
     Pseudo is Ultrasoft, Zval =  9.0
     Generated by new atomic code, or converted to UPF format
     Using radial grid of  819 points,  5 beta functions with: 
                l(1) =   0
                l(2) =   0
                l(3) =   1
                l(4) =   1
                l(5) =   2
     Q(r) pseudized with  8 coefficients,  rinner =    1.250   1.250   1.250
                                                       1.250   1.250

     atomic species   valence    mass     pseudopotential
        Na             9.00    22.99000     Na( 1.00)

     48 Sym. Ops., with inversion, found



   Cartesian axes

     site n.     atom                  positions (alat units)
         1           Na  tau(   1) = (   0.0000000   0.0000000   0.0000000  )

     number of k points=   770  Marzari-Vanderbilt smearing, width (Ry)=  0.0200

     Number of k-points >= 100: set verbosity='high' to print them.

     Dense  grid:    18499 G-vectors     FFT dimensions: (  40,  40,  40)

     Smooth grid:     6567 G-vectors     FFT dimensions: (  27,  27,  27)

     Estimated max dynamical RAM per process >      24.83MB

     Estimated total allocated dynamical RAM >      99.33MB

     Initial potential from superposition of free atoms

     starting charge    8.99371, renormalised to    9.00000
     Starting wfc are    5 randomized atomic wfcs +    4 random wfc

     total cpu time spent up to now is        2.5 secs

     per-process dynamical memory:    34.3 Mb

     Self-consistent Calculation

     iteration #  1     ecut=    40.00 Ry     beta=0.70
     Davidson diagonalization with overlap
     ethr =  1.00E-02,  avg # of iterations =  5.3

     Threshold (ethr) on eigenvalues was too large:
     Diagonalizing with lowered threshold

     Davidson diagonalization with overlap
     ethr =  1.22E-05,  avg # of iterations =  3.5

     total cpu time spent up to now is       16.3 secs

     total energy              =     -95.10104900 Ry
     Harris-Foulkes estimate   =     -95.10142175 Ry
     estimated scf accuracy    <       0.00109953 Ry

     iteration #  2     ecut=    40.00 Ry     beta=0.70
     Davidson diagonalization with overlap
     ethr =  1.22E-05,  avg # of iterations =  2.0

     total cpu time spent up to now is       20.7 secs

     total energy              =     -95.10118467 Ry
     Harris-Foulkes estimate   =     -95.10121653 Ry
     estimated scf accuracy    <       0.00012255 Ry

     iteration #  3     ecut=    40.00 Ry     beta=0.70
     Davidson diagonalization with overlap
     ethr =  1.36E-06,  avg # of iterations =  2.1

     total cpu time spent up to now is       25.2 secs

     total energy              =     -95.10119950 Ry
     Harris-Foulkes estimate   =     -95.10120078 Ry
     estimated scf accuracy    <       0.00000721 Ry

     iteration #  4     ecut=    40.00 Ry     beta=0.70
     Davidson diagonalization with overlap
     ethr =  8.01E-08,  avg # of iterations =  1.0

     total cpu time spent up to now is       29.0 secs

     End of self-consistent calculation

     Number of k-points >= 100: set verbosity='high' to print the bands.

     the Fermi energy is     2.8838 ev

!    total energy              =     -95.10120017 Ry
     Harris-Foulkes estimate   =     -95.10120011 Ry
     estimated scf accuracy    <          9.8E-09 Ry

     The total energy is the sum of the following terms:

     one-electron contribution =     -82.13167347 Ry
     hartree contribution      =      41.90436924 Ry
     xc contribution           =     -14.30570988 Ry
     ewald contribution        =     -40.56814817 Ry
     smearing contrib. (-TS)   =      -0.00003788 Ry

     convergence has been achieved in   4 iterations

     Forces acting on atoms (cartesian axes, Ry/au):

     atom    1 type  1   force =     0.00000000    0.00000000    0.00000000

     Total force =     0.000000     Total SCF correction =     0.000000


     Computing stress (Cartesian axis) and pressure

          total   stress  (Ry/bohr**3)                   (kbar)     P=   29.81
   0.00020265  -0.00000000  -0.00000000         29.81     -0.00     -0.00
  -0.00000000   0.00020265   0.00000000         -0.00     29.81      0.00
  -0.00000000   0.00000000   0.00020265         -0.00      0.00     29.81


     BFGS Geometry Optimization

     bfgs converged in   1 scf cycles and   0 bfgs steps
     (criteria: energy <  1.0E-04 Ry, force <  1.0E-03Ry/Bohr, cell <  5.0E-01kbar)

     End of BFGS Geometry Optimization

     Final enthalpy =     -95.0620879886 Ry
Begin final coordinates
     new unit-cell volume =    191.78664 a.u.^3 (    28.41985 Ang^3 )
     density =      1.34328 g/cm^3

CELL_PARAMETERS (alat=  9.15432044)
  -0.500000000   0.000000000   0.500000000
   0.000000000   0.500000000   0.500000000
  -0.500000000   0.500000000   0.000000000

ATOMIC_POSITIONS (crystal)
Na       0.000000000   0.000000000   0.000000000
End final coordinates



     A final scf calculation at the relaxed structure.
     The G-vectors are recalculated for the final unit cell
     Results may differ from those at the preceding step.

     Parallelization info
     --------------------
     sticks:   dense  smooth     PW     G-vecs:    dense   smooth      PW
     Min         231     115     40                 4624     1641     340
     Max         232     117     41                 4626     1642     342
     Sum         925     463    163                18499     6567    1363



     bravais-lattice index     =            2
     lattice parameter (alat)  =       9.1543  a.u.
     unit-cell volume          =     191.7866 (a.u.)^3
     number of atoms/cell      =            1
     number of atomic types    =            1
     number of electrons       =         9.00
     number of Kohn-Sham states=            9
     kinetic-energy cutoff     =      40.0000  Ry
     charge density cutoff     =     320.0000  Ry
     convergence threshold     =      1.0E-08
     mixing beta               =       0.7000
     number of iterations used =            8  plain     mixing
     Exchange-correlation      = SLA  PW   PBE  PBE ( 1  4  3  4 0 0)

     celldm(1)=   9.154320  celldm(2)=   0.000000  celldm(3)=   0.000000
     celldm(4)=   0.000000  celldm(5)=   0.000000  celldm(6)=   0.000000

     crystal axes: (cart. coord. in units of alat)
               a(1) = (  -0.500000   0.000000   0.500000 )  
               a(2) = (   0.000000   0.500000   0.500000 )  
               a(3) = (  -0.500000   0.500000   0.000000 )  

     reciprocal axes: (cart. coord. in units 2 pi/alat)
               b(1) = ( -1.000000 -1.000000  1.000000 )  
               b(2) = (  1.000000  1.000000  1.000000 )  
               b(3) = ( -1.000000  1.000000 -1.000000 )  


     PseudoPot. # 1 for Na read from file:
     /home/s1333534/quantum_espresso/qe-6.1/pseudo/Na_pbe_v1.uspp.F.UPF
     MD5 check sum: 76a99c7e9422403d3e93cbc85ab7bccb
     Pseudo is Ultrasoft, Zval =  9.0
     Generated by new atomic code, or converted to UPF format
     Using radial grid of  819 points,  5 beta functions with: 
                l(1) =   0
                l(2) =   0
                l(3) =   1
                l(4) =   1
                l(5) =   2
     Q(r) pseudized with  8 coefficients,  rinner =    1.250   1.250   1.250
                                                       1.250   1.250

     atomic species   valence    mass     pseudopotential
        Na             9.00    22.99000     Na( 1.00)

     48 Sym. Ops., with inversion, found



   Cartesian axes

     site n.     atom                  positions (alat units)
         1           Na  tau(   1) = (   0.0000000   0.0000000   0.0000000  )

     number of k points=   770  Marzari-Vanderbilt smearing, width (Ry)=  0.0200

     Number of k-points >= 100: set verbosity='high' to print them.

     Dense  grid:    18499 G-vectors     FFT dimensions: (  40,  40,  40)

     Smooth grid:     6567 G-vectors     FFT dimensions: (  27,  27,  27)

     Estimated max dynamical RAM per process >      24.83MB

     Estimated total allocated dynamical RAM >      99.33MB

     Initial potential from superposition of free atoms

     starting charge    8.99371, renormalised to    9.00000
     Starting wfc are    5 randomized atomic wfcs +    4 random wfc

     Writing output data file na.fcc.save

     total cpu time spent up to now is       33.1 secs

     per-process dynamical memory:    41.7 Mb

     Self-consistent Calculation

     iteration #  1     ecut=    40.00 Ry     beta=0.70
     Davidson diagonalization with overlap
     c_bands:  1 eigenvalues not converged
     c_bands:  1 eigenvalues not converged
     c_bands:  1 eigenvalues not converged
     c_bands:  1 eigenvalues not converged
     ethr =  1.00E-06,  avg # of iterations = 10.7

     total cpu time spent up to now is       45.7 secs

     total energy              =     -95.10104430 Ry
     Harris-Foulkes estimate   =     -95.10142202 Ry
     estimated scf accuracy    <       0.00110427 Ry

     iteration #  2     ecut=    40.00 Ry     beta=0.70
     Davidson diagonalization with overlap
     ethr =  1.23E-05,  avg # of iterations =  2.0

     total cpu time spent up to now is       50.1 secs

     total energy              =     -95.10118509 Ry
     Harris-Foulkes estimate   =     -95.10121883 Ry
     estimated scf accuracy    <       0.00012608 Ry

     iteration #  3     ecut=    40.00 Ry     beta=0.70
     Davidson diagonalization with overlap
     ethr =  1.40E-06,  avg # of iterations =  2.0

     total cpu time spent up to now is       54.6 secs

     total energy              =     -95.10119949 Ry
     Harris-Foulkes estimate   =     -95.10120095 Ry
     estimated scf accuracy    <       0.00000758 Ry

     iteration #  4     ecut=    40.00 Ry     beta=0.70
     Davidson diagonalization with overlap
     ethr =  8.42E-08,  avg # of iterations =  1.0

     total cpu time spent up to now is       58.4 secs

     End of self-consistent calculation

     Number of k-points >= 100: set verbosity='high' to print the bands.

     the Fermi energy is     2.8838 ev

!    total energy              =     -95.10120017 Ry
     Harris-Foulkes estimate   =     -95.10120011 Ry
     estimated scf accuracy    <          8.7E-09 Ry

     The total energy is the sum of the following terms:

     one-electron contribution =     -82.13162686 Ry
     hartree contribution      =      41.90431171 Ry
     xc contribution           =     -14.30569897 Ry
     ewald contribution        =     -40.56814817 Ry
     smearing contrib. (-TS)   =      -0.00003788 Ry

     convergence has been achieved in   4 iterations

     Forces acting on atoms (cartesian axes, Ry/au):

     atom    1 type  1   force =     0.00000000    0.00000000    0.00000000

     Total force =     0.000000     Total SCF correction =     0.000000


     Computing stress (Cartesian axis) and pressure

          total   stress  (Ry/bohr**3)                   (kbar)     P=   29.70
   0.00020189  -0.00000000  -0.00000000         29.70     -0.00     -0.00
  -0.00000000   0.00020189   0.00000000         -0.00     29.70      0.00
  -0.00000000   0.00000000   0.00020189         -0.00      0.00     29.70


     Writing output data file na.fcc.save

     init_run     :      4.00s CPU      4.27s WALL (       2 calls)
     electrons    :     49.17s CPU     51.80s WALL (       2 calls)
     forces       :      0.41s CPU      0.41s WALL (       2 calls)
     stress       :      2.43s CPU      2.44s WALL (       2 calls)

     Called by init_run:
     wfcinit      :      3.28s CPU      3.50s WALL (       2 calls)
     potinit      :      0.09s CPU      0.11s WALL (       2 calls)

     Called by electrons:
     c_bands      :     42.46s CPU     44.77s WALL (       9 calls)
     sum_band     :      6.51s CPU      6.83s WALL (       9 calls)
     v_of_rho     :      0.11s CPU      0.12s WALL (      10 calls)
     newd         :      0.11s CPU      0.12s WALL (      10 calls)
     mix_rho      :      0.01s CPU      0.01s WALL (       9 calls)

     Called by c_bands:
     init_us_2    :      1.64s CPU      1.56s WALL (   18480 calls)
     cegterg      :     41.04s CPU     43.36s WALL (    6930 calls)

     Called by sum_band:
     sum_band:bec :      0.02s CPU      0.02s WALL (    6930 calls)
     addusdens    :      0.13s CPU      0.13s WALL (       9 calls)

     Called by *egterg:
     h_psi        :     35.69s CPU     37.80s WALL (   31249 calls)
     s_psi        :      0.43s CPU      0.36s WALL (   31249 calls)
     g_psi        :      0.21s CPU      0.21s WALL (   22779 calls)
     cdiaghg      :      4.75s CPU      4.91s WALL (   28939 calls)

     Called by h_psi:
     h_psi:pot    :     35.58s CPU     37.62s WALL (   31249 calls)
     h_psi:calbec :      0.79s CPU      0.62s WALL (   31249 calls)
     vloc_psi     :     34.46s CPU     36.51s WALL (   31249 calls)
     add_vuspsi   :      0.28s CPU      0.41s WALL (   31249 calls)

     General routines
     calbec       :      1.08s CPU      0.96s WALL (   45879 calls)
     fft          :      0.07s CPU      0.08s WALL (     172 calls)
     ffts         :      0.00s CPU      0.00s WALL (      19 calls)
     fftw         :     37.20s CPU     37.69s WALL (  452758 calls)
     interpolate  :      0.01s CPU      0.01s WALL (      19 calls)
     davcio       :      0.01s CPU      0.01s WALL (    1540 calls)

     Parallel routines
     fft_scatter  :      6.73s CPU      8.19s WALL (  452949 calls)

     PWSCF        :  0m57.43s CPU     1m 0.45s WALL


   This run was terminated on:  15:42:28  20Dec2017            

=------------------------------------------------------------------------------=
   JOB DONE.
=------------------------------------------------------------------------------=
