
     Program PWSCF v.6.1 (svn rev. 13369) starts on 13Feb2018 at 10:27:34 

     This program is part of the open-source Quantum ESPRESSO suite
     for quantum simulation of materials; please cite
         "P. Giannozzi et al., J. Phys.:Condens. Matter 21 395502 (2009);
          URL http://www.quantum-espresso.org", 
     in publications or presentations arising from this work. More details at
     http://www.quantum-espresso.org/quote

     Parallel version (MPI), running on    64 processors
     K-points division:     npool     =       4
     R & G space division:  proc/nbgrp/npool/nimage =      16
     Waiting for input...
     Reading input from standard input

     Current dimensions of program PWSCF are:
     Max number of different atomic species (ntypx) = 10
     Max number of k-points (npk) =  80000
     Max angular momentum in pseudopotentials (lmaxx) =  3

     Subspace diagonalization in iterative solution of the eigenvalue problem:
     a serial algorithm will be used


     Parallelization info
     --------------------
     sticks:   dense  smooth     PW     G-vecs:    dense   smooth      PW
     Min          75      37     12                 1744      614     117
     Max          76      38     13                 1747      618     120
     Sum        1213     595    199                27941     9841    1893



     bravais-lattice index     =            2
     lattice parameter (alat)  =      10.5000  a.u.
     unit-cell volume          =     289.4062 (a.u.)^3
     number of atoms/cell      =            1
     number of atomic types    =            1
     number of electrons       =         9.00
     number of Kohn-Sham states=            9
     kinetic-energy cutoff     =      40.0000  Ry
     charge density cutoff     =     320.0000  Ry
     convergence threshold     =      1.0E-10
     mixing beta               =       0.7000
     number of iterations used =            8  plain     mixing
     Exchange-correlation      = SLA  PW   PBE  PBE ( 1  4  3  4 0 0)

     celldm(1)=  10.500000  celldm(2)=   0.000000  celldm(3)=   0.000000
     celldm(4)=   0.000000  celldm(5)=   0.000000  celldm(6)=   0.000000

     crystal axes: (cart. coord. in units of alat)
               a(1) = (  -0.500000   0.000000   0.500000 )  
               a(2) = (   0.000000   0.500000   0.500000 )  
               a(3) = (  -0.500000   0.500000   0.000000 )  

     reciprocal axes: (cart. coord. in units 2 pi/alat)
               b(1) = ( -1.000000 -1.000000  1.000000 )  
               b(2) = (  1.000000  1.000000  1.000000 )  
               b(3) = ( -1.000000  1.000000 -1.000000 )  


     PseudoPot. # 1 for Na read from file:
     /home/s1333534/quantum_espresso/qe-6.1/pseudo/Na_pbe_v1.uspp.F.UPF
     MD5 check sum: 76a99c7e9422403d3e93cbc85ab7bccb
     Pseudo is Ultrasoft, Zval =  9.0
     Generated by new atomic code, or converted to UPF format
     Using radial grid of  819 points,  5 beta functions with: 
                l(1) =   0
                l(2) =   0
                l(3) =   1
                l(4) =   1
                l(5) =   2
     Q(r) pseudized with  8 coefficients,  rinner =    1.250   1.250   1.250
                                                       1.250   1.250

     atomic species   valence    mass     pseudopotential
        Na             9.00    22.99000     Na( 1.00)

     48 Sym. Ops., with inversion, found



   Cartesian axes

     site n.     atom                  positions (alat units)
         1           Na  tau(   1) = (   0.0000000   0.0000000   0.0000000  )

     number of k points=   770  Marzari-Vanderbilt smearing, width (Ry)=  0.0200

     Number of k-points >= 100: set verbosity='high' to print them.

     Dense  grid:    27941 G-vectors     FFT dimensions: (  45,  45,  45)

     Smooth grid:     9841 G-vectors     FFT dimensions: (  30,  30,  30)

     Estimated max dynamical RAM per process >       3.30MB

     Estimated total allocated dynamical RAM >     211.26MB

     Initial potential from superposition of free atoms

     starting charge    8.99371, renormalised to    9.00000
     Starting wfc are    5 randomized atomic wfcs +    4 random wfc

     total cpu time spent up to now is        1.1 secs

     per-process dynamical memory:     9.4 Mb

     Self-consistent Calculation

     iteration #  1     ecut=    40.00 Ry     beta=0.70
     Davidson diagonalization with overlap
     ethr =  1.00E-02,  avg # of iterations =  5.6

     Threshold (ethr) on eigenvalues was too large:
     Diagonalizing with lowered threshold

     Davidson diagonalization with overlap
     ethr =  9.73E-06,  avg # of iterations =  4.3

     total cpu time spent up to now is        9.6 secs

     total energy              =     -95.10520062 Ry
     Harris-Foulkes estimate   =     -95.10532261 Ry
     estimated scf accuracy    <       0.00087602 Ry

     iteration #  2     ecut=    40.00 Ry     beta=0.70
     Davidson diagonalization with overlap
     ethr =  9.73E-06,  avg # of iterations =  1.7

     total cpu time spent up to now is       11.9 secs

     total energy              =     -95.10528879 Ry
     Harris-Foulkes estimate   =     -95.10530552 Ry
     estimated scf accuracy    <       0.00009458 Ry

     iteration #  3     ecut=    40.00 Ry     beta=0.70
     Davidson diagonalization with overlap
     ethr =  1.05E-06,  avg # of iterations =  2.1

     total cpu time spent up to now is       14.5 secs

     total energy              =     -95.10530159 Ry
     Harris-Foulkes estimate   =     -95.10530222 Ry
     estimated scf accuracy    <       0.00000548 Ry

     iteration #  4     ecut=    40.00 Ry     beta=0.70
     Davidson diagonalization with overlap
     ethr =  6.09E-08,  avg # of iterations =  1.0

     total cpu time spent up to now is       16.6 secs

     total energy              =     -95.10530213 Ry
     Harris-Foulkes estimate   =     -95.10530209 Ry
     estimated scf accuracy    <       0.00000002 Ry

     iteration #  5     ecut=    40.00 Ry     beta=0.70
     Davidson diagonalization with overlap
     ethr =  2.35E-10,  avg # of iterations =  3.0

     total cpu time spent up to now is       19.6 secs

     total energy              =     -95.10530216 Ry
     Harris-Foulkes estimate   =     -95.10530215 Ry
     estimated scf accuracy    <          1.5E-09 Ry

     iteration #  6     ecut=    40.00 Ry     beta=0.70
     Davidson diagonalization with overlap
     ethr =  1.66E-11,  avg # of iterations =  1.6

     total cpu time spent up to now is       21.9 secs

     End of self-consistent calculation

     Number of k-points >= 100: set verbosity='high' to print the bands.

     the Fermi energy is     1.0432 ev

!    total energy              =     -95.10530216 Ry
     Harris-Foulkes estimate   =     -95.10530216 Ry
     estimated scf accuracy    <          5.4E-12 Ry

     The total energy is the sum of the following terms:

     one-electron contribution =     -91.24451675 Ry
     hartree contribution      =      45.75886840 Ry
     xc contribution           =     -14.25066415 Ry
     ewald contribution        =     -35.36893600 Ry
     smearing contrib. (-TS)   =      -0.00005366 Ry

     convergence has been achieved in   6 iterations


     Computing stress (Cartesian axis) and pressure

          total   stress  (Ry/bohr**3)                   (kbar)     P=  -11.02
  -0.00007493  -0.00000000  -0.00000000        -11.02     -0.00     -0.00
  -0.00000000  -0.00007493   0.00000000         -0.00    -11.02      0.00
  -0.00000000   0.00000000  -0.00007493         -0.00      0.00    -11.02


     Writing output data file na.fcc.save

     init_run     :      0.85s CPU      0.91s WALL (       1 calls)
     electrons    :     19.65s CPU     20.84s WALL (       1 calls)
     stress       :      0.46s CPU      0.47s WALL (       1 calls)

     Called by init_run:
     wfcinit      :      0.65s CPU      0.68s WALL (       1 calls)
     potinit      :      0.03s CPU      0.03s WALL (       1 calls)

     Called by electrons:
     c_bands      :     16.72s CPU     17.78s WALL (       7 calls)
     sum_band     :      2.75s CPU      2.86s WALL (       7 calls)
     v_of_rho     :      0.09s CPU      0.09s WALL (       7 calls)
     newd         :      0.08s CPU      0.09s WALL (       7 calls)
     mix_rho      :      0.01s CPU      0.01s WALL (       7 calls)

     Called by c_bands:
     init_us_2    :      0.27s CPU      0.28s WALL (    3088 calls)
     cegterg      :     14.81s CPU     15.84s WALL (    1351 calls)

     Called by sum_band:
     sum_band:bec :      0.02s CPU      0.02s WALL (    1351 calls)
     addusdens    :      0.10s CPU      0.10s WALL (       7 calls)

     Called by *egterg:
     h_psi        :     11.33s CPU     11.90s WALL (    5405 calls)
     s_psi        :      0.12s CPU      0.12s WALL (    5405 calls)
     g_psi        :      0.03s CPU      0.04s WALL (    3861 calls)
     cdiaghg      :      2.28s CPU      2.48s WALL (    5019 calls)

     Called by h_psi:
     h_psi:pot    :     11.28s CPU     11.85s WALL (    5405 calls)
     h_psi:calbec :      0.43s CPU      0.46s WALL (    5405 calls)
     vloc_psi     :     10.68s CPU     11.21s WALL (    5405 calls)
     add_vuspsi   :      0.12s CPU      0.13s WALL (    5405 calls)

     General routines
     calbec       :      0.57s CPU      0.61s WALL (    6949 calls)
     fft          :      0.10s CPU      0.11s WALL (     117 calls)
     ffts         :      0.02s CPU      0.02s WALL (      14 calls)
     fftw         :     11.47s CPU     12.03s WALL (   78507 calls)
     interpolate  :      0.03s CPU      0.03s WALL (      14 calls)
     davcio       :      0.01s CPU      0.10s WALL (     193 calls)

     Parallel routines
     fft_scatter  :      5.91s CPU      6.19s WALL (   78638 calls)

     PWSCF        :    23.96s CPU        25.46s WALL


   This run was terminated on:  10:28: 0  13Feb2018            

=------------------------------------------------------------------------------=
   JOB DONE.
=------------------------------------------------------------------------------=
