
     Program PHONON v.6.1 (svn rev. 13369) starts on  2Feb2018 at  1:18: 8 

     This program is part of the open-source Quantum ESPRESSO suite
     for quantum simulation of materials; please cite
         "P. Giannozzi et al., J. Phys.:Condens. Matter 21 395502 (2009);
          URL http://www.quantum-espresso.org", 
     in publications or presentations arising from this work. More details at
     http://www.quantum-espresso.org/quote

     Parallel version (MPI), running on    64 processors
     K-points division:     npool     =       4
     R & G space division:  proc/nbgrp/npool/nimage =      16

     Reading data from directory:
     ./na.fcc.save

   Info: using nr1, nr2, nr3 values from input

   Info: using nr1, nr2, nr3 values from input

     IMPORTANT: XC functional enforced from input :
     Exchange-correlation      = SLA  PW   PBE  PBE ( 1  4  3  4 0 0)
     Any further DFT definition will be discarded
     Please, verify this is what you really want


     Parallelization info
     --------------------
     sticks:   dense  smooth     PW     G-vecs:    dense   smooth      PW
     Min          55      27      9                 1097      388      76
     Max          56      28     10                 1100      393      79
     Sum         889     439    151                17573     6231    1243



     Dynamical matrices for ( 6, 6, 6)  uniform grid of q-points
     (  16q-points):
       N         xq(1)         xq(2)         xq(3) 
       1   0.000000000   0.000000000   0.000000000
       2  -0.166666667   0.166666667  -0.166666667
       3  -0.333333333   0.333333333  -0.333333333
       4   0.500000000  -0.500000000   0.500000000
       5   0.000000000   0.333333333   0.000000000
       6  -0.166666667   0.500000000  -0.166666667
       7   0.666666667  -0.333333333   0.666666667
       8   0.500000000  -0.166666667   0.500000000
       9   0.333333333   0.000000000   0.333333333
      10   0.000000000   0.666666667   0.000000000
      11   0.833333333  -0.166666667   0.833333333
      12   0.666666667  -0.000000000   0.666666667
      13   0.000000000  -1.000000000   0.000000000
      14   0.666666667  -0.333333333   1.000000000
      15   0.500000000  -0.166666667   0.833333333
      16  -0.333333333  -1.000000000   0.000000000

     Calculation of q =    0.0000000   0.0000000   0.0000000

                                                                                

     bravais-lattice index     =            2
     lattice parameter (alat)  =       9.0100  a.u.
     unit-cell volume          =     182.8582 (a.u.)^3
     number of atoms/cell      =            1
     number of atomic types    =            1
     kinetic-energy cut-off    =      40.0000  Ry
     charge density cut-off    =     320.0000  Ry
     convergence threshold     =      1.0E-16
     beta                      =       0.7000
     number of iterations used =            4
     Exchange-correlation      = SLA  PW   PBE  PBE ( 1  4  3  4 0 0)


     celldm(1)=    9.01000  celldm(2)=    0.00000  celldm(3)=    0.00000
     celldm(4)=    0.00000  celldm(5)=    0.00000  celldm(6)=    0.00000

     crystal axes: (cart. coord. in units of alat)
               a(1) = ( -0.5000  0.0000  0.5000 )  
               a(2) = (  0.0000  0.5000  0.5000 )  
               a(3) = ( -0.5000  0.5000  0.0000 )  

     reciprocal axes: (cart. coord. in units 2 pi/alat)
               b(1) = ( -1.0000 -1.0000  1.0000 )  
               b(2) = (  1.0000  1.0000  1.0000 )  
               b(3) = ( -1.0000  1.0000 -1.0000 )  


     Atoms inside the unit cell: 

     Cartesian axes

     site n.  atom      mass           positions (alat units)
        1     Na  22.9900   tau(    1) = (    0.00000    0.00000    0.00000  )

     Computing dynamical matrix for 
                    q = (   0.0000000   0.0000000   0.0000000 )

     49 Sym.Ops. (with q -> -q+G )


     G cutoff =  658.0211  (   1100 G-vectors)     FFT grid: ( 40, 40, 40)
     G cutoff =  329.0106  (    393 G-vectors)  smooth grid: ( 25, 25, 25)

     number of k points=   770  Marzari-Vanderbilt smearing, width (Ry)=  0.0200

     PseudoPot. # 1 for Na read from file:
     /home/s1333534/quantum_espresso/qe-6.1/pseudo/Na_pbe_v1.uspp.F.UPF
     MD5 check sum: 76a99c7e9422403d3e93cbc85ab7bccb
     Pseudo is Ultrasoft, Zval =  9.0
     Generated by new atomic code, or converted to UPF format
     Using radial grid of  819 points,  5 beta functions with: 
                l(1) =   0
                l(2) =   0
                l(3) =   1
                l(4) =   1
                l(5) =   2
     Q(r) pseudized with  8 coefficients,  rinner =    1.250   1.250   1.250
                                                       1.250   1.250

     Mode symmetry, O_h (m-3m)  point group:


     Atomic displacements:
     There are   1 irreducible representations

     Representation     1      3 modes -T_1u G_15  G_4-  To be done



     Alpha used in Ewald sum =   2.8000
     PHONON       :     7.25s CPU         7.75s WALL



     Representation #  1 modes #   1  2  3

     Self-consistent Calculation

     Pert. #  1: Fermi energy shift (Ry) =     4.3082E-27     2.0375E-37
     Pert. #  2: Fermi energy shift (Ry) =     1.1201E-25     2.3510E-38
     Pert. #  3: Fermi energy shift (Ry) =     2.0787E-25     2.0375E-37

      iter #   1 total cpu time :    15.6 secs   av.it.:   5.4
      thresh= 1.000E-02 alpha_mix =  0.700 |ddv_scf|^2 =  1.226E-06

     Pert. #  1: Fermi energy shift (Ry) =     3.4466E-26    -3.1836E-39
     Pert. #  2: Fermi energy shift (Ry) =     1.2925E-26    -3.6734E-40
     Pert. #  3: Fermi energy shift (Ry) =    -1.2278E-25    -3.1836E-39

      iter #   2 total cpu time :    24.5 secs   av.it.:   8.5
      thresh= 1.107E-04 alpha_mix =  0.700 |ddv_scf|^2 =  2.370E-08

     Pert. #  1: Fermi energy shift (Ry) =     6.0315E-26     4.5918E-41
     Pert. #  2: Fermi energy shift (Ry) =     0.0000E+00    -1.3010E-40
     Pert. #  3: Fermi energy shift (Ry) =    -8.4011E-26    -3.0612E-41

      iter #   3 total cpu time :    33.7 secs   av.it.:   8.7
      thresh= 1.540E-05 alpha_mix =  0.700 |ddv_scf|^2 =  2.876E-10

     Pert. #  1: Fermi energy shift (Ry) =    -6.0315E-26    -1.9132E-42
     Pert. #  2: Fermi energy shift (Ry) =     8.6165E-27    -1.9132E-42
     Pert. #  3: Fermi energy shift (Ry) =     3.0158E-26     2.8699E-42

      iter #   4 total cpu time :    43.2 secs   av.it.:   8.1
      thresh= 1.696E-06 alpha_mix =  0.700 |ddv_scf|^2 =  1.107E-12

     Pert. #  1: Fermi energy shift (Ry) =     8.6165E-27    -6.6963E-42
     Pert. #  2: Fermi energy shift (Ry) =     0.0000E+00    -8.6096E-42
     Pert. #  3: Fermi energy shift (Ry) =     4.3082E-26    -3.3482E-42

      iter #   5 total cpu time :    52.4 secs   av.it.:   8.4
      thresh= 1.052E-07 alpha_mix =  0.700 |ddv_scf|^2 =  3.502E-15

     Pert. #  1: Fermi energy shift (Ry) =    -1.7233E-26    -6.6963E-42
     Pert. #  2: Fermi energy shift (Ry) =     0.0000E+00    -8.6096E-42
     Pert. #  3: Fermi energy shift (Ry) =     6.2469E-26    -3.3482E-42

      iter #   6 total cpu time :    61.7 secs   av.it.:   8.3
      thresh= 5.918E-09 alpha_mix =  0.700 |ddv_scf|^2 =  4.311E-17

     End of self-consistent calculation

     Convergence has been achieved 

     Number of q in the star =    1
     List of q in the star:
          1   0.000000000   0.000000000   0.000000000

     Diagonalizing the dynamical matrix

     q = (    0.000000000   0.000000000   0.000000000 ) 

 **************************************************************************
     freq (    1) =      -0.234630 [THz] =      -7.826421 [cm-1]
     freq (    2) =      -0.234630 [THz] =      -7.826421 [cm-1]
     freq (    3) =      -0.234630 [THz] =      -7.826421 [cm-1]
 **************************************************************************

     Mode symmetry, O_h (m-3m)  point group:

     freq (  1 -  3) =         -7.8  [cm-1]   --> T_1u G_15  G_4- I  

     Calculation of q =   -0.1666667   0.1666667  -0.1666667

   Info: using nr1, nr2, nr3 values from input

   Info: using nr1, nr2, nr3 values from input

     Parallelization info
     --------------------
     sticks:   dense  smooth     PW     G-vecs:    dense   smooth      PW
     Min          55      27     10                 1097      388      84
     Max          56      28     11                 1100      393      86
     Sum         889     439    163                17573     6231    1363



     bravais-lattice index     =            2
     lattice parameter (alat)  =       9.0100  a.u.
     unit-cell volume          =     182.8582 (a.u.)^3
     number of atoms/cell      =            1
     number of atomic types    =            1
     number of electrons       =         9.00
     number of Kohn-Sham states=            9
     kinetic-energy cutoff     =      40.0000  Ry
     charge density cutoff     =     320.0000  Ry
     Exchange-correlation      = SLA  PW   PBE  PBE ( 1  4  3  4 0 0)

     celldm(1)=   9.010000  celldm(2)=   0.000000  celldm(3)=   0.000000
     celldm(4)=   0.000000  celldm(5)=   0.000000  celldm(6)=   0.000000

     crystal axes: (cart. coord. in units of alat)
               a(1) = (  -0.500000   0.000000   0.500000 )  
               a(2) = (   0.000000   0.500000   0.500000 )  
               a(3) = (  -0.500000   0.500000   0.000000 )  

     reciprocal axes: (cart. coord. in units 2 pi/alat)
               b(1) = ( -1.000000 -1.000000  1.000000 )  
               b(2) = (  1.000000  1.000000  1.000000 )  
               b(3) = ( -1.000000  1.000000 -1.000000 )  


     PseudoPot. # 1 for Na read from file:
     /home/s1333534/quantum_espresso/qe-6.1/pseudo/Na_pbe_v1.uspp.F.UPF
     MD5 check sum: 76a99c7e9422403d3e93cbc85ab7bccb
     Pseudo is Ultrasoft, Zval =  9.0
     Generated by new atomic code, or converted to UPF format
     Using radial grid of  819 points,  5 beta functions with: 
                l(1) =   0
                l(2) =   0
                l(3) =   1
                l(4) =   1
                l(5) =   2
     Q(r) pseudized with  8 coefficients,  rinner =    1.250   1.250   1.250
                                                       1.250   1.250

     atomic species   valence    mass     pseudopotential
        Na             9.00    22.99000     Na( 1.00)

     48 Sym. Ops., with inversion, found



   Cartesian axes

     site n.     atom                  positions (alat units)
         1           Na  tau(   1) = (   0.0000000   0.0000000   0.0000000  )

     number of k points= 11480  Marzari-Vanderbilt smearing, width (Ry)=  0.0200

     Number of k-points >= 100: set verbosity='high' to print them.

     Dense  grid:    17573 G-vectors     FFT dimensions: (  40,  40,  40)

     Smooth grid:     6231 G-vectors     FFT dimensions: (  25,  25,  25)

     Estimated max dynamical RAM per process >       0.60MB

     Estimated total allocated dynamical RAM >      38.61MB

     The potential is recalculated from file :
     ./_ph0/na.fcc.save/charge-density.dat

     Starting wfc are    5 atomic +    4 random wfc

     Band Structure Calculation
     Davidson diagonalization with overlap

     ethr =  1.11E-10,  avg # of iterations = 17.7

     total cpu time spent up to now is      143.6 secs

     End of band structure calculation

     Number of k-points >= 100: set verbosity='high' to print the bands.

     the Fermi energy is     3.1550 ev

     Writing output data file na.fcc.save

                                                                                

     bravais-lattice index     =            2
     lattice parameter (alat)  =       9.0100  a.u.
     unit-cell volume          =     182.8582 (a.u.)^3
     number of atoms/cell      =            1
     number of atomic types    =            1
     kinetic-energy cut-off    =      40.0000  Ry
     charge density cut-off    =     320.0000  Ry
     convergence threshold     =      1.0E-16
     beta                      =       0.7000
     number of iterations used =            4
     Exchange-correlation      = SLA  PW   PBE  PBE ( 1  4  3  4 0 0)


     celldm(1)=    9.01000  celldm(2)=    0.00000  celldm(3)=    0.00000
     celldm(4)=    0.00000  celldm(5)=    0.00000  celldm(6)=    0.00000

     crystal axes: (cart. coord. in units of alat)
               a(1) = ( -0.5000  0.0000  0.5000 )  
               a(2) = (  0.0000  0.5000  0.5000 )  
               a(3) = ( -0.5000  0.5000  0.0000 )  

     reciprocal axes: (cart. coord. in units 2 pi/alat)
               b(1) = ( -1.0000 -1.0000  1.0000 )  
               b(2) = (  1.0000  1.0000  1.0000 )  
               b(3) = ( -1.0000  1.0000 -1.0000 )  


     Atoms inside the unit cell: 

     Cartesian axes

     site n.  atom      mass           positions (alat units)
        1     Na  22.9900   tau(    1) = (    0.00000    0.00000    0.00000  )

     Computing dynamical matrix for 
                    q = (  -0.1666667   0.1666667  -0.1666667 )

      6 Sym.Ops. (no q -> -q+G )


     G cutoff =  658.0211  (   1100 G-vectors)     FFT grid: ( 40, 40, 40)
     G cutoff =  329.0106  (    393 G-vectors)  smooth grid: ( 25, 25, 25)

     number of k points= 11480  Marzari-Vanderbilt smearing, width (Ry)=  0.0200

     PseudoPot. # 1 for Na read from file:
     /home/s1333534/quantum_espresso/qe-6.1/pseudo/Na_pbe_v1.uspp.F.UPF
     MD5 check sum: 76a99c7e9422403d3e93cbc85ab7bccb
     Pseudo is Ultrasoft, Zval =  9.0
     Generated by new atomic code, or converted to UPF format
     Using radial grid of  819 points,  5 beta functions with: 
                l(1) =   0
                l(2) =   0
                l(3) =   1
                l(4) =   1
                l(5) =   2
     Q(r) pseudized with  8 coefficients,  rinner =    1.250   1.250   1.250
                                                       1.250   1.250

     Mode symmetry, C_3v (3m)   point group:


     Atomic displacements:
     There are   2 irreducible representations

     Representation     1      1 modes -A_1  L_1  To be done

     Representation     2      2 modes -E    L_3  To be done



     Alpha used in Ewald sum =   2.8000
     PHONON       :  3m50.80s CPU     4m 6.28s WALL



     Representation #  1 mode #   1

     Self-consistent Calculation

      iter #   1 total cpu time :   264.6 secs   av.it.:   5.7
      thresh= 1.000E-02 alpha_mix =  0.700 |ddv_scf|^2 =  3.546E-02

      iter #   2 total cpu time :   282.0 secs   av.it.:   6.7
      thresh= 1.000E-02 alpha_mix =  0.700 |ddv_scf|^2 =  5.140E+00

      iter #   3 total cpu time :   299.6 secs   av.it.:   6.7
      thresh= 1.000E-02 alpha_mix =  0.700 |ddv_scf|^2 =  4.547E-07

      iter #   4 total cpu time :   319.7 secs   av.it.:   7.8
      thresh= 6.743E-05 alpha_mix =  0.700 |ddv_scf|^2 =  7.574E-08

      iter #   5 total cpu time :   338.6 secs   av.it.:   7.5
      thresh= 2.752E-05 alpha_mix =  0.700 |ddv_scf|^2 =  4.661E-09

      iter #   6 total cpu time :   357.7 secs   av.it.:   7.5
      thresh= 6.827E-06 alpha_mix =  0.700 |ddv_scf|^2 =  3.791E-09

      iter #   7 total cpu time :   372.6 secs   av.it.:   5.2
      thresh= 6.157E-06 alpha_mix =  0.700 |ddv_scf|^2 =  3.976E-09

      iter #   8 total cpu time :   389.6 secs   av.it.:   6.5
      thresh= 6.305E-06 alpha_mix =  0.700 |ddv_scf|^2 =  4.173E-11

      iter #   9 total cpu time :   408.0 secs   av.it.:   7.3
      thresh= 6.460E-07 alpha_mix =  0.700 |ddv_scf|^2 =  1.211E-12

      iter #  10 total cpu time :   428.4 secs   av.it.:   7.3
      thresh= 1.100E-07 alpha_mix =  0.700 |ddv_scf|^2 =  1.079E-13

      iter #  11 total cpu time :   446.5 secs   av.it.:   7.2
      thresh= 3.285E-08 alpha_mix =  0.700 |ddv_scf|^2 =  4.729E-16

      iter #  12 total cpu time :   466.4 secs   av.it.:   8.0
      thresh= 2.175E-09 alpha_mix =  0.700 |ddv_scf|^2 =  3.595E-16

      iter #  13 total cpu time :   484.5 secs   av.it.:   7.3
      thresh= 1.896E-09 alpha_mix =  0.700 |ddv_scf|^2 =  6.519E-15

      iter #  14 total cpu time :   501.3 secs   av.it.:   5.5
      thresh= 8.074E-09 alpha_mix =  0.700 |ddv_scf|^2 =  8.415E-18

     End of self-consistent calculation

     Convergence has been achieved 


     Representation #  2 modes #   2  3

     Self-consistent Calculation

      iter #   1 total cpu time :   537.8 secs   av.it.:   5.6
      thresh= 1.000E-02 alpha_mix =  0.700 |ddv_scf|^2 =  2.809E-06

      iter #   2 total cpu time :   579.3 secs   av.it.:   8.5
      thresh= 1.676E-04 alpha_mix =  0.700 |ddv_scf|^2 =  5.288E-08

      iter #   3 total cpu time :   623.2 secs   av.it.:   8.6
      thresh= 2.300E-05 alpha_mix =  0.700 |ddv_scf|^2 =  7.533E-10

      iter #   4 total cpu time :   665.1 secs   av.it.:   8.4
      thresh= 2.745E-06 alpha_mix =  0.700 |ddv_scf|^2 =  2.870E-12

      iter #   5 total cpu time :   707.1 secs   av.it.:   8.6
      thresh= 1.694E-07 alpha_mix =  0.700 |ddv_scf|^2 =  7.723E-15

      iter #   6 total cpu time :   749.5 secs   av.it.:   8.2
      thresh= 8.788E-09 alpha_mix =  0.700 |ddv_scf|^2 =  1.471E-16

      iter #   7 total cpu time :   792.5 secs   av.it.:   8.6
      thresh= 1.213E-09 alpha_mix =  0.700 |ddv_scf|^2 =  1.398E-19

     End of self-consistent calculation

     Convergence has been achieved 

     Number of q in the star =    8
     List of q in the star:
          1  -0.166666667   0.166666667  -0.166666667
          2   0.166666667   0.166666667   0.166666667
          3  -0.166666667  -0.166666667  -0.166666667
          4   0.166666667  -0.166666667   0.166666667
          5   0.166666667  -0.166666667  -0.166666667
          6   0.166666667   0.166666667  -0.166666667
          7  -0.166666667  -0.166666667   0.166666667
          8  -0.166666667   0.166666667   0.166666667

     Diagonalizing the dynamical matrix

     q = (   -0.166666667   0.166666667  -0.166666667 ) 

 **************************************************************************
     freq (    1) =       1.022883 [THz] =      34.119705 [cm-1]
     freq (    2) =       1.022883 [THz] =      34.119705 [cm-1]
     freq (    3) =       2.959212 [THz] =      98.708676 [cm-1]
 **************************************************************************

     Mode symmetry, C_3v (3m)   point group:

     freq (  1 -  2) =         34.1  [cm-1]   --> E    L_3           
     freq (  3 -  3) =         98.7  [cm-1]   --> A_1  L_1           

     Calculation of q =   -0.3333333   0.3333333  -0.3333333

   Info: using nr1, nr2, nr3 values from input

   Info: using nr1, nr2, nr3 values from input

     Parallelization info
     --------------------
     sticks:   dense  smooth     PW     G-vecs:    dense   smooth      PW
     Min          55      27     10                 1097      388      90
     Max          56      28     11                 1100      393      94
     Sum         889     439    163                17573     6231    1459



     bravais-lattice index     =            2
     lattice parameter (alat)  =       9.0100  a.u.
     unit-cell volume          =     182.8582 (a.u.)^3
     number of atoms/cell      =            1
     number of atomic types    =            1
     number of electrons       =         9.00
     number of Kohn-Sham states=            9
     kinetic-energy cutoff     =      40.0000  Ry
     charge density cutoff     =     320.0000  Ry
     Exchange-correlation      = SLA  PW   PBE  PBE ( 1  4  3  4 0 0)

     celldm(1)=   9.010000  celldm(2)=   0.000000  celldm(3)=   0.000000
     celldm(4)=   0.000000  celldm(5)=   0.000000  celldm(6)=   0.000000

     crystal axes: (cart. coord. in units of alat)
               a(1) = (  -0.500000   0.000000   0.500000 )  
               a(2) = (   0.000000   0.500000   0.500000 )  
               a(3) = (  -0.500000   0.500000   0.000000 )  

     reciprocal axes: (cart. coord. in units 2 pi/alat)
               b(1) = ( -1.000000 -1.000000  1.000000 )  
               b(2) = (  1.000000  1.000000  1.000000 )  
               b(3) = ( -1.000000  1.000000 -1.000000 )  


     PseudoPot. # 1 for Na read from file:
     /home/s1333534/quantum_espresso/qe-6.1/pseudo/Na_pbe_v1.uspp.F.UPF
     MD5 check sum: 76a99c7e9422403d3e93cbc85ab7bccb
     Pseudo is Ultrasoft, Zval =  9.0
     Generated by new atomic code, or converted to UPF format
     Using radial grid of  819 points,  5 beta functions with: 
                l(1) =   0
                l(2) =   0
                l(3) =   1
                l(4) =   1
                l(5) =   2
     Q(r) pseudized with  8 coefficients,  rinner =    1.250   1.250   1.250
                                                       1.250   1.250

     atomic species   valence    mass     pseudopotential
        Na             9.00    22.99000     Na( 1.00)

     48 Sym. Ops., with inversion, found



   Cartesian axes

     site n.     atom                  positions (alat units)
         1           Na  tau(   1) = (   0.0000000   0.0000000   0.0000000  )

     number of k points= 11480  Marzari-Vanderbilt smearing, width (Ry)=  0.0200

     Number of k-points >= 100: set verbosity='high' to print them.

     Dense  grid:    17573 G-vectors     FFT dimensions: (  40,  40,  40)

     Smooth grid:     6231 G-vectors     FFT dimensions: (  25,  25,  25)

     Estimated max dynamical RAM per process >       0.60MB

     Estimated total allocated dynamical RAM >      38.61MB

     The potential is recalculated from file :
     ./_ph0/na.fcc.save/charge-density.dat

     Starting wfc are    5 atomic +    4 random wfc

     Band Structure Calculation
     Davidson diagonalization with overlap

     ethr =  1.11E-10,  avg # of iterations = 17.7

     total cpu time spent up to now is      317.0 secs

     End of band structure calculation

     Number of k-points >= 100: set verbosity='high' to print the bands.

     the Fermi energy is     3.1550 ev

     Writing output data file na.fcc.save

                                                                                

     bravais-lattice index     =            2
     lattice parameter (alat)  =       9.0100  a.u.
     unit-cell volume          =     182.8582 (a.u.)^3
     number of atoms/cell      =            1
     number of atomic types    =            1
     kinetic-energy cut-off    =      40.0000  Ry
     charge density cut-off    =     320.0000  Ry
     convergence threshold     =      1.0E-16
     beta                      =       0.7000
     number of iterations used =            4
     Exchange-correlation      = SLA  PW   PBE  PBE ( 1  4  3  4 0 0)


     celldm(1)=    9.01000  celldm(2)=    0.00000  celldm(3)=    0.00000
     celldm(4)=    0.00000  celldm(5)=    0.00000  celldm(6)=    0.00000

     crystal axes: (cart. coord. in units of alat)
               a(1) = ( -0.5000  0.0000  0.5000 )  
               a(2) = (  0.0000  0.5000  0.5000 )  
               a(3) = ( -0.5000  0.5000  0.0000 )  

     reciprocal axes: (cart. coord. in units 2 pi/alat)
               b(1) = ( -1.0000 -1.0000  1.0000 )  
               b(2) = (  1.0000  1.0000  1.0000 )  
               b(3) = ( -1.0000  1.0000 -1.0000 )  


     Atoms inside the unit cell: 

     Cartesian axes

     site n.  atom      mass           positions (alat units)
        1     Na  22.9900   tau(    1) = (    0.00000    0.00000    0.00000  )

     Computing dynamical matrix for 
                    q = (  -0.3333333   0.3333333  -0.3333333 )

      6 Sym.Ops. (no q -> -q+G )


     G cutoff =  658.0211  (   1100 G-vectors)     FFT grid: ( 40, 40, 40)
     G cutoff =  329.0106  (    393 G-vectors)  smooth grid: ( 25, 25, 25)

     number of k points= 11480  Marzari-Vanderbilt smearing, width (Ry)=  0.0200

     PseudoPot. # 1 for Na read from file:
     /home/s1333534/quantum_espresso/qe-6.1/pseudo/Na_pbe_v1.uspp.F.UPF
     MD5 check sum: 76a99c7e9422403d3e93cbc85ab7bccb
     Pseudo is Ultrasoft, Zval =  9.0
     Generated by new atomic code, or converted to UPF format
     Using radial grid of  819 points,  5 beta functions with: 
                l(1) =   0
                l(2) =   0
                l(3) =   1
                l(4) =   1
                l(5) =   2
     Q(r) pseudized with  8 coefficients,  rinner =    1.250   1.250   1.250
                                                       1.250   1.250

     Mode symmetry, C_3v (3m)   point group:


     Atomic displacements:
     There are   2 irreducible representations

     Representation     1      1 modes -A_1  L_1  To be done

     Representation     2      2 modes -E    L_3  To be done



     Alpha used in Ewald sum =   2.8000
     PHONON       : 14m52.49s CPU    16m15.01s WALL



     Representation #  1 mode #   1

     Self-consistent Calculation

      iter #   1 total cpu time :   993.4 secs   av.it.:   5.7
      thresh= 1.000E-02 alpha_mix =  0.700 |ddv_scf|^2 =  6.045E-04

      iter #   2 total cpu time :  1011.5 secs   av.it.:   6.7
      thresh= 2.459E-03 alpha_mix =  0.700 |ddv_scf|^2 =  3.503E-03

      iter #   3 total cpu time :  1027.8 secs   av.it.:   6.0
      thresh= 5.918E-03 alpha_mix =  0.700 |ddv_scf|^2 =  6.507E-07

      iter #   4 total cpu time :  1048.0 secs   av.it.:   7.7
      thresh= 8.066E-05 alpha_mix =  0.700 |ddv_scf|^2 =  8.659E-09

      iter #   5 total cpu time :  1068.7 secs   av.it.:   8.3
      thresh= 9.305E-06 alpha_mix =  0.700 |ddv_scf|^2 =  5.611E-10

      iter #   6 total cpu time :  1089.0 secs   av.it.:   8.1
      thresh= 2.369E-06 alpha_mix =  0.700 |ddv_scf|^2 =  1.747E-11

      iter #   7 total cpu time :  1108.5 secs   av.it.:   7.7
      thresh= 4.180E-07 alpha_mix =  0.700 |ddv_scf|^2 =  4.460E-13

      iter #   8 total cpu time :  1129.2 secs   av.it.:   8.0
      thresh= 6.678E-08 alpha_mix =  0.700 |ddv_scf|^2 =  5.885E-15

      iter #   9 total cpu time :  1148.4 secs   av.it.:   7.4
      thresh= 7.671E-09 alpha_mix =  0.700 |ddv_scf|^2 =  2.595E-14

      iter #  10 total cpu time :  1166.2 secs   av.it.:   6.4
      thresh= 1.611E-08 alpha_mix =  0.700 |ddv_scf|^2 =  1.873E-16

      iter #  11 total cpu time :  1186.0 secs   av.it.:   7.7
      thresh= 1.368E-09 alpha_mix =  0.700 |ddv_scf|^2 =  2.653E-17

     End of self-consistent calculation

     Convergence has been achieved 


     Representation #  2 modes #   2  3

     Self-consistent Calculation

      iter #   1 total cpu time :  1222.0 secs   av.it.:   5.6
      thresh= 1.000E-02 alpha_mix =  0.700 |ddv_scf|^2 =  2.902E-06

      iter #   2 total cpu time :  1264.5 secs   av.it.:   8.5
      thresh= 1.704E-04 alpha_mix =  0.700 |ddv_scf|^2 =  5.223E-08

      iter #   3 total cpu time :  1307.9 secs   av.it.:   8.7
      thresh= 2.285E-05 alpha_mix =  0.700 |ddv_scf|^2 =  9.449E-10

      iter #   4 total cpu time :  1350.0 secs   av.it.:   8.4
      thresh= 3.074E-06 alpha_mix =  0.700 |ddv_scf|^2 =  3.588E-12

      iter #   5 total cpu time :  1392.6 secs   av.it.:   8.6
      thresh= 1.894E-07 alpha_mix =  0.700 |ddv_scf|^2 =  7.654E-15

      iter #   6 total cpu time :  1434.6 secs   av.it.:   8.2
      thresh= 8.749E-09 alpha_mix =  0.700 |ddv_scf|^2 =  2.207E-16

      iter #   7 total cpu time :  1477.2 secs   av.it.:   8.6
      thresh= 1.486E-09 alpha_mix =  0.700 |ddv_scf|^2 =  2.274E-19

     End of self-consistent calculation

     Convergence has been achieved 

     Number of q in the star =    8
     List of q in the star:
          1  -0.333333333   0.333333333  -0.333333333
          2   0.333333333   0.333333333   0.333333333
          3  -0.333333333  -0.333333333  -0.333333333
          4   0.333333333  -0.333333333   0.333333333
          5   0.333333333  -0.333333333  -0.333333333
          6   0.333333333   0.333333333  -0.333333333
          7  -0.333333333  -0.333333333   0.333333333
          8  -0.333333333   0.333333333   0.333333333

     Diagonalizing the dynamical matrix

     q = (   -0.333333333   0.333333333  -0.333333333 ) 

 **************************************************************************
     freq (    1) =       1.771282 [THz] =      59.083596 [cm-1]
     freq (    2) =       1.771282 [THz] =      59.083596 [cm-1]
     freq (    3) =       5.154092 [THz] =     171.922017 [cm-1]
 **************************************************************************

     Mode symmetry, C_3v (3m)   point group:

     freq (  1 -  2) =         59.1  [cm-1]   --> E    L_3           
     freq (  3 -  3) =        171.9  [cm-1]   --> A_1  L_1           

     Calculation of q =    0.5000000  -0.5000000   0.5000000

   Info: using nr1, nr2, nr3 values from input

   Info: using nr1, nr2, nr3 values from input

     Parallelization info
     --------------------
     sticks:   dense  smooth     PW     G-vecs:    dense   smooth      PW
     Min          55      27     10                 1097      388      91
     Max          56      28     11                 1100      393      94
     Sum         889     439    169                17573     6231    1471



     bravais-lattice index     =            2
     lattice parameter (alat)  =       9.0100  a.u.
     unit-cell volume          =     182.8582 (a.u.)^3
     number of atoms/cell      =            1
     number of atomic types    =            1
     number of electrons       =         9.00
     number of Kohn-Sham states=            9
     kinetic-energy cutoff     =      40.0000  Ry
     charge density cutoff     =     320.0000  Ry
     Exchange-correlation      = SLA  PW   PBE  PBE ( 1  4  3  4 0 0)

     celldm(1)=   9.010000  celldm(2)=   0.000000  celldm(3)=   0.000000
     celldm(4)=   0.000000  celldm(5)=   0.000000  celldm(6)=   0.000000

     crystal axes: (cart. coord. in units of alat)
               a(1) = (  -0.500000   0.000000   0.500000 )  
               a(2) = (   0.000000   0.500000   0.500000 )  
               a(3) = (  -0.500000   0.500000   0.000000 )  

     reciprocal axes: (cart. coord. in units 2 pi/alat)
               b(1) = ( -1.000000 -1.000000  1.000000 )  
               b(2) = (  1.000000  1.000000  1.000000 )  
               b(3) = ( -1.000000  1.000000 -1.000000 )  


     PseudoPot. # 1 for Na read from file:
     /home/s1333534/quantum_espresso/qe-6.1/pseudo/Na_pbe_v1.uspp.F.UPF
     MD5 check sum: 76a99c7e9422403d3e93cbc85ab7bccb
     Pseudo is Ultrasoft, Zval =  9.0
     Generated by new atomic code, or converted to UPF format
     Using radial grid of  819 points,  5 beta functions with: 
                l(1) =   0
                l(2) =   0
                l(3) =   1
                l(4) =   1
                l(5) =   2
     Q(r) pseudized with  8 coefficients,  rinner =    1.250   1.250   1.250
                                                       1.250   1.250

     atomic species   valence    mass     pseudopotential
        Na             9.00    22.99000     Na( 1.00)

     48 Sym. Ops., with inversion, found



   Cartesian axes

     site n.     atom                  positions (alat units)
         1           Na  tau(   1) = (   0.0000000   0.0000000   0.0000000  )

     number of k points=  5740  Marzari-Vanderbilt smearing, width (Ry)=  0.0200

     Number of k-points >= 100: set verbosity='high' to print them.

     Dense  grid:    17573 G-vectors     FFT dimensions: (  40,  40,  40)

     Smooth grid:     6231 G-vectors     FFT dimensions: (  25,  25,  25)

     Estimated max dynamical RAM per process >       0.60MB

     Estimated total allocated dynamical RAM >      38.61MB

     The potential is recalculated from file :
     ./_ph0/na.fcc.save/charge-density.dat

     Starting wfc are    5 atomic +    4 random wfc

     Band Structure Calculation
     Davidson diagonalization with overlap

     ethr =  1.11E-10,  avg # of iterations = 17.7

     total cpu time spent up to now is      421.0 secs

     End of band structure calculation

     Number of k-points >= 100: set verbosity='high' to print the bands.

     the Fermi energy is     3.1550 ev

     Writing output data file na.fcc.save

                                                                                

     bravais-lattice index     =            2
     lattice parameter (alat)  =       9.0100  a.u.
     unit-cell volume          =     182.8582 (a.u.)^3
     number of atoms/cell      =            1
     number of atomic types    =            1
     kinetic-energy cut-off    =      40.0000  Ry
     charge density cut-off    =     320.0000  Ry
     convergence threshold     =      1.0E-16
     beta                      =       0.7000
     number of iterations used =            4
     Exchange-correlation      = SLA  PW   PBE  PBE ( 1  4  3  4 0 0)


     celldm(1)=    9.01000  celldm(2)=    0.00000  celldm(3)=    0.00000
     celldm(4)=    0.00000  celldm(5)=    0.00000  celldm(6)=    0.00000

     crystal axes: (cart. coord. in units of alat)
               a(1) = ( -0.5000  0.0000  0.5000 )  
               a(2) = (  0.0000  0.5000  0.5000 )  
               a(3) = ( -0.5000  0.5000  0.0000 )  

     reciprocal axes: (cart. coord. in units 2 pi/alat)
               b(1) = ( -1.0000 -1.0000  1.0000 )  
               b(2) = (  1.0000  1.0000  1.0000 )  
               b(3) = ( -1.0000  1.0000 -1.0000 )  


     Atoms inside the unit cell: 

     Cartesian axes

     site n.  atom      mass           positions (alat units)
        1     Na  22.9900   tau(    1) = (    0.00000    0.00000    0.00000  )

     Computing dynamical matrix for 
                    q = (   0.5000000  -0.5000000   0.5000000 )

     13 Sym.Ops. (with q -> -q+G )


     G cutoff =  658.0211  (   1100 G-vectors)     FFT grid: ( 40, 40, 40)
     G cutoff =  329.0106  (    393 G-vectors)  smooth grid: ( 25, 25, 25)

     number of k points=  5740  Marzari-Vanderbilt smearing, width (Ry)=  0.0200

     PseudoPot. # 1 for Na read from file:
     /home/s1333534/quantum_espresso/qe-6.1/pseudo/Na_pbe_v1.uspp.F.UPF
     MD5 check sum: 76a99c7e9422403d3e93cbc85ab7bccb
     Pseudo is Ultrasoft, Zval =  9.0
     Generated by new atomic code, or converted to UPF format
     Using radial grid of  819 points,  5 beta functions with: 
                l(1) =   0
                l(2) =   0
                l(3) =   1
                l(4) =   1
                l(5) =   2
     Q(r) pseudized with  8 coefficients,  rinner =    1.250   1.250   1.250
                                                       1.250   1.250

     Mode symmetry, D_3d (-3m)  point group:


     Atomic displacements:
     There are   2 irreducible representations

     Representation     1      1 modes -A_2u L_2'  To be done

     Representation     2      2 modes -E_u  L_3'  To be done



     Alpha used in Ewald sum =   2.8000
     PHONON       : 23m49.92s CPU    26m10.41s WALL



     Representation #  1 mode #   1

     Self-consistent Calculation

      iter #   1 total cpu time :  1580.4 secs   av.it.:   5.8
      thresh= 1.000E-02 alpha_mix =  0.700 |ddv_scf|^2 =  1.230E-04

      iter #   2 total cpu time :  1590.0 secs   av.it.:   6.9
      thresh= 1.109E-03 alpha_mix =  0.700 |ddv_scf|^2 =  7.108E-05

      iter #   3 total cpu time :  1599.4 secs   av.it.:   6.9
      thresh= 8.431E-04 alpha_mix =  0.700 |ddv_scf|^2 =  7.644E-08

      iter #   4 total cpu time :  1610.1 secs   av.it.:   7.9
      thresh= 2.765E-05 alpha_mix =  0.700 |ddv_scf|^2 =  2.857E-10

      iter #   5 total cpu time :  1619.3 secs   av.it.:   7.0
      thresh= 1.690E-06 alpha_mix =  0.700 |ddv_scf|^2 =  6.822E-12

      iter #   6 total cpu time :  1628.2 secs   av.it.:   6.6
      thresh= 2.612E-07 alpha_mix =  0.700 |ddv_scf|^2 =  1.515E-14

      iter #   7 total cpu time :  1638.1 secs   av.it.:   7.4
      thresh= 1.231E-08 alpha_mix =  0.700 |ddv_scf|^2 =  2.000E-17

     End of self-consistent calculation

     Convergence has been achieved 


     Representation #  2 modes #   2  3

     Self-consistent Calculation

      iter #   1 total cpu time :  1655.9 secs   av.it.:   5.5
      thresh= 1.000E-02 alpha_mix =  0.700 |ddv_scf|^2 =  2.946E-06

      iter #   2 total cpu time :  1676.8 secs   av.it.:   8.4
      thresh= 1.716E-04 alpha_mix =  0.700 |ddv_scf|^2 =  5.211E-08

      iter #   3 total cpu time :  1698.1 secs   av.it.:   8.6
      thresh= 2.283E-05 alpha_mix =  0.700 |ddv_scf|^2 =  1.029E-09

      iter #   4 total cpu time :  1718.8 secs   av.it.:   8.0
      thresh= 3.208E-06 alpha_mix =  0.700 |ddv_scf|^2 =  3.885E-12

      iter #   5 total cpu time :  1740.1 secs   av.it.:   8.3
      thresh= 1.971E-07 alpha_mix =  0.700 |ddv_scf|^2 =  7.756E-15

      iter #   6 total cpu time :  1760.8 secs   av.it.:   7.9
      thresh= 8.807E-09 alpha_mix =  0.700 |ddv_scf|^2 =  2.450E-16

      iter #   7 total cpu time :  1781.9 secs   av.it.:   8.4
      thresh= 1.565E-09 alpha_mix =  0.700 |ddv_scf|^2 =  2.186E-19

     End of self-consistent calculation

     Convergence has been achieved 

     Number of q in the star =    4
     List of q in the star:
          1   0.500000000  -0.500000000   0.500000000
          2   0.500000000   0.500000000   0.500000000
          3  -0.500000000   0.500000000   0.500000000
          4   0.500000000   0.500000000  -0.500000000

     Diagonalizing the dynamical matrix

     q = (    0.500000000  -0.500000000   0.500000000 ) 

 **************************************************************************
     freq (    1) =       2.055698 [THz] =      68.570691 [cm-1]
     freq (    2) =       2.055698 [THz] =      68.570691 [cm-1]
     freq (    3) =       5.962790 [THz] =     198.897254 [cm-1]
 **************************************************************************

     Mode symmetry, D_3d (-3m)  point group:

     freq (  1 -  2) =         68.6  [cm-1]   --> E_u  L_3'          
     freq (  3 -  3) =        198.9  [cm-1]   --> A_2u L_2'          

     Calculation of q =    0.0000000   0.3333333   0.0000000

   Info: using nr1, nr2, nr3 values from input

   Info: using nr1, nr2, nr3 values from input

     Parallelization info
     --------------------
     sticks:   dense  smooth     PW     G-vecs:    dense   smooth      PW
     Min          55      27     10                 1097      388      84
     Max          56      28     11                 1100      393      86
     Sum         889     439    163                17573     6231    1363



     bravais-lattice index     =            2
     lattice parameter (alat)  =       9.0100  a.u.
     unit-cell volume          =     182.8582 (a.u.)^3
     number of atoms/cell      =            1
     number of atomic types    =            1
     number of electrons       =         9.00
     number of Kohn-Sham states=            9
     kinetic-energy cutoff     =      40.0000  Ry
     charge density cutoff     =     320.0000  Ry
     Exchange-correlation      = SLA  PW   PBE  PBE ( 1  4  3  4 0 0)

     celldm(1)=   9.010000  celldm(2)=   0.000000  celldm(3)=   0.000000
     celldm(4)=   0.000000  celldm(5)=   0.000000  celldm(6)=   0.000000

     crystal axes: (cart. coord. in units of alat)
               a(1) = (  -0.500000   0.000000   0.500000 )  
               a(2) = (   0.000000   0.500000   0.500000 )  
               a(3) = (  -0.500000   0.500000   0.000000 )  

     reciprocal axes: (cart. coord. in units 2 pi/alat)
               b(1) = ( -1.000000 -1.000000  1.000000 )  
               b(2) = (  1.000000  1.000000  1.000000 )  
               b(3) = ( -1.000000  1.000000 -1.000000 )  


     PseudoPot. # 1 for Na read from file:
     /home/s1333534/quantum_espresso/qe-6.1/pseudo/Na_pbe_v1.uspp.F.UPF
     MD5 check sum: 76a99c7e9422403d3e93cbc85ab7bccb
     Pseudo is Ultrasoft, Zval =  9.0
     Generated by new atomic code, or converted to UPF format
     Using radial grid of  819 points,  5 beta functions with: 
                l(1) =   0
                l(2) =   0
                l(3) =   1
                l(4) =   1
                l(5) =   2
     Q(r) pseudized with  8 coefficients,  rinner =    1.250   1.250   1.250
                                                       1.250   1.250

     atomic species   valence    mass     pseudopotential
        Na             9.00    22.99000     Na( 1.00)

     48 Sym. Ops., with inversion, found



   Cartesian axes

     site n.     atom                  positions (alat units)
         1           Na  tau(   1) = (   0.0000000   0.0000000   0.0000000  )

     number of k points=  8400  Marzari-Vanderbilt smearing, width (Ry)=  0.0200

     Number of k-points >= 100: set verbosity='high' to print them.

     Dense  grid:    17573 G-vectors     FFT dimensions: (  40,  40,  40)

     Smooth grid:     6231 G-vectors     FFT dimensions: (  25,  25,  25)

     Estimated max dynamical RAM per process >       0.60MB

     Estimated total allocated dynamical RAM >      38.61MB

     The potential is recalculated from file :
     ./_ph0/na.fcc.save/charge-density.dat

     Starting wfc are    5 atomic +    4 random wfc

     Band Structure Calculation
     Davidson diagonalization with overlap

     ethr =  1.11E-10,  avg # of iterations = 17.7

     total cpu time spent up to now is      540.4 secs

     End of band structure calculation

     Number of k-points >= 100: set verbosity='high' to print the bands.

     the Fermi energy is     3.1550 ev

     Writing output data file na.fcc.save

                                                                                

     bravais-lattice index     =            2
     lattice parameter (alat)  =       9.0100  a.u.
     unit-cell volume          =     182.8582 (a.u.)^3
     number of atoms/cell      =            1
     number of atomic types    =            1
     kinetic-energy cut-off    =      40.0000  Ry
     charge density cut-off    =     320.0000  Ry
     convergence threshold     =      1.0E-16
     beta                      =       0.7000
     number of iterations used =            4
     Exchange-correlation      = SLA  PW   PBE  PBE ( 1  4  3  4 0 0)


     celldm(1)=    9.01000  celldm(2)=    0.00000  celldm(3)=    0.00000
     celldm(4)=    0.00000  celldm(5)=    0.00000  celldm(6)=    0.00000

     crystal axes: (cart. coord. in units of alat)
               a(1) = ( -0.5000  0.0000  0.5000 )  
               a(2) = (  0.0000  0.5000  0.5000 )  
               a(3) = ( -0.5000  0.5000  0.0000 )  

     reciprocal axes: (cart. coord. in units 2 pi/alat)
               b(1) = ( -1.0000 -1.0000  1.0000 )  
               b(2) = (  1.0000  1.0000  1.0000 )  
               b(3) = ( -1.0000  1.0000 -1.0000 )  


     Atoms inside the unit cell: 

     Cartesian axes

     site n.  atom      mass           positions (alat units)
        1     Na  22.9900   tau(    1) = (    0.00000    0.00000    0.00000  )

     Computing dynamical matrix for 
                    q = (   0.0000000   0.3333333   0.0000000 )

      8 Sym.Ops. (no q -> -q+G )


     G cutoff =  658.0211  (   1100 G-vectors)     FFT grid: ( 40, 40, 40)
     G cutoff =  329.0106  (    393 G-vectors)  smooth grid: ( 25, 25, 25)

     number of k points=  8400  Marzari-Vanderbilt smearing, width (Ry)=  0.0200

     PseudoPot. # 1 for Na read from file:
     /home/s1333534/quantum_espresso/qe-6.1/pseudo/Na_pbe_v1.uspp.F.UPF
     MD5 check sum: 76a99c7e9422403d3e93cbc85ab7bccb
     Pseudo is Ultrasoft, Zval =  9.0
     Generated by new atomic code, or converted to UPF format
     Using radial grid of  819 points,  5 beta functions with: 
                l(1) =   0
                l(2) =   0
                l(3) =   1
                l(4) =   1
                l(5) =   2
     Q(r) pseudized with  8 coefficients,  rinner =    1.250   1.250   1.250
                                                       1.250   1.250

     Mode symmetry, C_4v (4mm)  point group:


     Atomic displacements:
     There are   2 irreducible representations

     Representation     1      1 modes -A_1  G_1 D_1  To be done

     Representation     2      2 modes -E    G_5 D_5  To be done



     Alpha used in Ewald sum =   2.8000
     PHONON       : 29m 6.70s CPU    31m55.01s WALL



     Representation #  1 mode #   1

     Self-consistent Calculation

      iter #   1 total cpu time :  1929.3 secs   av.it.:   5.7
      thresh= 1.000E-02 alpha_mix =  0.700 |ddv_scf|^2 =  1.521E-02

      iter #   2 total cpu time :  1942.1 secs   av.it.:   6.5
      thresh= 1.000E-02 alpha_mix =  0.700 |ddv_scf|^2 =  1.200E+00

      iter #   3 total cpu time :  1955.0 secs   av.it.:   6.5
      thresh= 1.000E-02 alpha_mix =  0.700 |ddv_scf|^2 =  2.459E-06

      iter #   4 total cpu time :  1969.1 secs   av.it.:   7.4
      thresh= 1.568E-04 alpha_mix =  0.700 |ddv_scf|^2 =  8.062E-08

      iter #   5 total cpu time :  1983.2 secs   av.it.:   7.5
      thresh= 2.839E-05 alpha_mix =  0.700 |ddv_scf|^2 =  1.671E-09

      iter #   6 total cpu time :  1997.4 secs   av.it.:   7.6
      thresh= 4.088E-06 alpha_mix =  0.700 |ddv_scf|^2 =  3.689E-10

      iter #   7 total cpu time :  2010.9 secs   av.it.:   7.1
      thresh= 1.921E-06 alpha_mix =  0.700 |ddv_scf|^2 =  5.706E-09

      iter #   8 total cpu time :  2022.7 secs   av.it.:   5.9
      thresh= 7.554E-06 alpha_mix =  0.700 |ddv_scf|^2 =  4.182E-11

      iter #   9 total cpu time :  2036.2 secs   av.it.:   6.9
      thresh= 6.467E-07 alpha_mix =  0.700 |ddv_scf|^2 =  1.349E-12

      iter #  10 total cpu time :  2050.2 secs   av.it.:   7.1
      thresh= 1.162E-07 alpha_mix =  0.700 |ddv_scf|^2 =  3.474E-14

      iter #  11 total cpu time :  2065.0 secs   av.it.:   7.5
      thresh= 1.864E-08 alpha_mix =  0.700 |ddv_scf|^2 =  2.133E-16

      iter #  12 total cpu time :  2080.1 secs   av.it.:   8.2
      thresh= 1.460E-09 alpha_mix =  0.700 |ddv_scf|^2 =  1.159E-16

      iter #  13 total cpu time :  2094.2 secs   av.it.:   7.6
      thresh= 1.077E-09 alpha_mix =  0.700 |ddv_scf|^2 =  9.785E-16

      iter #  14 total cpu time :  2105.6 secs   av.it.:   5.5
      thresh= 3.128E-09 alpha_mix =  0.700 |ddv_scf|^2 =  1.260E-17

     End of self-consistent calculation

     Convergence has been achieved 


     Representation #  2 modes #   2  3

     Self-consistent Calculation

      iter #   1 total cpu time :  2132.4 secs   av.it.:   5.5
      thresh= 1.000E-02 alpha_mix =  0.700 |ddv_scf|^2 =  2.974E-06

      iter #   2 total cpu time :  2163.6 secs   av.it.:   8.4
      thresh= 1.724E-04 alpha_mix =  0.700 |ddv_scf|^2 =  5.039E-08

      iter #   3 total cpu time :  2195.7 secs   av.it.:   8.6
      thresh= 2.245E-05 alpha_mix =  0.700 |ddv_scf|^2 =  1.233E-09

      iter #   4 total cpu time :  2226.7 secs   av.it.:   8.3
      thresh= 3.511E-06 alpha_mix =  0.700 |ddv_scf|^2 =  4.316E-12

      iter #   5 total cpu time :  2258.0 secs   av.it.:   8.5
      thresh= 2.078E-07 alpha_mix =  0.700 |ddv_scf|^2 =  6.642E-15

      iter #   6 total cpu time :  2287.3 secs   av.it.:   8.0
      thresh= 8.150E-09 alpha_mix =  0.700 |ddv_scf|^2 =  2.584E-16

      iter #   7 total cpu time :  2318.3 secs   av.it.:   8.4
      thresh= 1.607E-09 alpha_mix =  0.700 |ddv_scf|^2 =  2.273E-19

     End of self-consistent calculation

     Convergence has been achieved 

     Number of q in the star =    6
     List of q in the star:
          1   0.000000000   0.333333333   0.000000000
          2   0.333333333   0.000000000   0.000000000
          3   0.000000000   0.000000000   0.333333333
          4   0.000000000  -0.333333333   0.000000000
          5  -0.333333333   0.000000000   0.000000000
          6   0.000000000   0.000000000  -0.333333333

     Diagonalizing the dynamical matrix

     q = (    0.000000000   0.333333333   0.000000000 ) 

 **************************************************************************
     freq (    1) =       1.833839 [THz] =      61.170270 [cm-1]
     freq (    2) =       1.833839 [THz] =      61.170270 [cm-1]
     freq (    3) =       2.772677 [THz] =      92.486559 [cm-1]
 **************************************************************************

     Mode symmetry, C_4v (4mm)  point group:

     freq (  1 -  2) =         61.2  [cm-1]   --> E    G_5 D_5       
     freq (  3 -  3) =         92.5  [cm-1]   --> A_1  G_1 D_1       

     Calculation of q =   -0.1666667   0.5000000  -0.1666667

   Info: using nr1, nr2, nr3 values from input

   Info: using nr1, nr2, nr3 values from input

     Parallelization info
     --------------------
     sticks:   dense  smooth     PW     G-vecs:    dense   smooth      PW
     Min          55      27     10                 1097      388      90
     Max          56      28     11                 1100      393      94
     Sum         889     439    163                17573     6231    1459



     bravais-lattice index     =            2
     lattice parameter (alat)  =       9.0100  a.u.
     unit-cell volume          =     182.8582 (a.u.)^3
     number of atoms/cell      =            1
     number of atomic types    =            1
     number of electrons       =         9.00
     number of Kohn-Sham states=            9
     kinetic-energy cutoff     =      40.0000  Ry
     charge density cutoff     =     320.0000  Ry
     Exchange-correlation      = SLA  PW   PBE  PBE ( 1  4  3  4 0 0)

     celldm(1)=   9.010000  celldm(2)=   0.000000  celldm(3)=   0.000000
     celldm(4)=   0.000000  celldm(5)=   0.000000  celldm(6)=   0.000000

     crystal axes: (cart. coord. in units of alat)
               a(1) = (  -0.500000   0.000000   0.500000 )  
               a(2) = (   0.000000   0.500000   0.500000 )  
               a(3) = (  -0.500000   0.500000   0.000000 )  

     reciprocal axes: (cart. coord. in units 2 pi/alat)
               b(1) = ( -1.000000 -1.000000  1.000000 )  
               b(2) = (  1.000000  1.000000  1.000000 )  
               b(3) = ( -1.000000  1.000000 -1.000000 )  


     PseudoPot. # 1 for Na read from file:
     /home/s1333534/quantum_espresso/qe-6.1/pseudo/Na_pbe_v1.uspp.F.UPF
     MD5 check sum: 76a99c7e9422403d3e93cbc85ab7bccb
     Pseudo is Ultrasoft, Zval =  9.0
     Generated by new atomic code, or converted to UPF format
     Using radial grid of  819 points,  5 beta functions with: 
                l(1) =   0
                l(2) =   0
                l(3) =   1
                l(4) =   1
                l(5) =   2
     Q(r) pseudized with  8 coefficients,  rinner =    1.250   1.250   1.250
                                                       1.250   1.250

     atomic species   valence    mass     pseudopotential
        Na             9.00    22.99000     Na( 1.00)

     48 Sym. Ops., with inversion, found



   Cartesian axes

     site n.     atom                  positions (alat units)
         1           Na  tau(   1) = (   0.0000000   0.0000000   0.0000000  )

     number of k points= 32800  Marzari-Vanderbilt smearing, width (Ry)=  0.0200

     Number of k-points >= 100: set verbosity='high' to print them.

     Dense  grid:    17573 G-vectors     FFT dimensions: (  40,  40,  40)

     Smooth grid:     6231 G-vectors     FFT dimensions: (  25,  25,  25)

     Estimated max dynamical RAM per process >       0.60MB

     Estimated total allocated dynamical RAM >      38.61MB

     The potential is recalculated from file :
     ./_ph0/na.fcc.save/charge-density.dat

     Starting wfc are    5 atomic +    4 random wfc

     Band Structure Calculation
     Davidson diagonalization with overlap

     ethr =  1.11E-10,  avg # of iterations = 17.6

     total cpu time spent up to now is      971.8 secs

     End of band structure calculation

     Number of k-points >= 100: set verbosity='high' to print the bands.

     the Fermi energy is     3.1550 ev

     Writing output data file na.fcc.save

                                                                                

     bravais-lattice index     =            2
     lattice parameter (alat)  =       9.0100  a.u.
     unit-cell volume          =     182.8582 (a.u.)^3
     number of atoms/cell      =            1
     number of atomic types    =            1
     kinetic-energy cut-off    =      40.0000  Ry
     charge density cut-off    =     320.0000  Ry
     convergence threshold     =      1.0E-16
     beta                      =       0.7000
     number of iterations used =            4
     Exchange-correlation      = SLA  PW   PBE  PBE ( 1  4  3  4 0 0)


     celldm(1)=    9.01000  celldm(2)=    0.00000  celldm(3)=    0.00000
     celldm(4)=    0.00000  celldm(5)=    0.00000  celldm(6)=    0.00000

     crystal axes: (cart. coord. in units of alat)
               a(1) = ( -0.5000  0.0000  0.5000 )  
               a(2) = (  0.0000  0.5000  0.5000 )  
               a(3) = ( -0.5000  0.5000  0.0000 )  

     reciprocal axes: (cart. coord. in units 2 pi/alat)
               b(1) = ( -1.0000 -1.0000  1.0000 )  
               b(2) = (  1.0000  1.0000  1.0000 )  
               b(3) = ( -1.0000  1.0000 -1.0000 )  


     Atoms inside the unit cell: 

     Cartesian axes

     site n.  atom      mass           positions (alat units)
        1     Na  22.9900   tau(    1) = (    0.00000    0.00000    0.00000  )

     Computing dynamical matrix for 
                    q = (  -0.1666667   0.5000000  -0.1666667 )

      2 Sym.Ops. (no q -> -q+G )


     G cutoff =  658.0211  (   1100 G-vectors)     FFT grid: ( 40, 40, 40)
     G cutoff =  329.0106  (    393 G-vectors)  smooth grid: ( 25, 25, 25)

     number of k points= 32800  Marzari-Vanderbilt smearing, width (Ry)=  0.0200

     PseudoPot. # 1 for Na read from file:
     /home/s1333534/quantum_espresso/qe-6.1/pseudo/Na_pbe_v1.uspp.F.UPF
     MD5 check sum: 76a99c7e9422403d3e93cbc85ab7bccb
     Pseudo is Ultrasoft, Zval =  9.0
     Generated by new atomic code, or converted to UPF format
     Using radial grid of  819 points,  5 beta functions with: 
                l(1) =   0
                l(2) =   0
                l(3) =   1
                l(4) =   1
                l(5) =   2
     Q(r) pseudized with  8 coefficients,  rinner =    1.250   1.250   1.250
                                                       1.250   1.250

     Mode symmetry, C_s (m)     point group:


     Atomic displacements:
     There are   3 irreducible representations

     Representation     1      1 modes -A'  To be done

     Representation     2      1 modes -A'  To be done

     Representation     3      1 modes -A''  To be done



     Alpha used in Ewald sum =   2.8000
     PHONON       : 43m22.26s CPU    47m21.58s WALL



     Representation #  1 mode #   1

     Self-consistent Calculation

      iter #   1 total cpu time :  2896.5 secs   av.it.:   5.8
      thresh= 1.000E-02 alpha_mix =  0.700 |ddv_scf|^2 =  6.724E-04

      iter #   2 total cpu time :  2953.2 secs   av.it.:   6.9
      thresh= 2.593E-03 alpha_mix =  0.700 |ddv_scf|^2 =  4.953E-03

      iter #   3 total cpu time :  3002.0 secs   av.it.:   5.8
      thresh= 7.037E-03 alpha_mix =  0.700 |ddv_scf|^2 =  7.153E-07

      iter #   4 total cpu time :  3061.5 secs   av.it.:   7.8
      thresh= 8.458E-05 alpha_mix =  0.700 |ddv_scf|^2 =  4.567E-09

      iter #   5 total cpu time :  3124.9 secs   av.it.:   8.4
      thresh= 6.758E-06 alpha_mix =  0.700 |ddv_scf|^2 =  6.992E-10

      iter #   6 total cpu time :  3185.7 secs   av.it.:   8.1
      thresh= 2.644E-06 alpha_mix =  0.700 |ddv_scf|^2 =  1.780E-11

      iter #   7 total cpu time :  3245.5 secs   av.it.:   7.9
      thresh= 4.219E-07 alpha_mix =  0.700 |ddv_scf|^2 =  2.129E-11

      iter #   8 total cpu time :  3299.4 secs   av.it.:   6.8
      thresh= 4.614E-07 alpha_mix =  0.700 |ddv_scf|^2 =  4.278E-12

      iter #   9 total cpu time :  3355.6 secs   av.it.:   7.3
      thresh= 2.068E-07 alpha_mix =  0.700 |ddv_scf|^2 =  7.337E-13

      iter #  10 total cpu time :  3410.9 secs   av.it.:   7.0
      thresh= 8.566E-08 alpha_mix =  0.700 |ddv_scf|^2 =  6.165E-15

      iter #  11 total cpu time :  3474.7 secs   av.it.:   8.4
      thresh= 7.852E-09 alpha_mix =  0.700 |ddv_scf|^2 =  2.924E-16

      iter #  12 total cpu time :  3538.5 secs   av.it.:   8.2
      thresh= 1.710E-09 alpha_mix =  0.700 |ddv_scf|^2 =  4.909E-17

     End of self-consistent calculation

     Convergence has been achieved 


     Representation #  2 mode #   2

     Self-consistent Calculation

      iter #   1 total cpu time :  3595.0 secs   av.it.:   5.8
      thresh= 1.000E-02 alpha_mix =  0.700 |ddv_scf|^2 =  1.137E-04

      iter #   2 total cpu time :  3653.6 secs   av.it.:   7.4
      thresh= 1.066E-03 alpha_mix =  0.700 |ddv_scf|^2 =  7.503E-04

      iter #   3 total cpu time :  3703.2 secs   av.it.:   5.9
      thresh= 2.739E-03 alpha_mix =  0.700 |ddv_scf|^2 =  2.078E-07

      iter #   4 total cpu time :  3765.1 secs   av.it.:   8.2
      thresh= 4.558E-05 alpha_mix =  0.700 |ddv_scf|^2 =  5.875E-09

      iter #   5 total cpu time :  3827.0 secs   av.it.:   8.2
      thresh= 7.665E-06 alpha_mix =  0.700 |ddv_scf|^2 =  2.159E-10

      iter #   6 total cpu time :  3889.9 secs   av.it.:   8.3
      thresh= 1.469E-06 alpha_mix =  0.700 |ddv_scf|^2 =  1.568E-11

      iter #   7 total cpu time :  3951.1 secs   av.it.:   8.0
      thresh= 3.959E-07 alpha_mix =  0.700 |ddv_scf|^2 =  7.322E-13

      iter #   8 total cpu time :  4010.7 secs   av.it.:   7.8
      thresh= 8.557E-08 alpha_mix =  0.700 |ddv_scf|^2 =  5.582E-13

      iter #   9 total cpu time :  4060.5 secs   av.it.:   6.0
      thresh= 7.471E-08 alpha_mix =  0.700 |ddv_scf|^2 =  1.811E-14

      iter #  10 total cpu time :  4118.6 secs   av.it.:   7.4
      thresh= 1.346E-08 alpha_mix =  0.700 |ddv_scf|^2 =  2.651E-14

      iter #  11 total cpu time :  4169.4 secs   av.it.:   6.1
      thresh= 1.628E-08 alpha_mix =  0.700 |ddv_scf|^2 =  1.508E-16

      iter #  12 total cpu time :  4232.7 secs   av.it.:   7.9
      thresh= 1.228E-09 alpha_mix =  0.700 |ddv_scf|^2 =  3.255E-18

     End of self-consistent calculation

     Convergence has been achieved 


     Representation #  3 mode #   3

     Self-consistent Calculation

      iter #   1 total cpu time :  4286.6 secs   av.it.:   5.5
      thresh= 1.000E-02 alpha_mix =  0.700 |ddv_scf|^2 =  1.262E-05

      iter #   2 total cpu time :  4347.9 secs   av.it.:   7.9
      thresh= 3.552E-04 alpha_mix =  0.700 |ddv_scf|^2 =  1.934E-07

      iter #   3 total cpu time :  4409.0 secs   av.it.:   8.1
      thresh= 4.398E-05 alpha_mix =  0.700 |ddv_scf|^2 =  7.022E-09

      iter #   4 total cpu time :  4467.4 secs   av.it.:   7.6
      thresh= 8.380E-06 alpha_mix =  0.700 |ddv_scf|^2 =  2.468E-11

      iter #   5 total cpu time :  4526.8 secs   av.it.:   7.9
      thresh= 4.968E-07 alpha_mix =  0.700 |ddv_scf|^2 =  2.642E-14

      iter #   6 total cpu time :  4583.7 secs   av.it.:   7.2
      thresh= 1.625E-08 alpha_mix =  0.700 |ddv_scf|^2 =  1.445E-15

      iter #   7 total cpu time :  4644.5 secs   av.it.:   7.7
      thresh= 3.801E-09 alpha_mix =  0.700 |ddv_scf|^2 =  1.369E-18

     End of self-consistent calculation

     Convergence has been achieved 

     Number of q in the star =   24
     List of q in the star:
          1  -0.166666667   0.500000000  -0.166666667
          2   0.166666667   0.500000000   0.166666667
          3  -0.166666667   0.500000000   0.166666667
          4   0.166666667   0.500000000  -0.166666667
          5   0.500000000  -0.166666667   0.166666667
          6   0.166666667  -0.166666667   0.500000000
          7  -0.166666667  -0.500000000  -0.166666667
          8   0.166666667  -0.500000000  -0.166666667
          9  -0.166666667  -0.500000000   0.166666667
         10   0.500000000  -0.166666667  -0.166666667
         11  -0.500000000  -0.166666667   0.166666667
         12   0.500000000   0.166666667   0.166666667
         13  -0.166666667   0.166666667  -0.500000000
         14  -0.166666667  -0.166666667   0.500000000
         15   0.166666667   0.166666667   0.500000000
         16   0.166666667  -0.166666667  -0.500000000
         17  -0.500000000   0.166666667  -0.166666667
         18  -0.500000000  -0.166666667  -0.166666667
         19   0.166666667  -0.500000000   0.166666667
         20   0.500000000   0.166666667  -0.166666667
         21   0.166666667   0.166666667  -0.500000000
         22  -0.166666667  -0.166666667  -0.500000000
         23  -0.500000000   0.166666667   0.166666667
         24  -0.166666667   0.166666667   0.500000000

     Diagonalizing the dynamical matrix

     q = (   -0.166666667   0.500000000  -0.166666667 ) 

 **************************************************************************
     freq (    1) =       2.480094 [THz] =      82.727043 [cm-1]
     freq (    2) =       2.489800 [THz] =      83.050798 [cm-1]
     freq (    3) =       4.604782 [THz] =     153.599005 [cm-1]
 **************************************************************************

     Mode symmetry, C_s (m)     point group:

     freq (  1 -  1) =         82.7  [cm-1]   --> A''                
     freq (  2 -  2) =         83.1  [cm-1]   --> A'                 
     freq (  3 -  3) =        153.6  [cm-1]   --> A'                 

     Calculation of q =    0.6666667  -0.3333333   0.6666667

   Info: using nr1, nr2, nr3 values from input

   Info: using nr1, nr2, nr3 values from input

     Parallelization info
     --------------------
     sticks:   dense  smooth     PW     G-vecs:    dense   smooth      PW
     Min          55      27     11                 1097      388     101
     Max          56      28     12                 1100      393     103
     Sum         889     439    187                17573     6231    1639



     bravais-lattice index     =            2
     lattice parameter (alat)  =       9.0100  a.u.
     unit-cell volume          =     182.8582 (a.u.)^3
     number of atoms/cell      =            1
     number of atomic types    =            1
     number of electrons       =         9.00
     number of Kohn-Sham states=            9
     kinetic-energy cutoff     =      40.0000  Ry
     charge density cutoff     =     320.0000  Ry
     Exchange-correlation      = SLA  PW   PBE  PBE ( 1  4  3  4 0 0)

     celldm(1)=   9.010000  celldm(2)=   0.000000  celldm(3)=   0.000000
     celldm(4)=   0.000000  celldm(5)=   0.000000  celldm(6)=   0.000000

     crystal axes: (cart. coord. in units of alat)
               a(1) = (  -0.500000   0.000000   0.500000 )  
               a(2) = (   0.000000   0.500000   0.500000 )  
               a(3) = (  -0.500000   0.500000   0.000000 )  

     reciprocal axes: (cart. coord. in units 2 pi/alat)
               b(1) = ( -1.000000 -1.000000  1.000000 )  
               b(2) = (  1.000000  1.000000  1.000000 )  
               b(3) = ( -1.000000  1.000000 -1.000000 )  


     PseudoPot. # 1 for Na read from file:
     /home/s1333534/quantum_espresso/qe-6.1/pseudo/Na_pbe_v1.uspp.F.UPF
     MD5 check sum: 76a99c7e9422403d3e93cbc85ab7bccb
     Pseudo is Ultrasoft, Zval =  9.0
     Generated by new atomic code, or converted to UPF format
     Using radial grid of  819 points,  5 beta functions with: 
                l(1) =   0
                l(2) =   0
                l(3) =   1
                l(4) =   1
                l(5) =   2
     Q(r) pseudized with  8 coefficients,  rinner =    1.250   1.250   1.250
                                                       1.250   1.250

     atomic species   valence    mass     pseudopotential
        Na             9.00    22.99000     Na( 1.00)

     48 Sym. Ops., with inversion, found



   Cartesian axes

     site n.     atom                  positions (alat units)
         1           Na  tau(   1) = (   0.0000000   0.0000000   0.0000000  )

     number of k points= 32800  Marzari-Vanderbilt smearing, width (Ry)=  0.0200

     Number of k-points >= 100: set verbosity='high' to print them.

     Dense  grid:    17573 G-vectors     FFT dimensions: (  40,  40,  40)

     Smooth grid:     6231 G-vectors     FFT dimensions: (  25,  25,  25)

     Estimated max dynamical RAM per process >       0.60MB

     Estimated total allocated dynamical RAM >      38.61MB

     The potential is recalculated from file :
     ./_ph0/na.fcc.save/charge-density.dat

     Starting wfc are    5 atomic +    4 random wfc

     Band Structure Calculation
     Davidson diagonalization with overlap

     ethr =  1.11E-10,  avg # of iterations = 17.6

     total cpu time spent up to now is     1476.3 secs

     End of band structure calculation

     Number of k-points >= 100: set verbosity='high' to print the bands.

     the Fermi energy is     3.1550 ev

     Writing output data file na.fcc.save

                                                                                

     bravais-lattice index     =            2
     lattice parameter (alat)  =       9.0100  a.u.
     unit-cell volume          =     182.8582 (a.u.)^3
     number of atoms/cell      =            1
     number of atomic types    =            1
     kinetic-energy cut-off    =      40.0000  Ry
     charge density cut-off    =     320.0000  Ry
     convergence threshold     =      1.0E-16
     beta                      =       0.7000
     number of iterations used =            4
     Exchange-correlation      = SLA  PW   PBE  PBE ( 1  4  3  4 0 0)


     celldm(1)=    9.01000  celldm(2)=    0.00000  celldm(3)=    0.00000
     celldm(4)=    0.00000  celldm(5)=    0.00000  celldm(6)=    0.00000

     crystal axes: (cart. coord. in units of alat)
               a(1) = ( -0.5000  0.0000  0.5000 )  
               a(2) = (  0.0000  0.5000  0.5000 )  
               a(3) = ( -0.5000  0.5000  0.0000 )  

     reciprocal axes: (cart. coord. in units 2 pi/alat)
               b(1) = ( -1.0000 -1.0000  1.0000 )  
               b(2) = (  1.0000  1.0000  1.0000 )  
               b(3) = ( -1.0000  1.0000 -1.0000 )  


     Atoms inside the unit cell: 

     Cartesian axes

     site n.  atom      mass           positions (alat units)
        1     Na  22.9900   tau(    1) = (    0.00000    0.00000    0.00000  )

     Computing dynamical matrix for 
                    q = (   0.6666667  -0.3333333   0.6666667 )

      2 Sym.Ops. (no q -> -q+G )


     G cutoff =  658.0211  (   1100 G-vectors)     FFT grid: ( 40, 40, 40)
     G cutoff =  329.0106  (    393 G-vectors)  smooth grid: ( 25, 25, 25)

     number of k points= 32800  Marzari-Vanderbilt smearing, width (Ry)=  0.0200

     PseudoPot. # 1 for Na read from file:
     /home/s1333534/quantum_espresso/qe-6.1/pseudo/Na_pbe_v1.uspp.F.UPF
     MD5 check sum: 76a99c7e9422403d3e93cbc85ab7bccb
     Pseudo is Ultrasoft, Zval =  9.0
     Generated by new atomic code, or converted to UPF format
     Using radial grid of  819 points,  5 beta functions with: 
                l(1) =   0
                l(2) =   0
                l(3) =   1
                l(4) =   1
                l(5) =   2
     Q(r) pseudized with  8 coefficients,  rinner =    1.250   1.250   1.250
                                                       1.250   1.250

     Mode symmetry, C_s (m)     point group:


     Atomic displacements:
     There are   3 irreducible representations

     Representation     1      1 modes -A'  To be done

     Representation     2      1 modes -A'  To be done

     Representation     3      1 modes -A''  To be done



     Alpha used in Ewald sum =   2.8000
     PHONON       :     1h18m CPU        1h26m WALL



     Representation #  1 mode #   1

     Self-consistent Calculation

      iter #   1 total cpu time :  5231.3 secs   av.it.:   5.8
      thresh= 1.000E-02 alpha_mix =  0.700 |ddv_scf|^2 =  8.285E-05

      iter #   2 total cpu time :  5290.3 secs   av.it.:   7.4
      thresh= 9.102E-04 alpha_mix =  0.700 |ddv_scf|^2 =  5.490E-05

      iter #   3 total cpu time :  5346.5 secs   av.it.:   7.1
      thresh= 7.410E-04 alpha_mix =  0.700 |ddv_scf|^2 =  1.144E-07

      iter #   4 total cpu time :  5408.7 secs   av.it.:   8.3
      thresh= 3.382E-05 alpha_mix =  0.700 |ddv_scf|^2 =  8.433E-09

      iter #   5 total cpu time :  5471.1 secs   av.it.:   8.1
      thresh= 9.183E-06 alpha_mix =  0.700 |ddv_scf|^2 =  4.584E-10

      iter #   6 total cpu time :  5533.4 secs   av.it.:   7.9
      thresh= 2.141E-06 alpha_mix =  0.700 |ddv_scf|^2 =  7.708E-12

      iter #   7 total cpu time :  5596.0 secs   av.it.:   8.2
      thresh= 2.776E-07 alpha_mix =  0.700 |ddv_scf|^2 =  3.048E-13

      iter #   8 total cpu time :  5659.5 secs   av.it.:   8.3
      thresh= 5.521E-08 alpha_mix =  0.700 |ddv_scf|^2 =  2.394E-14

      iter #   9 total cpu time :  5721.2 secs   av.it.:   8.1
      thresh= 1.547E-08 alpha_mix =  0.700 |ddv_scf|^2 =  1.465E-15

      iter #  10 total cpu time :  5779.5 secs   av.it.:   7.5
      thresh= 3.827E-09 alpha_mix =  0.700 |ddv_scf|^2 =  6.447E-17

     End of self-consistent calculation

     Convergence has been achieved 


     Representation #  2 mode #   2

     Self-consistent Calculation

      iter #   1 total cpu time :  5837.5 secs   av.it.:   5.8
      thresh= 1.000E-02 alpha_mix =  0.700 |ddv_scf|^2 =  4.308E-05

      iter #   2 total cpu time :  5897.3 secs   av.it.:   7.7
      thresh= 6.563E-04 alpha_mix =  0.700 |ddv_scf|^2 =  1.743E-05

      iter #   3 total cpu time :  5954.6 secs   av.it.:   7.3
      thresh= 4.175E-04 alpha_mix =  0.700 |ddv_scf|^2 =  4.651E-07

      iter #   4 total cpu time :  6015.0 secs   av.it.:   7.7
      thresh= 6.820E-05 alpha_mix =  0.700 |ddv_scf|^2 =  1.297E-08

      iter #   5 total cpu time :  6076.8 secs   av.it.:   8.2
      thresh= 1.139E-05 alpha_mix =  0.700 |ddv_scf|^2 =  3.322E-10

      iter #   6 total cpu time :  6140.1 secs   av.it.:   8.1
      thresh= 1.823E-06 alpha_mix =  0.700 |ddv_scf|^2 =  2.038E-11

      iter #   7 total cpu time :  6202.3 secs   av.it.:   8.3
      thresh= 4.515E-07 alpha_mix =  0.700 |ddv_scf|^2 =  1.025E-12

      iter #   8 total cpu time :  6264.9 secs   av.it.:   8.3
      thresh= 1.012E-07 alpha_mix =  0.700 |ddv_scf|^2 =  2.963E-14

      iter #   9 total cpu time :  6325.3 secs   av.it.:   7.9
      thresh= 1.721E-08 alpha_mix =  0.700 |ddv_scf|^2 =  6.472E-15

      iter #  10 total cpu time :  6383.4 secs   av.it.:   7.5
      thresh= 8.045E-09 alpha_mix =  0.700 |ddv_scf|^2 =  1.252E-16

      iter #  11 total cpu time :  6445.9 secs   av.it.:   8.2
      thresh= 1.119E-09 alpha_mix =  0.700 |ddv_scf|^2 =  3.263E-18

     End of self-consistent calculation

     Convergence has been achieved 


     Representation #  3 mode #   3

     Self-consistent Calculation

      iter #   1 total cpu time :  6499.9 secs   av.it.:   5.5
      thresh= 1.000E-02 alpha_mix =  0.700 |ddv_scf|^2 =  1.259E-05

      iter #   2 total cpu time :  6560.9 secs   av.it.:   7.9
      thresh= 3.549E-04 alpha_mix =  0.700 |ddv_scf|^2 =  1.957E-07

      iter #   3 total cpu time :  6622.9 secs   av.it.:   8.1
      thresh= 4.424E-05 alpha_mix =  0.700 |ddv_scf|^2 =  6.817E-09

      iter #   4 total cpu time :  6681.2 secs   av.it.:   7.6
      thresh= 8.256E-06 alpha_mix =  0.700 |ddv_scf|^2 =  2.475E-11

      iter #   5 total cpu time :  6741.3 secs   av.it.:   7.9
      thresh= 4.975E-07 alpha_mix =  0.700 |ddv_scf|^2 =  2.771E-14

      iter #   6 total cpu time :  6797.0 secs   av.it.:   7.2
      thresh= 1.665E-08 alpha_mix =  0.700 |ddv_scf|^2 =  1.472E-15

      iter #   7 total cpu time :  6856.6 secs   av.it.:   7.7
      thresh= 3.837E-09 alpha_mix =  0.700 |ddv_scf|^2 =  1.318E-18

     End of self-consistent calculation

     Convergence has been achieved 

     Number of q in the star =   24
     List of q in the star:
          1   0.666666667  -0.333333333   0.666666667
          2  -0.666666667  -0.333333333  -0.666666667
          3   0.666666667  -0.333333333  -0.666666667
          4  -0.666666667  -0.333333333   0.666666667
          5  -0.333333333   0.666666667  -0.666666667
          6  -0.666666667   0.666666667  -0.333333333
          7   0.666666667   0.333333333   0.666666667
          8  -0.666666667   0.333333333   0.666666667
          9   0.666666667   0.333333333  -0.666666667
         10  -0.333333333   0.666666667   0.666666667
         11   0.333333333   0.666666667  -0.666666667
         12  -0.333333333  -0.666666667  -0.666666667
         13   0.666666667  -0.666666667   0.333333333
         14   0.666666667   0.666666667  -0.333333333
         15  -0.666666667  -0.666666667  -0.333333333
         16  -0.666666667   0.666666667   0.333333333
         17   0.333333333  -0.666666667   0.666666667
         18   0.333333333   0.666666667   0.666666667
         19  -0.666666667   0.333333333  -0.666666667
         20  -0.333333333  -0.666666667   0.666666667
         21  -0.666666667  -0.666666667   0.333333333
         22   0.666666667   0.666666667   0.333333333
         23   0.333333333  -0.666666667  -0.666666667
         24   0.666666667  -0.666666667  -0.333333333

     Diagonalizing the dynamical matrix

     q = (    0.666666667  -0.333333333   0.666666667 ) 

 **************************************************************************
     freq (    1) =       2.583572 [THz] =      86.178683 [cm-1]
     freq (    2) =       3.216051 [THz] =     107.275914 [cm-1]
     freq (    3) =       5.691788 [THz] =     189.857620 [cm-1]
 **************************************************************************

     Mode symmetry, C_s (m)     point group:

     freq (  1 -  1) =         86.2  [cm-1]   --> A''                
     freq (  2 -  2) =        107.3  [cm-1]   --> A'                 
     freq (  3 -  3) =        189.9  [cm-1]   --> A'                 

     Calculation of q =    0.5000000  -0.1666667   0.5000000

   Info: using nr1, nr2, nr3 values from input

   Info: using nr1, nr2, nr3 values from input

     Parallelization info
     --------------------
     sticks:   dense  smooth     PW     G-vecs:    dense   smooth      PW
     Min          55      27     10                 1097      388      91
     Max          56      28     11                 1100      393      94
     Sum         889     439    169                17573     6231    1471



     bravais-lattice index     =            2
     lattice parameter (alat)  =       9.0100  a.u.
     unit-cell volume          =     182.8582 (a.u.)^3
     number of atoms/cell      =            1
     number of atomic types    =            1
     number of electrons       =         9.00
     number of Kohn-Sham states=            9
     kinetic-energy cutoff     =      40.0000  Ry
     charge density cutoff     =     320.0000  Ry
     Exchange-correlation      = SLA  PW   PBE  PBE ( 1  4  3  4 0 0)

     celldm(1)=   9.010000  celldm(2)=   0.000000  celldm(3)=   0.000000
     celldm(4)=   0.000000  celldm(5)=   0.000000  celldm(6)=   0.000000

     crystal axes: (cart. coord. in units of alat)
               a(1) = (  -0.500000   0.000000   0.500000 )  
               a(2) = (   0.000000   0.500000   0.500000 )  
               a(3) = (  -0.500000   0.500000   0.000000 )  

     reciprocal axes: (cart. coord. in units 2 pi/alat)
               b(1) = ( -1.000000 -1.000000  1.000000 )  
               b(2) = (  1.000000  1.000000  1.000000 )  
               b(3) = ( -1.000000  1.000000 -1.000000 )  


     PseudoPot. # 1 for Na read from file:
     /home/s1333534/quantum_espresso/qe-6.1/pseudo/Na_pbe_v1.uspp.F.UPF
     MD5 check sum: 76a99c7e9422403d3e93cbc85ab7bccb
     Pseudo is Ultrasoft, Zval =  9.0
     Generated by new atomic code, or converted to UPF format
     Using radial grid of  819 points,  5 beta functions with: 
                l(1) =   0
                l(2) =   0
                l(3) =   1
                l(4) =   1
                l(5) =   2
     Q(r) pseudized with  8 coefficients,  rinner =    1.250   1.250   1.250
                                                       1.250   1.250

     atomic species   valence    mass     pseudopotential
        Na             9.00    22.99000     Na( 1.00)

     48 Sym. Ops., with inversion, found



   Cartesian axes

     site n.     atom                  positions (alat units)
         1           Na  tau(   1) = (   0.0000000   0.0000000   0.0000000  )

     number of k points= 32800  Marzari-Vanderbilt smearing, width (Ry)=  0.0200

     Number of k-points >= 100: set verbosity='high' to print them.

     Dense  grid:    17573 G-vectors     FFT dimensions: (  40,  40,  40)

     Smooth grid:     6231 G-vectors     FFT dimensions: (  25,  25,  25)

     Estimated max dynamical RAM per process >       0.60MB

     Estimated total allocated dynamical RAM >      38.61MB

     The potential is recalculated from file :
     ./_ph0/na.fcc.save/charge-density.dat

     Starting wfc are    5 atomic +    4 random wfc

     Band Structure Calculation
     Davidson diagonalization with overlap

     ethr =  1.11E-10,  avg # of iterations = 17.6

     total cpu time spent up to now is     1986.6 secs

     End of band structure calculation

     Number of k-points >= 100: set verbosity='high' to print the bands.

     the Fermi energy is     3.1550 ev

     Writing output data file na.fcc.save

                                                                                

     bravais-lattice index     =            2
     lattice parameter (alat)  =       9.0100  a.u.
     unit-cell volume          =     182.8582 (a.u.)^3
     number of atoms/cell      =            1
     number of atomic types    =            1
     kinetic-energy cut-off    =      40.0000  Ry
     charge density cut-off    =     320.0000  Ry
     convergence threshold     =      1.0E-16
     beta                      =       0.7000
     number of iterations used =            4
     Exchange-correlation      = SLA  PW   PBE  PBE ( 1  4  3  4 0 0)


     celldm(1)=    9.01000  celldm(2)=    0.00000  celldm(3)=    0.00000
     celldm(4)=    0.00000  celldm(5)=    0.00000  celldm(6)=    0.00000

     crystal axes: (cart. coord. in units of alat)
               a(1) = ( -0.5000  0.0000  0.5000 )  
               a(2) = (  0.0000  0.5000  0.5000 )  
               a(3) = ( -0.5000  0.5000  0.0000 )  

     reciprocal axes: (cart. coord. in units 2 pi/alat)
               b(1) = ( -1.0000 -1.0000  1.0000 )  
               b(2) = (  1.0000  1.0000  1.0000 )  
               b(3) = ( -1.0000  1.0000 -1.0000 )  


     Atoms inside the unit cell: 

     Cartesian axes

     site n.  atom      mass           positions (alat units)
        1     Na  22.9900   tau(    1) = (    0.00000    0.00000    0.00000  )

     Computing dynamical matrix for 
                    q = (   0.5000000  -0.1666667   0.5000000 )

      2 Sym.Ops. (no q -> -q+G )


     G cutoff =  658.0211  (   1100 G-vectors)     FFT grid: ( 40, 40, 40)
     G cutoff =  329.0106  (    393 G-vectors)  smooth grid: ( 25, 25, 25)

     number of k points= 32800  Marzari-Vanderbilt smearing, width (Ry)=  0.0200

     PseudoPot. # 1 for Na read from file:
     /home/s1333534/quantum_espresso/qe-6.1/pseudo/Na_pbe_v1.uspp.F.UPF
     MD5 check sum: 76a99c7e9422403d3e93cbc85ab7bccb
     Pseudo is Ultrasoft, Zval =  9.0
     Generated by new atomic code, or converted to UPF format
     Using radial grid of  819 points,  5 beta functions with: 
                l(1) =   0
                l(2) =   0
                l(3) =   1
                l(4) =   1
                l(5) =   2
     Q(r) pseudized with  8 coefficients,  rinner =    1.250   1.250   1.250
                                                       1.250   1.250

     Mode symmetry, C_s (m)     point group:


     Atomic displacements:
     There are   3 irreducible representations

     Representation     1      1 modes -A'  To be done

     Representation     2      1 modes -A'  To be done

     Representation     3      1 modes -A''  To be done



     Alpha used in Ewald sum =   2.8000
     PHONON       :     1h52m CPU        2h 3m WALL



     Representation #  1 mode #   1

     Self-consistent Calculation

      iter #   1 total cpu time :  7449.7 secs   av.it.:   5.8
[...]

      iter #   4 total cpu time : 18003.6 secs   av.it.:   8.3
      thresh= 1.914E-05 alpha_mix =  0.700 |ddv_scf|^2 =  9.217E-10

      iter #   5 total cpu time : 18062.5 secs   av.it.:   7.8
      thresh= 3.036E-06 alpha_mix =  0.700 |ddv_scf|^2 =  2.924E-11

      iter #   6 total cpu time : 18121.1 secs   av.it.:   7.6
      thresh= 5.407E-07 alpha_mix =  0.700 |ddv_scf|^2 =  5.661E-14

      iter #   7 total cpu time : 18180.4 secs   av.it.:   7.9
      thresh= 2.379E-08 alpha_mix =  0.700 |ddv_scf|^2 =  4.134E-15

      iter #   8 total cpu time : 18239.5 secs   av.it.:   7.9
      thresh= 6.430E-09 alpha_mix =  0.700 |ddv_scf|^2 =  1.201E-17

     End of self-consistent calculation

     Convergence has been achieved 

     Number of q in the star =   24
     List of q in the star:
          1   0.500000000  -0.166666667   0.833333333
          2   0.833333333   0.166666667   0.500000000
          3   0.500000000   0.166666667   0.833333333
          4  -0.833333333  -0.166666667   0.500000000
          5  -0.833333333  -0.166666667  -0.500000000
          6  -0.500000000  -0.166666667  -0.833333333
          7   0.833333333  -0.166666667   0.500000000
          8  -0.500000000  -0.166666667   0.833333333
          9  -0.833333333   0.166666667   0.500000000
         10   0.833333333   0.166666667  -0.500000000
         11   0.833333333  -0.166666667  -0.500000000
         12   0.500000000   0.166666667  -0.833333333
         13  -0.500000000   0.166666667   0.833333333
         14  -0.500000000   0.166666667  -0.833333333
         15  -0.833333333   0.166666667  -0.500000000
         16   0.833333333  -0.500000000   0.166666667
         17   0.833333333   0.500000000  -0.166666667
         18  -0.833333333  -0.500000000  -0.166666667
         19  -0.833333333   0.500000000   0.166666667
         20   0.166666667  -0.500000000   0.833333333
         21  -0.166666667   0.500000000   0.833333333
         22   0.166666667   0.500000000  -0.833333333
         23  -0.166666667  -0.500000000  -0.833333333
         24  -0.500000000   0.833333333   0.166666667

     Diagonalizing the dynamical matrix

     q = (    0.500000000  -0.166666667   0.833333333 ) 

 **************************************************************************
     freq (    1) =       3.168789 [THz] =     105.699433 [cm-1]
     freq (    2) =       4.480959 [THz] =     149.468719 [cm-1]
     freq (    3) =       5.374239 [THz] =     179.265331 [cm-1]
 **************************************************************************

     Mode symmetry, C_2  (2)    point group:

     freq (  1 -  1) =        105.7  [cm-1]   --> B                  
     freq (  2 -  2) =        149.5  [cm-1]   --> A                  
     freq (  3 -  3) =        179.3  [cm-1]   --> B                  

     Calculation of q =   -0.3333333  -1.0000000   0.0000000

   Info: using nr1, nr2, nr3 values from input

   Info: using nr1, nr2, nr3 values from input

     Parallelization info
     --------------------
     sticks:   dense  smooth     PW     G-vecs:    dense   smooth      PW
     Min          55      27     11                 1097      388     101
     Max          56      28     12                 1100      393     103
     Sum         889     439    187                17573     6231    1639



     bravais-lattice index     =            2
     lattice parameter (alat)  =       9.0100  a.u.
     unit-cell volume          =     182.8582 (a.u.)^3
     number of atoms/cell      =            1
     number of atomic types    =            1
     number of electrons       =         9.00
     number of Kohn-Sham states=            9
     kinetic-energy cutoff     =      40.0000  Ry
     charge density cutoff     =     320.0000  Ry
     Exchange-correlation      = SLA  PW   PBE  PBE ( 1  4  3  4 0 0)

     celldm(1)=   9.010000  celldm(2)=   0.000000  celldm(3)=   0.000000
     celldm(4)=   0.000000  celldm(5)=   0.000000  celldm(6)=   0.000000

     crystal axes: (cart. coord. in units of alat)
               a(1) = (  -0.500000   0.000000   0.500000 )  
               a(2) = (   0.000000   0.500000   0.500000 )  
               a(3) = (  -0.500000   0.500000   0.000000 )  

     reciprocal axes: (cart. coord. in units 2 pi/alat)
               b(1) = ( -1.000000 -1.000000  1.000000 )  
               b(2) = (  1.000000  1.000000  1.000000 )  
               b(3) = ( -1.000000  1.000000 -1.000000 )  


     PseudoPot. # 1 for Na read from file:
     /home/s1333534/quantum_espresso/qe-6.1/pseudo/Na_pbe_v1.uspp.F.UPF
     MD5 check sum: 76a99c7e9422403d3e93cbc85ab7bccb
     Pseudo is Ultrasoft, Zval =  9.0
     Generated by new atomic code, or converted to UPF format
     Using radial grid of  819 points,  5 beta functions with: 
                l(1) =   0
                l(2) =   0
                l(3) =   1
                l(4) =   1
                l(5) =   2
     Q(r) pseudized with  8 coefficients,  rinner =    1.250   1.250   1.250
                                                       1.250   1.250

     atomic species   valence    mass     pseudopotential
        Na             9.00    22.99000     Na( 1.00)

     48 Sym. Ops., with inversion, found



   Cartesian axes

     site n.     atom                  positions (alat units)
         1           Na  tau(   1) = (   0.0000000   0.0000000   0.0000000  )

     number of k points= 16000  Marzari-Vanderbilt smearing, width (Ry)=  0.0200

     Number of k-points >= 100: set verbosity='high' to print them.

     Dense  grid:    17573 G-vectors     FFT dimensions: (  40,  40,  40)

     Smooth grid:     6231 G-vectors     FFT dimensions: (  25,  25,  25)

     Estimated max dynamical RAM per process >       0.60MB

     Estimated total allocated dynamical RAM >      38.61MB

     The potential is recalculated from file :
     ./_ph0/na.fcc.save/charge-density.dat

     Starting wfc are    5 atomic +    4 random wfc

     Band Structure Calculation
     Davidson diagonalization with overlap

     ethr =  1.11E-10,  avg # of iterations = 17.6

     total cpu time spent up to now is     4538.0 secs

     End of band structure calculation

     Number of k-points >= 100: set verbosity='high' to print the bands.

     the Fermi energy is     3.1550 ev

     Writing output data file na.fcc.save

                                                                                

     bravais-lattice index     =            2
     lattice parameter (alat)  =       9.0100  a.u.
     unit-cell volume          =     182.8582 (a.u.)^3
     number of atoms/cell      =            1
     number of atomic types    =            1
     kinetic-energy cut-off    =      40.0000  Ry
     charge density cut-off    =     320.0000  Ry
     convergence threshold     =      1.0E-16
     beta                      =       0.7000
     number of iterations used =            4
     Exchange-correlation      = SLA  PW   PBE  PBE ( 1  4  3  4 0 0)


     celldm(1)=    9.01000  celldm(2)=    0.00000  celldm(3)=    0.00000
     celldm(4)=    0.00000  celldm(5)=    0.00000  celldm(6)=    0.00000

     crystal axes: (cart. coord. in units of alat)
               a(1) = ( -0.5000  0.0000  0.5000 )  
               a(2) = (  0.0000  0.5000  0.5000 )  
               a(3) = ( -0.5000  0.5000  0.0000 )  

     reciprocal axes: (cart. coord. in units 2 pi/alat)
               b(1) = ( -1.0000 -1.0000  1.0000 )  
               b(2) = (  1.0000  1.0000  1.0000 )  
               b(3) = ( -1.0000  1.0000 -1.0000 )  


     Atoms inside the unit cell: 

     Cartesian axes

     site n.  atom      mass           positions (alat units)
        1     Na  22.9900   tau(    1) = (    0.00000    0.00000    0.00000  )

     Computing dynamical matrix for 
                    q = (  -0.3333333  -1.0000000   0.0000000 )

      4 Sym.Ops. (no q -> -q+G )


     G cutoff =  658.0211  (   1100 G-vectors)     FFT grid: ( 40, 40, 40)
     G cutoff =  329.0106  (    393 G-vectors)  smooth grid: ( 25, 25, 25)

     number of k points= 16000  Marzari-Vanderbilt smearing, width (Ry)=  0.0200

     PseudoPot. # 1 for Na read from file:
     /home/s1333534/quantum_espresso/qe-6.1/pseudo/Na_pbe_v1.uspp.F.UPF
     MD5 check sum: 76a99c7e9422403d3e93cbc85ab7bccb
     Pseudo is Ultrasoft, Zval =  9.0
     Generated by new atomic code, or converted to UPF format
     Using radial grid of  819 points,  5 beta functions with: 
                l(1) =   0
                l(2) =   0
                l(3) =   1
                l(4) =   1
                l(5) =   2
     Q(r) pseudized with  8 coefficients,  rinner =    1.250   1.250   1.250
                                                       1.250   1.250

     Mode symmetry, C_2v (mm2)  point group:


     Atomic displacements:
     There are   3 irreducible representations

     Representation     1      1 modes -A_1  D_1  S_1  To be done

     Representation     2      1 modes -B_1  D_3  S_3  To be done

     Representation     3      1 modes -B_2  D_4  S_4  To be done



     Alpha used in Ewald sum =   2.8000
     PHONON       :     4h40m CPU        5h 8m WALL



     Representation #  1 mode #   1

     Self-consistent Calculation

      iter #   1 total cpu time : 18530.8 secs   av.it.:   5.6
      thresh= 1.000E-02 alpha_mix =  0.700 |ddv_scf|^2 =  1.920E-05

      iter #   2 total cpu time : 18561.9 secs   av.it.:   7.9
      thresh= 4.382E-04 alpha_mix =  0.700 |ddv_scf|^2 =  6.110E-07

      iter #   3 total cpu time : 18592.0 secs   av.it.:   7.7
      thresh= 7.817E-05 alpha_mix =  0.700 |ddv_scf|^2 =  1.854E-08

      iter #   4 total cpu time : 18624.2 secs   av.it.:   8.2
      thresh= 1.362E-05 alpha_mix =  0.700 |ddv_scf|^2 =  7.600E-10

      iter #   5 total cpu time : 18655.3 secs   av.it.:   8.1
      thresh= 2.757E-06 alpha_mix =  0.700 |ddv_scf|^2 =  4.840E-11

      iter #   6 total cpu time : 18686.1 secs   av.it.:   8.2
      thresh= 6.957E-07 alpha_mix =  0.700 |ddv_scf|^2 =  3.496E-12

      iter #   7 total cpu time : 18716.9 secs   av.it.:   8.0
      thresh= 1.870E-07 alpha_mix =  0.700 |ddv_scf|^2 =  8.236E-14

      iter #   8 total cpu time : 18748.3 secs   av.it.:   7.9
      thresh= 2.870E-08 alpha_mix =  0.700 |ddv_scf|^2 =  5.403E-16

      iter #   9 total cpu time : 18779.6 secs   av.it.:   8.2
      thresh= 2.324E-09 alpha_mix =  0.700 |ddv_scf|^2 =  3.705E-17

     End of self-consistent calculation

     Convergence has been achieved 


     Representation #  2 mode #   2

     Self-consistent Calculation

      iter #   1 total cpu time : 18807.0 secs   av.it.:   5.6
      thresh= 1.000E-02 alpha_mix =  0.700 |ddv_scf|^2 =  2.126E-05

      iter #   2 total cpu time : 18836.9 secs   av.it.:   7.8
      thresh= 4.611E-04 alpha_mix =  0.700 |ddv_scf|^2 =  3.796E-07

      iter #   3 total cpu time : 18866.5 secs   av.it.:   7.8
      thresh= 6.161E-05 alpha_mix =  0.700 |ddv_scf|^2 =  1.921E-08

      iter #   4 total cpu time : 18896.9 secs   av.it.:   8.0
      thresh= 1.386E-05 alpha_mix =  0.700 |ddv_scf|^2 =  1.869E-10

      iter #   5 total cpu time : 18924.7 secs   av.it.:   7.3
      thresh= 1.367E-06 alpha_mix =  0.700 |ddv_scf|^2 =  1.559E-13

      iter #   6 total cpu time : 18953.7 secs   av.it.:   7.7
      thresh= 3.949E-08 alpha_mix =  0.700 |ddv_scf|^2 =  4.605E-15

      iter #   7 total cpu time : 18983.1 secs   av.it.:   7.7
      thresh= 6.786E-09 alpha_mix =  0.700 |ddv_scf|^2 =  3.923E-17

     End of self-consistent calculation

     Convergence has been achieved 


     Representation #  3 mode #   3

     Self-consistent Calculation

      iter #   1 total cpu time : 19010.9 secs   av.it.:   5.7
      thresh= 1.000E-02 alpha_mix =  0.700 |ddv_scf|^2 =  4.167E-05

      iter #   2 total cpu time : 19042.7 secs   av.it.:   7.6
      thresh= 6.456E-04 alpha_mix =  0.700 |ddv_scf|^2 =  3.825E-06

      iter #   3 total cpu time : 19070.9 secs   av.it.:   7.4
      thresh= 1.956E-04 alpha_mix =  0.700 |ddv_scf|^2 =  3.846E-08

      iter #   4 total cpu time : 19101.0 secs   av.it.:   8.1
      thresh= 1.961E-05 alpha_mix =  0.700 |ddv_scf|^2 =  1.604E-10

      iter #   5 total cpu time : 19129.2 secs   av.it.:   7.3
      thresh= 1.266E-06 alpha_mix =  0.700 |ddv_scf|^2 =  1.870E-13

      iter #   6 total cpu time : 19158.7 secs   av.it.:   7.7
      thresh= 4.324E-08 alpha_mix =  0.700 |ddv_scf|^2 =  7.964E-15

      iter #   7 total cpu time : 19185.9 secs   av.it.:   7.3
      thresh= 8.924E-09 alpha_mix =  0.700 |ddv_scf|^2 =  1.221E-17

     End of self-consistent calculation

     Convergence has been achieved 

     Number of q in the star =   12
     List of q in the star:
          1  -0.333333333  -1.000000000   0.000000000
          2   0.000000000  -1.000000000  -0.333333333
          3   0.000000000  -1.000000000   0.333333333
          4   0.333333333  -1.000000000   0.000000000
          5  -1.000000000   0.000000000  -0.333333333
          6   1.000000000   0.000000000   0.333333333
          7   0.000000000   0.333333333   1.000000000
          8   0.000000000  -0.333333333  -1.000000000
          9  -1.000000000  -0.333333333   0.000000000
         10   1.000000000   0.333333333   0.000000000
         11  -0.333333333   0.000000000   1.000000000
         12   0.333333333   0.000000000   1.000000000

     Diagonalizing the dynamical matrix

     q = (   -0.333333333  -1.000000000   0.000000000 ) 

 **************************************************************************
     freq (    1) =       3.672311 [THz] =     122.495115 [cm-1]
     freq (    2) =       4.437247 [THz] =     148.010641 [cm-1]
     freq (    3) =       5.529901 [THz] =     184.457634 [cm-1]
 **************************************************************************

     Mode symmetry, C_2v (mm2)  point group:

     freq (  1 -  1) =        122.5  [cm-1]   --> A_1  D_1  S_1      
     freq (  2 -  2) =        148.0  [cm-1]   --> B_1  D_3  S_3      
     freq (  3 -  3) =        184.5  [cm-1]   --> B_2  D_4  S_4      

     init_run     :      3.03s CPU      3.18s WALL (      15 calls)
     electrons    :   3481.23s CPU   3728.98s WALL (      15 calls)

     Called by init_run:
     wfcinit      :      0.00s CPU      0.00s WALL (      15 calls)
     potinit      :      0.45s CPU      0.46s WALL (      15 calls)

     Called by electrons:
     c_bands      :   3480.05s CPU   3727.78s WALL (      15 calls)
     v_of_rho     :      0.17s CPU      0.18s WALL (      16 calls)
     newd         :      0.14s CPU      0.15s WALL (      16 calls)

     Called by c_bands:
     init_us_2    :     77.62s CPU     85.43s WALL ( 1259294 calls)
     cegterg      :   2759.09s CPU   2974.16s WALL (   89400 calls)

     Called by sum_band:

     Called by *egterg:
     h_psi        :   9597.39s CPU  10552.89s WALL (11498086 calls)
     s_psi        :    313.98s CPU    352.64s WALL (22462870 calls)
     g_psi        :      8.98s CPU      9.78s WALL ( 1350408 calls)
     cdiaghg      :    860.18s CPU    920.99s WALL ( 1423834 calls)

     Called by h_psi:
     h_psi:pot    :   9517.20s CPU  10463.20s WALL (11498086 calls)
     h_psi:calbec :    711.23s CPU    778.29s WALL (11498086 calls)
     vloc_psi     :   8511.95s CPU   9360.80s WALL (11498086 calls)
     add_vuspsi   :    169.39s CPU    189.18s WALL (11498086 calls)

     General routines
     calbec       :   1327.62s CPU   1457.99s WALL (24512497 calls)
     fft          :      4.17s CPU      5.01s WALL (    6451 calls)
     ffts         :     12.59s CPU     13.87s WALL (  112700 calls)
     fftw         :   9184.97s CPU  10162.59s WALL (******** calls)
     interpolate  :      0.69s CPU      0.90s WALL (     884 calls)
     davcio       :    119.37s CPU    242.37s WALL ( 5106101 calls)

     Parallel routines
     fft_scatter  :   5289.45s CPU   5836.90s WALL (******** calls)

     PHONON       :     4h50m CPU        5h19m WALL

     INITIALIZATION: 
     phq_setup    :      0.66s CPU      0.71s WALL (      16 calls)
     phq_init     :    196.57s CPU    209.85s WALL (      16 calls)

     phq_init     :    196.57s CPU    209.85s WALL (      16 calls)
     init_vloc    :      0.12s CPU      0.12s WALL (      16 calls)
     init_us_1    :      1.32s CPU      1.43s WALL (      16 calls)
     newd         :      0.14s CPU      0.15s WALL (      16 calls)
     dvanqq       :      0.49s CPU      0.50s WALL (      16 calls)
     drho         :    149.04s CPU    159.13s WALL (      16 calls)

     DYNAMICAL MATRIX:
     dynmat0      :     32.46s CPU     34.31s WALL (      16 calls)
     phqscf       :  12890.49s CPU  14383.49s WALL (      16 calls)
     dynmatrix    :      0.10s CPU      0.11s WALL (      16 calls)

     phqscf       :  12890.49s CPU  14383.49s WALL (      16 calls)
     solve_linter :  12839.40s CPU  14328.32s WALL (      40 calls)
     drhodv       :     50.87s CPU     54.32s WALL (      40 calls)

     dynmat0      :     32.46s CPU     34.31s WALL (      16 calls)
     dynmat_us    :     32.41s CPU     34.22s WALL (      16 calls)
     d2ionq       :      0.01s CPU      0.01s WALL (      16 calls)

     dynmat_us    :     32.41s CPU     34.22s WALL (      16 calls)
     addusdynmat  :      0.00s CPU      0.00s WALL (      16 calls)

     phqscf       :  12890.49s CPU  14383.49s WALL (      16 calls)
     solve_linter :  12839.40s CPU  14328.32s WALL (      40 calls)

     solve_linter :  12839.40s CPU  14328.32s WALL (      40 calls)
     dvqpsi_us    :    244.63s CPU    265.92s WALL (  110718 calls)
     ortho        :    206.00s CPU    223.48s WALL (  979932 calls)
     cgsolve      :  10215.10s CPU  11297.15s WALL (  979932 calls)
     incdrhoscf   :    934.51s CPU   1092.77s WALL (  979932 calls)
     addusddens   :      3.80s CPU      3.93s WALL (     388 calls)
     vpsifft      :    735.93s CPU    815.48s WALL (  869214 calls)
     dv_of_drho   :      3.06s CPU      3.65s WALL (     402 calls)
     mix_pot      :      0.66s CPU      2.50s WALL (     348 calls)
     ef_shift     :      0.03s CPU      0.11s WALL (       7 calls)
     localdos     :      0.17s CPU      0.18s WALL (       1 calls)
     psymdvscf    :     25.81s CPU     26.48s WALL (     348 calls)
     newdq        :      3.78s CPU      3.83s WALL (     348 calls)
     adddvscf     :     49.39s CPU     54.39s WALL (  869214 calls)
     drhodvus     :      0.04s CPU      0.05s WALL (      40 calls)

     dvqpsi_us    :    244.63s CPU    265.92s WALL (  110718 calls)
     dvqpsi_us_on :     50.94s CPU     54.27s WALL (  110718 calls)

     cgsolve      :  10215.10s CPU  11297.15s WALL (  979932 calls)
     ch_psi       :   9510.78s CPU  10513.07s WALL ( 9984852 calls)

     ch_psi       :   9510.78s CPU  10513.07s WALL ( 9984852 calls)
     h_psi        :   9597.39s CPU  10552.89s WALL (11498086 calls)
     last         :   1202.05s CPU   1330.60s WALL ( 9984852 calls)

     h_psi        :   9597.39s CPU  10552.89s WALL (11498086 calls)
     add_vuspsi   :    169.39s CPU    189.18s WALL (11498086 calls)

     incdrhoscf   :    934.51s CPU   1092.77s WALL (  979932 calls)
     addusdbec    :     95.71s CPU    105.07s WALL ( 1090650 calls)

     drhodvus     :      0.04s CPU      0.05s WALL (      40 calls)

      General routines
     calbec       :   1327.62s CPU   1457.99s WALL (24512497 calls)
     fft          :      4.17s CPU      5.01s WALL (    6451 calls)
     ffts         :     12.59s CPU     13.87s WALL (  112700 calls)
     fftw         :   9184.97s CPU  10162.59s WALL (******** calls)
     davcio       :    119.37s CPU    242.37s WALL ( 5106101 calls)
     write_rec    :      1.53s CPU      3.39s WALL (     388 calls)


     PHONON       :     4h50m CPU        5h19m WALL


   This run was terminated on:   6:37:55   2Feb2018            

=------------------------------------------------------------------------------=
   JOB DONE.
=------------------------------------------------------------------------------=
