
     Program PWSCF v.6.1 (svn rev. 13369) starts on 20Dec2017 at 14:27:43 

     This program is part of the open-source Quantum ESPRESSO suite
     for quantum simulation of materials; please cite
         "P. Giannozzi et al., J. Phys.:Condens. Matter 21 395502 (2009);
          URL http://www.quantum-espresso.org", 
     in publications or presentations arising from this work. More details at
     http://www.quantum-espresso.org/quote

     Parallel version (MPI), running on     4 processors
     R & G space division:  proc/nbgrp/npool/nimage =       4
     Waiting for input...
     Reading input from standard input

     Current dimensions of program PWSCF are:
     Max number of different atomic species (ntypx) = 10
     Max number of k-points (npk) =  40000
     Max angular momentum in pseudopotentials (lmaxx) =  3

     Subspace diagonalization in iterative solution of the eigenvalue problem:
     a serial algorithm will be used


     Parallelization info
     --------------------
     sticks:   dense  smooth     PW     G-vecs:    dense   smooth      PW
     Min         289     145     49                 6614     2342     451
     Max         290     146     50                 6619     2345     453
     Sum        1159     583    199                26469     9377    1807



     bravais-lattice index     =            2
     lattice parameter (alat)  =      10.2979  a.u.
     unit-cell volume          =     273.0124 (a.u.)^3
     number of atoms/cell      =            1
     number of atomic types    =            1
     number of electrons       =         9.00
     number of Kohn-Sham states=            9
     kinetic-energy cutoff     =      40.0000  Ry
     charge density cutoff     =     320.0000  Ry
     convergence threshold     =      1.0E-08
     mixing beta               =       0.7000
     number of iterations used =            8  plain     mixing
     Exchange-correlation      = SLA  PW   PBE  PBE ( 1  4  3  4 0 0)
     nstep                     =           50


     celldm(1)=  10.297871  celldm(2)=   0.000000  celldm(3)=   0.000000
     celldm(4)=   0.000000  celldm(5)=   0.000000  celldm(6)=   0.000000

     crystal axes: (cart. coord. in units of alat)
               a(1) = (  -0.500000   0.000000   0.500000 )  
               a(2) = (   0.000000   0.500000   0.500000 )  
               a(3) = (  -0.500000   0.500000   0.000000 )  

     reciprocal axes: (cart. coord. in units 2 pi/alat)
               b(1) = ( -1.000000 -1.000000  1.000000 )  
               b(2) = (  1.000000  1.000000  1.000000 )  
               b(3) = ( -1.000000  1.000000 -1.000000 )  


     PseudoPot. # 1 for Na read from file:
     /home/s1333534/quantum_espresso/qe-6.1/pseudo/Na_pbe_v1.uspp.F.UPF
     MD5 check sum: 76a99c7e9422403d3e93cbc85ab7bccb
     Pseudo is Ultrasoft, Zval =  9.0
     Generated by new atomic code, or converted to UPF format
     Using radial grid of  819 points,  5 beta functions with: 
                l(1) =   0
                l(2) =   0
                l(3) =   1
                l(4) =   1
                l(5) =   2
     Q(r) pseudized with  8 coefficients,  rinner =    1.250   1.250   1.250
                                                       1.250   1.250

     atomic species   valence    mass     pseudopotential
        Na             9.00    22.99000     Na( 1.00)

     48 Sym. Ops., with inversion, found



   Cartesian axes

     site n.     atom                  positions (alat units)
         1           Na  tau(   1) = (   0.0000000   0.0000000   0.0000000  )

     number of k points=   770  Marzari-Vanderbilt smearing, width (Ry)=  0.0200

     Number of k-points >= 100: set verbosity='high' to print them.

     Dense  grid:    26469 G-vectors     FFT dimensions: (  45,  45,  45)

     Smooth grid:     9377 G-vectors     FFT dimensions: (  30,  30,  30)

     Estimated max dynamical RAM per process >      35.52MB

     Estimated total allocated dynamical RAM >     142.07MB

     Initial potential from superposition of free atoms

     starting charge    8.99371, renormalised to    9.00000
     Starting wfc are    5 randomized atomic wfcs +    4 random wfc

     total cpu time spent up to now is        2.8 secs

     per-process dynamical memory:    44.8 Mb

     Self-consistent Calculation

     iteration #  1     ecut=    40.00 Ry     beta=0.70
     Davidson diagonalization with overlap
     ethr =  1.00E-02,  avg # of iterations =  5.6

     Threshold (ethr) on eigenvalues was too large:
     Diagonalizing with lowered threshold

     Davidson diagonalization with overlap
     ethr =  9.67E-06,  avg # of iterations =  4.2

     total cpu time spent up to now is       20.1 secs

     total energy              =     -95.10600453 Ry
     Harris-Foulkes estimate   =     -95.10615036 Ry
     estimated scf accuracy    <       0.00086926 Ry

     iteration #  2     ecut=    40.00 Ry     beta=0.70
     Davidson diagonalization with overlap
     ethr =  9.66E-06,  avg # of iterations =  1.9

     total cpu time spent up to now is       26.0 secs

     total energy              =     -95.10609556 Ry
     Harris-Foulkes estimate   =     -95.10611328 Ry
     estimated scf accuracy    <       0.00009409 Ry

     iteration #  3     ecut=    40.00 Ry     beta=0.70
     Davidson diagonalization with overlap
     ethr =  1.05E-06,  avg # of iterations =  2.1

     total cpu time spent up to now is       32.2 secs

     total energy              =     -95.10610781 Ry
     Harris-Foulkes estimate   =     -95.10610853 Ry
     estimated scf accuracy    <       0.00000553 Ry

     iteration #  4     ecut=    40.00 Ry     beta=0.70
     Davidson diagonalization with overlap
     ethr =  6.15E-08,  avg # of iterations =  1.0

     total cpu time spent up to now is       37.5 secs

     total energy              =     -95.10610835 Ry
     Harris-Foulkes estimate   =     -95.10610830 Ry
     estimated scf accuracy    <       0.00000002 Ry

     iteration #  5     ecut=    40.00 Ry     beta=0.70
     Davidson diagonalization with overlap
     ethr =  1.86E-10,  avg # of iterations =  3.0

     total cpu time spent up to now is       44.8 secs

     End of self-consistent calculation

     Number of k-points >= 100: set verbosity='high' to print the bands.

     the Fermi energy is     1.2572 ev

!    total energy              =     -95.10610838 Ry
     Harris-Foulkes estimate   =     -95.10610838 Ry
     estimated scf accuracy    <          1.6E-09 Ry

     The total energy is the sum of the following terms:

     one-electron contribution =     -90.02060014 Ry
     hartree contribution      =      45.23533328 Ry
     xc contribution           =     -14.25762567 Ry
     ewald contribution        =     -36.06316497 Ry
     smearing contrib. (-TS)   =      -0.00005087 Ry

     convergence has been achieved in   5 iterations

     Forces acting on atoms (cartesian axes, Ry/au):

     atom    1 type  1   force =     0.00000000    0.00000000    0.00000000

     Total force =     0.000000     Total SCF correction =     0.000000


     Computing stress (Cartesian axis) and pressure

          total   stress  (Ry/bohr**3)                   (kbar)     P=   -8.13
  -0.00005529   0.00000000   0.00000000         -8.13      0.00      0.00
   0.00000000  -0.00005529  -0.00000000          0.00     -8.13     -0.00
   0.00000000  -0.00000000  -0.00005529          0.00     -0.00     -8.13


     BFGS Geometry Optimization

     number of scf cycles    =   1
     number of bfgs steps    =   0

     enthalpy new            =     -95.1246673904 Ry

     new trust radius        =       0.0010485499 bohr
     new conv_thr            =       0.0000000100 Ry

     new unit-cell volume =    273.27236 a.u.^3 (    40.49479 Ang^3 )
     density =      0.94273 g/cm^3

CELL_PARAMETERS (alat= 10.29787120)
  -0.500158649  -0.000000000   0.500158649
   0.000000000   0.500158649   0.500158649
  -0.500158649   0.500158649  -0.000000000

ATOMIC_POSITIONS (crystal)
Na       0.000000000   0.000000000   0.000000000



     Writing output data file na.fcc.save
     NEW-OLD atomic charge density approx. for the potential
     extrapolated charge    9.00856, renormalised to    9.00000

     total cpu time spent up to now is       48.0 secs

     per-process dynamical memory:    57.3 Mb

     Self-consistent Calculation

     iteration #  1     ecut=    40.00 Ry     beta=0.70
     Davidson diagonalization with overlap
     ethr =  1.00E-06,  avg # of iterations =  2.0

     total cpu time spent up to now is       54.8 secs

     total energy              =     -95.10604454 Ry
     Harris-Foulkes estimate   =     -95.03767046 Ry
     estimated scf accuracy    <       0.00002746 Ry

     iteration #  2     ecut=    40.00 Ry     beta=0.70
     Davidson diagonalization with overlap
     ethr =  3.05E-07,  avg # of iterations =  3.0

     total cpu time spent up to now is       61.9 secs

     total energy              =     -95.10609455 Ry
     Harris-Foulkes estimate   =     -95.10611468 Ry
     estimated scf accuracy    <       0.00004579 Ry

     iteration #  3     ecut=    40.00 Ry     beta=0.70
     Davidson diagonalization with overlap
     ethr =  3.05E-07,  avg # of iterations =  1.7

     total cpu time spent up to now is       67.5 secs

     total energy              =     -95.10609477 Ry
     Harris-Foulkes estimate   =     -95.10609754 Ry
     estimated scf accuracy    <       0.00000897 Ry

     iteration #  4     ecut=    40.00 Ry     beta=0.70
     Davidson diagonalization with overlap
     ethr =  9.97E-08,  avg # of iterations =  1.0

     total cpu time spent up to now is       72.8 secs

     total energy              =     -95.10609404 Ry
     Harris-Foulkes estimate   =     -95.10609516 Ry
     estimated scf accuracy    <       0.00000328 Ry

     iteration #  5     ecut=    40.00 Ry     beta=0.70
     Davidson diagonalization with overlap
     ethr =  3.65E-08,  avg # of iterations =  1.0

     total cpu time spent up to now is       78.1 secs

     total energy              =     -95.10609381 Ry
     Harris-Foulkes estimate   =     -95.10609417 Ry
     estimated scf accuracy    <       0.00000114 Ry

     iteration #  6     ecut=    40.00 Ry     beta=0.70
     Davidson diagonalization with overlap
     ethr =  1.27E-08,  avg # of iterations =  1.0

     total cpu time spent up to now is       83.4 secs

     total energy              =     -95.10609351 Ry
     Harris-Foulkes estimate   =     -95.10609385 Ry
     estimated scf accuracy    <       0.00000045 Ry

     iteration #  7     ecut=    40.00 Ry     beta=0.70
     Davidson diagonalization with overlap
     ethr =  5.00E-09,  avg # of iterations =  2.0

     total cpu time spent up to now is       89.7 secs

     total energy              =     -95.10609364 Ry
     Harris-Foulkes estimate   =     -95.10609365 Ry
     estimated scf accuracy    <       0.00000002 Ry

     iteration #  8     ecut=    40.00 Ry     beta=0.70
     Davidson diagonalization with overlap
     ethr =  2.71E-10,  avg # of iterations =  1.0

     total cpu time spent up to now is       94.9 secs

     End of self-consistent calculation

     Number of k-points >= 100: set verbosity='high' to print the bands.

     the Fermi energy is     1.2536 ev

!    total energy              =     -95.10609364 Ry
     Harris-Foulkes estimate   =     -95.10609364 Ry
     estimated scf accuracy    <          4.0E-09 Ry

     The total energy is the sum of the following terms:

     one-electron contribution =     -90.04037555 Ry
     hartree contribution      =      45.24348605 Ry
     xc contribution           =     -14.25742740 Ry
     ewald contribution        =     -36.05172582 Ry
     smearing contrib. (-TS)   =      -0.00005092 Ry

     convergence has been achieved in   8 iterations

     Forces acting on atoms (cartesian axes, Ry/au):

     atom    1 type  1   force =     0.00000000    0.00000000    0.00000000

     Total force =     0.000000     Total SCF correction =     0.000000


     Computing stress (Cartesian axis) and pressure

          total   stress  (Ry/bohr**3)                   (kbar)     P=   -8.83
  -0.00006003  -0.00000000  -0.00000000         -8.83     -0.00     -0.00
  -0.00000000  -0.00006003   0.00000000         -0.00     -8.83      0.00
  -0.00000000   0.00000000  -0.00006003         -0.00      0.00     -8.83


     number of scf cycles    =   2
     number of bfgs steps    =   1

     enthalpy old            =     -95.1246673904 Ry
     enthalpy new            =     -95.1246703211 Ry

     CASE: enthalpy_new < enthalpy_old

     new trust radius        =       0.0011535878 bohr
     new conv_thr            =            1.0E-10 Ry

     new unit-cell volume =    273.55851 a.u.^3 (    40.53719 Ang^3 )
     density =      0.94175 g/cm^3

CELL_PARAMETERS (alat= 10.29787120)
  -0.500333163   0.000000000   0.500333163
  -0.000000000   0.500333163   0.500333163
  -0.500333163   0.500333163   0.000000000

ATOMIC_POSITIONS (crystal)
Na       0.000000000   0.000000000   0.000000000



     Writing output data file na.fcc.save
     NEW-OLD atomic charge density approx. for the potential
     extrapolated charge    9.00941, renormalised to    9.00000

     total cpu time spent up to now is       98.1 secs

     per-process dynamical memory:    57.7 Mb

     Self-consistent Calculation

     iteration #  1     ecut=    40.00 Ry     beta=0.70
     Davidson diagonalization with overlap
     ethr =  1.00E-06,  avg # of iterations =  2.0

     total cpu time spent up to now is      105.0 secs

     total energy              =     -95.10601851 Ry
     Harris-Foulkes estimate   =     -95.03081930 Ry
     estimated scf accuracy    <       0.00003242 Ry

     iteration #  2     ecut=    40.00 Ry     beta=0.70
     Davidson diagonalization with overlap
     ethr =  3.60E-07,  avg # of iterations =  3.0

     total cpu time spent up to now is      111.9 secs

     total energy              =     -95.10607849 Ry
     Harris-Foulkes estimate   =     -95.10610259 Ry
     estimated scf accuracy    <       0.00005508 Ry

     iteration #  3     ecut=    40.00 Ry     beta=0.70
     Davidson diagonalization with overlap
     ethr =  3.60E-07,  avg # of iterations =  1.8

     total cpu time spent up to now is      117.6 secs

     total energy              =     -95.10607862 Ry
     Harris-Foulkes estimate   =     -95.10608205 Ry
     estimated scf accuracy    <       0.00001091 Ry

     iteration #  4     ecut=    40.00 Ry     beta=0.70
     Davidson diagonalization with overlap
     ethr =  1.21E-07,  avg # of iterations =  1.0

     total cpu time spent up to now is      122.8 secs

     total energy              =     -95.10607773 Ry
     Harris-Foulkes estimate   =     -95.10607909 Ry
     estimated scf accuracy    <       0.00000392 Ry

     iteration #  5     ecut=    40.00 Ry     beta=0.70
     Davidson diagonalization with overlap
     ethr =  4.36E-08,  avg # of iterations =  1.0

     total cpu time spent up to now is      128.0 secs

     total energy              =     -95.10607749 Ry
     Harris-Foulkes estimate   =     -95.10607789 Ry
     estimated scf accuracy    <       0.00000131 Ry

     iteration #  6     ecut=    40.00 Ry     beta=0.70
     Davidson diagonalization with overlap
     ethr =  1.46E-08,  avg # of iterations =  1.0

     total cpu time spent up to now is      133.3 secs

     total energy              =     -95.10607715 Ry
     Harris-Foulkes estimate   =     -95.10607753 Ry
     estimated scf accuracy    <       0.00000052 Ry

     iteration #  7     ecut=    40.00 Ry     beta=0.70
     Davidson diagonalization with overlap
     ethr =  5.77E-09,  avg # of iterations =  2.0

     total cpu time spent up to now is      139.7 secs

     total energy              =     -95.10607729 Ry
     Harris-Foulkes estimate   =     -95.10607729 Ry
     estimated scf accuracy    <          6.3E-09 Ry

     iteration #  8     ecut=    40.00 Ry     beta=0.70
     Davidson diagonalization with overlap
     ethr =  6.99E-11,  avg # of iterations =  1.1

     total cpu time spent up to now is      145.0 secs

     total energy              =     -95.10607729 Ry
     Harris-Foulkes estimate   =     -95.10607729 Ry
     estimated scf accuracy    <          5.2E-09 Ry

     iteration #  9     ecut=    40.00 Ry     beta=0.70
     Davidson diagonalization with overlap
     ethr =  5.73E-11,  avg # of iterations =  1.0

     total cpu time spent up to now is      150.3 secs

     total energy              =     -95.10607729 Ry
     Harris-Foulkes estimate   =     -95.10607729 Ry
     estimated scf accuracy    <          5.5E-10 Ry

     iteration # 10     ecut=    40.00 Ry     beta=0.70
     Davidson diagonalization with overlap
     ethr =  6.06E-12,  avg # of iterations =  1.0

     total cpu time spent up to now is      155.7 secs

     total energy              =     -95.10607729 Ry
     Harris-Foulkes estimate   =     -95.10607729 Ry
     estimated scf accuracy    <          5.3E-10 Ry

     iteration # 11     ecut=    40.00 Ry     beta=0.70
     Davidson diagonalization with overlap
     ethr =  5.90E-12,  avg # of iterations =  2.0

     total cpu time spent up to now is      162.0 secs

     End of self-consistent calculation

     Number of k-points >= 100: set verbosity='high' to print the bands.

     the Fermi energy is     1.2496 ev

!    total energy              =     -95.10607729 Ry
     Harris-Foulkes estimate   =     -95.10607729 Ry
     estimated scf accuracy    <          1.2E-11 Ry

     The total energy is the sum of the following terms:

     one-electron contribution =     -90.06282012 Ry
     hartree contribution      =      45.25331096 Ry
     xc contribution           =     -14.25736604 Ry
     ewald contribution        =     -36.03915112 Ry
     smearing contrib. (-TS)   =      -0.00005097 Ry

     convergence has been achieved in  11 iterations

     Forces acting on atoms (cartesian axes, Ry/au):

     atom    1 type  1   force =     0.00000000    0.00000000    0.00000000

     Total force =     0.000000     Total SCF correction =     0.000000


     Computing stress (Cartesian axis) and pressure

          total   stress  (Ry/bohr**3)                   (kbar)     P=   -8.42
  -0.00005724   0.00000000   0.00000000         -8.42      0.00      0.00
  -0.00000000  -0.00005724  -0.00000000         -0.00     -8.42     -0.00
   0.00000000  -0.00000000  -0.00005724          0.00     -0.00     -8.42


     number of scf cycles    =   3
     number of bfgs steps    =   2

     enthalpy old            =     -95.1246703211 Ry
     enthalpy new            =     -95.1246734184 Ry

     CASE: enthalpy_new < enthalpy_old


     WARNING: bfgs curvature condition failed, Theta= 0.520
     small trust_radius: resetting bfgs history

     new trust radius        =       0.0001000000 bohr
     new conv_thr            =            1.0E-10 Ry

     new unit-cell volume =    273.58332 a.u.^3 (    40.54087 Ang^3 )
     density =      0.94166 g/cm^3

CELL_PARAMETERS (alat= 10.29787120)
  -0.500348289   0.000000000   0.500348289
  -0.000000000   0.500348289   0.500348289
  -0.500348289   0.500348289   0.000000000

ATOMIC_POSITIONS (crystal)
Na       0.000000000   0.000000000   0.000000000



     Writing output data file na.fcc.save
     NEW-OLD atomic charge density approx. for the potential
     extrapolated charge    9.00082, renormalised to    9.00000

     total cpu time spent up to now is      165.3 secs

     per-process dynamical memory:    57.7 Mb

     Self-consistent Calculation

     iteration #  1     ecut=    40.00 Ry     beta=0.70
     Davidson diagonalization with overlap
     ethr =  1.00E-06,  avg # of iterations =  2.0

     Threshold (ethr) on eigenvalues was too large:
     Diagonalizing with lowered threshold

     Davidson diagonalization with overlap
     ethr =  2.78E-09,  avg # of iterations =  1.0

     total cpu time spent up to now is      176.7 secs

     total energy              =     -95.10607542 Ry
     Harris-Foulkes estimate   =     -95.09955218 Ry
     estimated scf accuracy    <       0.00000025 Ry

     iteration #  2     ecut=    40.00 Ry     beta=0.70
     Davidson diagonalization with overlap
     ethr =  2.78E-09,  avg # of iterations =  3.0

     total cpu time spent up to now is      183.9 secs

     total energy              =     -95.10607587 Ry
     Harris-Foulkes estimate   =     -95.10607605 Ry
     estimated scf accuracy    <       0.00000042 Ry

     iteration #  3     ecut=    40.00 Ry     beta=0.70
     Davidson diagonalization with overlap
     ethr =  2.78E-09,  avg # of iterations =  1.7

     total cpu time spent up to now is      189.5 secs

     total energy              =     -95.10607587 Ry
     Harris-Foulkes estimate   =     -95.10607590 Ry
     estimated scf accuracy    <       0.00000008 Ry

     iteration #  4     ecut=    40.00 Ry     beta=0.70
     Davidson diagonalization with overlap
     ethr =  9.00E-10,  avg # of iterations =  1.0

     total cpu time spent up to now is      194.8 secs

     total energy              =     -95.10607586 Ry
     Harris-Foulkes estimate   =     -95.10607587 Ry
     estimated scf accuracy    <       0.00000003 Ry

     iteration #  5     ecut=    40.00 Ry     beta=0.70
     Davidson diagonalization with overlap
     ethr =  3.29E-10,  avg # of iterations =  1.0

     total cpu time spent up to now is      200.2 secs

     total energy              =     -95.10607586 Ry
     Harris-Foulkes estimate   =     -95.10607587 Ry
     estimated scf accuracy    <       0.00000001 Ry

     iteration #  6     ecut=    40.00 Ry     beta=0.70
     Davidson diagonalization with overlap
     ethr =  1.15E-10,  avg # of iterations =  1.0

     total cpu time spent up to now is      205.5 secs

     total energy              =     -95.10607586 Ry
     Harris-Foulkes estimate   =     -95.10607586 Ry
     estimated scf accuracy    <          4.3E-09 Ry

     iteration #  7     ecut=    40.00 Ry     beta=0.70
     Davidson diagonalization with overlap
     ethr =  4.83E-11,  avg # of iterations =  2.0

     total cpu time spent up to now is      211.9 secs

     End of self-consistent calculation

     Number of k-points >= 100: set verbosity='high' to print the bands.

     the Fermi energy is     1.2492 ev

!    total energy              =     -95.10607586 Ry
     Harris-Foulkes estimate   =     -95.10607586 Ry
     estimated scf accuracy    <          4.0E-11 Ry

     The total energy is the sum of the following terms:

     one-electron contribution =     -90.06469920 Ry
     hartree contribution      =      45.25408194 Ry
     xc contribution           =     -14.25734596 Ry
     ewald contribution        =     -36.03806168 Ry
     smearing contrib. (-TS)   =      -0.00005097 Ry

     convergence has been achieved in   7 iterations

     Forces acting on atoms (cartesian axes, Ry/au):

     atom    1 type  1   force =     0.00000000    0.00000000    0.00000000

     Total force =     0.000000     Total SCF correction =     0.000000


     Computing stress (Cartesian axis) and pressure

          total   stress  (Ry/bohr**3)                   (kbar)     P=   -8.49
  -0.00005774   0.00000000   0.00000000         -8.49      0.00      0.00
   0.00000000  -0.00005774  -0.00000000          0.00     -8.49     -0.00
   0.00000000  -0.00000000  -0.00005774          0.00     -0.00     -8.49


     number of scf cycles    =   4
     number of bfgs steps    =   3

     enthalpy old            =     -95.1246734184 Ry
     enthalpy new            =     -95.1246736803 Ry

     CASE: enthalpy_new < enthalpy_old

     new trust radius        =       0.0001500023 bohr
     new conv_thr            =            1.0E-10 Ry

     new unit-cell volume =    273.62054 a.u.^3 (    40.54638 Ang^3 )
     density =      0.94153 g/cm^3

CELL_PARAMETERS (alat= 10.29787120)
  -0.500370977   0.000000000   0.500370977
  -0.000000000   0.500370977   0.500370977
  -0.500370977   0.500370977  -0.000000000

ATOMIC_POSITIONS (crystal)
Na       0.000000000   0.000000000   0.000000000



     Writing output data file na.fcc.save
     NEW-OLD atomic charge density approx. for the potential
     extrapolated charge    9.00122, renormalised to    9.00000

     total cpu time spent up to now is      215.1 secs

     per-process dynamical memory:    57.7 Mb

     Self-consistent Calculation

     iteration #  1     ecut=    40.00 Ry     beta=0.70
     Davidson diagonalization with overlap
     ethr =  1.00E-06,  avg # of iterations =  2.0

     Threshold (ethr) on eigenvalues was too large:
     Diagonalizing with lowered threshold

     Davidson diagonalization with overlap
     ethr =  6.10E-09,  avg # of iterations =  1.0

     total cpu time spent up to now is      226.6 secs

     total energy              =     -95.10607273 Ry
     Harris-Foulkes estimate   =     -95.09628839 Ry
     estimated scf accuracy    <       0.00000055 Ry

     iteration #  2     ecut=    40.00 Ry     beta=0.70
     Davidson diagonalization with overlap
     ethr =  6.10E-09,  avg # of iterations =  3.0

     total cpu time spent up to now is      233.7 secs

     total energy              =     -95.10607374 Ry
     Harris-Foulkes estimate   =     -95.10607415 Ry
     estimated scf accuracy    <       0.00000093 Ry

     iteration #  3     ecut=    40.00 Ry     beta=0.70
     Davidson diagonalization with overlap
     ethr =  6.10E-09,  avg # of iterations =  1.8

     total cpu time spent up to now is      239.4 secs

     total energy              =     -95.10607374 Ry
     Harris-Foulkes estimate   =     -95.10607380 Ry
     estimated scf accuracy    <       0.00000018 Ry

     iteration #  4     ecut=    40.00 Ry     beta=0.70
     Davidson diagonalization with overlap
     ethr =  2.04E-09,  avg # of iterations =  1.0

     total cpu time spent up to now is      244.7 secs

     total energy              =     -95.10607373 Ry
     Harris-Foulkes estimate   =     -95.10607375 Ry
     estimated scf accuracy    <       0.00000006 Ry

     iteration #  5     ecut=    40.00 Ry     beta=0.70
     Davidson diagonalization with overlap
     ethr =  7.15E-10,  avg # of iterations =  1.0

     total cpu time spent up to now is      250.0 secs

     total energy              =     -95.10607373 Ry
     Harris-Foulkes estimate   =     -95.10607373 Ry
     estimated scf accuracy    <       0.00000002 Ry

     iteration #  6     ecut=    40.00 Ry     beta=0.70
     Davidson diagonalization with overlap
     ethr =  2.37E-10,  avg # of iterations =  1.0

     total cpu time spent up to now is      255.3 secs

     total energy              =     -95.10607372 Ry
     Harris-Foulkes estimate   =     -95.10607373 Ry
     estimated scf accuracy    <          9.1E-09 Ry

     iteration #  7     ecut=    40.00 Ry     beta=0.70
     Davidson diagonalization with overlap
     ethr =  1.02E-10,  avg # of iterations =  2.0

     total cpu time spent up to now is      261.6 secs

     End of self-consistent calculation

     Number of k-points >= 100: set verbosity='high' to print the bands.

     the Fermi energy is     1.2487 ev

!    total energy              =     -95.10607372 Ry
     Harris-Foulkes estimate   =     -95.10607372 Ry
     estimated scf accuracy    <          4.8E-12 Ry

     The total energy is the sum of the following terms:

     one-electron contribution =     -90.06761265 Ry
     hartree contribution      =      45.25535478 Ry
     xc contribution           =     -14.25733724 Ry
     ewald contribution        =     -36.03642763 Ry
     smearing contrib. (-TS)   =      -0.00005098 Ry

     convergence has been achieved in   7 iterations

     Forces acting on atoms (cartesian axes, Ry/au):

     atom    1 type  1   force =     0.00000000    0.00000000    0.00000000

     Total force =     0.000000     Total SCF correction =     0.000000


     Computing stress (Cartesian axis) and pressure

          total   stress  (Ry/bohr**3)                   (kbar)     P=   -8.44
  -0.00005740  -0.00000000  -0.00000000         -8.44     -0.00     -0.00
  -0.00000000  -0.00005740   0.00000000         -0.00     -8.44      0.00
  -0.00000000   0.00000000  -0.00005740         -0.00      0.00     -8.44


     number of scf cycles    =   5
     number of bfgs steps    =   4

     enthalpy old            =     -95.1246736803 Ry
     enthalpy new            =     -95.1246740712 Ry

     CASE: enthalpy_new < enthalpy_old


     WARNING: bfgs curvature condition failed, Theta= 0.548
     uphill step: resetting bfgs history

     new trust radius        =       0.0002250085 bohr
     new conv_thr            =            1.0E-10 Ry

     new unit-cell volume =    273.67637 a.u.^3 (    40.55465 Ang^3 )
     density =      0.94134 g/cm^3

CELL_PARAMETERS (alat= 10.29787120)
  -0.500405009   0.000000000   0.500405009
  -0.000000000   0.500405009   0.500405009
  -0.500405009   0.500405009   0.000000000

ATOMIC_POSITIONS (crystal)
Na       0.000000000   0.000000000   0.000000000



     Writing output data file na.fcc.save
     NEW-OLD atomic charge density approx. for the potential
     extrapolated charge    9.00183, renormalised to    9.00000

     total cpu time spent up to now is      264.8 secs

     per-process dynamical memory:    57.7 Mb

     Self-consistent Calculation

     iteration #  1     ecut=    40.00 Ry     beta=0.70
     Davidson diagonalization with overlap
     ethr =  1.00E-06,  avg # of iterations =  2.0

     Threshold (ethr) on eigenvalues was too large:
     Diagonalizing with lowered threshold

     Davidson diagonalization with overlap
     ethr =  1.40E-08,  avg # of iterations =  1.0

     total cpu time spent up to now is      276.1 secs

     total energy              =     -95.10606826 Ry
     Harris-Foulkes estimate   =     -95.09139291 Ry
     estimated scf accuracy    <       0.00000126 Ry

     iteration #  2     ecut=    40.00 Ry     beta=0.70
     Davidson diagonalization with overlap
     ethr =  1.40E-08,  avg # of iterations =  3.0

     total cpu time spent up to now is      283.1 secs

     total energy              =     -95.10607055 Ry
     Harris-Foulkes estimate   =     -95.10607147 Ry
     estimated scf accuracy    <       0.00000210 Ry

     iteration #  3     ecut=    40.00 Ry     beta=0.70
     Davidson diagonalization with overlap
     ethr =  1.40E-08,  avg # of iterations =  1.7

     total cpu time spent up to now is      288.7 secs

     total energy              =     -95.10607056 Ry
     Harris-Foulkes estimate   =     -95.10607069 Ry
     estimated scf accuracy    <       0.00000041 Ry

     iteration #  4     ecut=    40.00 Ry     beta=0.70
     Davidson diagonalization with overlap
     ethr =  4.56E-09,  avg # of iterations =  1.0

     total cpu time spent up to now is      294.0 secs

     total energy              =     -95.10607053 Ry
     Harris-Foulkes estimate   =     -95.10607058 Ry
     estimated scf accuracy    <       0.00000015 Ry

     iteration #  5     ecut=    40.00 Ry     beta=0.70
     Davidson diagonalization with overlap
     ethr =  1.65E-09,  avg # of iterations =  1.0

     total cpu time spent up to now is      299.2 secs

     total energy              =     -95.10607052 Ry
     Harris-Foulkes estimate   =     -95.10607053 Ry
     estimated scf accuracy    <       0.00000005 Ry

     iteration #  6     ecut=    40.00 Ry     beta=0.70
     Davidson diagonalization with overlap
     ethr =  5.63E-10,  avg # of iterations =  1.0

     total cpu time spent up to now is      304.5 secs

     total energy              =     -95.10607050 Ry
     Harris-Foulkes estimate   =     -95.10607052 Ry
     estimated scf accuracy    <       0.00000002 Ry

     iteration #  7     ecut=    40.00 Ry     beta=0.70
     Davidson diagonalization with overlap
     ethr =  2.35E-10,  avg # of iterations =  2.0

     total cpu time spent up to now is      310.7 secs

     total energy              =     -95.10607051 Ry
     Harris-Foulkes estimate   =     -95.10607051 Ry
     estimated scf accuracy    <          2.1E-10 Ry

     iteration #  8     ecut=    40.00 Ry     beta=0.70
     Davidson diagonalization with overlap
     ethr =  2.39E-12,  avg # of iterations =  1.1

     total cpu time spent up to now is      316.0 secs

     total energy              =     -95.10607051 Ry
     Harris-Foulkes estimate   =     -95.10607051 Ry
     estimated scf accuracy    <          2.3E-10 Ry

     iteration #  9     ecut=    40.00 Ry     beta=0.70
     Davidson diagonalization with overlap
     ethr =  2.39E-12,  avg # of iterations =  2.0

     total cpu time spent up to now is      322.1 secs

     End of self-consistent calculation

     Number of k-points >= 100: set verbosity='high' to print the bands.

     the Fermi energy is     1.2480 ev

!    total energy              =     -95.10607051 Ry
     Harris-Foulkes estimate   =     -95.10607051 Ry
     estimated scf accuracy    <          1.1E-11 Ry

     The total energy is the sum of the following terms:

     one-electron contribution =     -90.07190442 Ry
     hartree contribution      =      45.25716860 Ry
     xc contribution           =     -14.25730687 Ry
     ewald contribution        =     -36.03397684 Ry
     smearing contrib. (-TS)   =      -0.00005099 Ry

     convergence has been achieved in   9 iterations

     Forces acting on atoms (cartesian axes, Ry/au):

     atom    1 type  1   force =     0.00000000    0.00000000    0.00000000

     Total force =     0.000000     Total SCF correction =     0.000000


     Computing stress (Cartesian axis) and pressure

          total   stress  (Ry/bohr**3)                   (kbar)     P=   -8.50
  -0.00005777   0.00000000   0.00000000         -8.50      0.00      0.00
   0.00000000  -0.00005777  -0.00000000          0.00     -8.50     -0.00
   0.00000000  -0.00000000  -0.00005777          0.00     -0.00     -8.50


     number of scf cycles    =   6
     number of bfgs steps    =   5

     enthalpy old            =     -95.1246740712 Ry
     enthalpy new            =     -95.1246746533 Ry

     CASE: enthalpy_new < enthalpy_old


     WARNING: bfgs curvature condition failed, Theta= 0.926
     new trust radius        =       0.0003375242 bohr
     new conv_thr            =            1.0E-10 Ry

     new unit-cell volume =    273.76014 a.u.^3 (    40.56707 Ang^3 )
     density =      0.94105 g/cm^3

CELL_PARAMETERS (alat= 10.29787120)
  -0.500456056  -0.000000000   0.500456056
   0.000000000   0.500456056   0.500456056
  -0.500456056   0.500456056  -0.000000000

ATOMIC_POSITIONS (crystal)
Na       0.000000000   0.000000000   0.000000000



     Writing output data file na.fcc.save
     NEW-OLD atomic charge density approx. for the potential
     extrapolated charge    9.00275, renormalised to    9.00000

     total cpu time spent up to now is      325.2 secs

     per-process dynamical memory:    57.7 Mb

     Self-consistent Calculation

     iteration #  1     ecut=    40.00 Ry     beta=0.70
     Davidson diagonalization with overlap
     ethr =  1.00E-06,  avg # of iterations =  2.0

     Threshold (ethr) on eigenvalues was too large:
     Diagonalizing with lowered threshold

     Davidson diagonalization with overlap
     ethr =  3.12E-08,  avg # of iterations =  1.0

     total cpu time spent up to now is      336.6 secs

     total energy              =     -95.10606063 Ry
     Harris-Foulkes estimate   =     -95.08405020 Ry
     estimated scf accuracy    <       0.00000281 Ry

     iteration #  2     ecut=    40.00 Ry     beta=0.70
     Davidson diagonalization with overlap
     ethr =  3.12E-08,  avg # of iterations =  3.0

     total cpu time spent up to now is      343.5 secs

     total energy              =     -95.10606577 Ry
     Harris-Foulkes estimate   =     -95.10606784 Ry
     estimated scf accuracy    <       0.00000472 Ry

     iteration #  3     ecut=    40.00 Ry     beta=0.70
     Davidson diagonalization with overlap
     ethr =  3.12E-08,  avg # of iterations =  1.8

     total cpu time spent up to now is      349.1 secs

     total energy              =     -95.10606579 Ry
     Harris-Foulkes estimate   =     -95.10606608 Ry
     estimated scf accuracy    <       0.00000093 Ry

     iteration #  4     ecut=    40.00 Ry     beta=0.70
     Davidson diagonalization with overlap
     ethr =  1.03E-08,  avg # of iterations =  1.0

     total cpu time spent up to now is      354.3 secs

     total energy              =     -95.10606572 Ry
     Harris-Foulkes estimate   =     -95.10606583 Ry
     estimated scf accuracy    <       0.00000033 Ry

     iteration #  5     ecut=    40.00 Ry     beta=0.70
     Davidson diagonalization with overlap
     ethr =  3.70E-09,  avg # of iterations =  1.0

     total cpu time spent up to now is      359.6 secs

     total energy              =     -95.10606570 Ry
     Harris-Foulkes estimate   =     -95.10606573 Ry
     estimated scf accuracy    <       0.00000011 Ry

     iteration #  6     ecut=    40.00 Ry     beta=0.70
     Davidson diagonalization with overlap
     ethr =  1.25E-09,  avg # of iterations =  1.0

     total cpu time spent up to now is      364.9 secs

     total energy              =     -95.10606567 Ry
     Harris-Foulkes estimate   =     -95.10606570 Ry
     estimated scf accuracy    <       0.00000005 Ry

     iteration #  7     ecut=    40.00 Ry     beta=0.70
     Davidson diagonalization with overlap
     ethr =  5.27E-10,  avg # of iterations =  2.0

     total cpu time spent up to now is      371.2 secs

     End of self-consistent calculation

     Number of k-points >= 100: set verbosity='high' to print the bands.

     the Fermi energy is     1.2468 ev

!    total energy              =     -95.10606568 Ry
     Harris-Foulkes estimate   =     -95.10606568 Ry
     estimated scf accuracy    <          7.9E-12 Ry

     The total energy is the sum of the following terms:

     one-electron contribution =     -90.07840304 Ry
     hartree contribution      =      45.25996444 Ry
     xc contribution           =     -14.25727481 Ry
     ewald contribution        =     -36.03030127 Ry
     smearing contrib. (-TS)   =      -0.00005100 Ry

     convergence has been achieved in   7 iterations

     Forces acting on atoms (cartesian axes, Ry/au):

     atom    1 type  1   force =     0.00000000    0.00000000    0.00000000

     Total force =     0.000000     Total SCF correction =     0.000000


     Computing stress (Cartesian axis) and pressure

          total   stress  (Ry/bohr**3)                   (kbar)     P=   -8.47
  -0.00005761   0.00000000  -0.00000000         -8.47      0.00     -0.00
  -0.00000000  -0.00005761   0.00000000         -0.00     -8.47      0.00
  -0.00000000   0.00000000  -0.00005761         -0.00      0.00     -8.47


     number of scf cycles    =   7
     number of bfgs steps    =   6

     enthalpy old            =     -95.1246746533 Ry
     enthalpy new            =     -95.1246755168 Ry

     CASE: enthalpy_new < enthalpy_old


     WARNING: bfgs curvature condition failed, Theta= 0.614
     uphill step: resetting bfgs history

     new trust radius        =       0.0005063122 bohr
     new conv_thr            =            1.0E-10 Ry

     new unit-cell volume =    273.88582 a.u.^3 (    40.58569 Ang^3 )
     density =      0.94062 g/cm^3

CELL_PARAMETERS (alat= 10.29787120)
  -0.500532628  -0.000000000   0.500532628
   0.000000000   0.500532628   0.500532628
  -0.500532628   0.500532628  -0.000000000

ATOMIC_POSITIONS (crystal)
Na       0.000000000   0.000000000   0.000000000



     Writing output data file na.fcc.save
     NEW-OLD atomic charge density approx. for the potential
     extrapolated charge    9.00413, renormalised to    9.00000

     total cpu time spent up to now is      374.4 secs

     per-process dynamical memory:    57.7 Mb

     Self-consistent Calculation

     iteration #  1     ecut=    40.00 Ry     beta=0.70
     Davidson diagonalization with overlap
     ethr =  1.00E-06,  avg # of iterations =  2.0

     Threshold (ethr) on eigenvalues was too large:
     Diagonalizing with lowered threshold

     Davidson diagonalization with overlap
     ethr =  7.06E-08,  avg # of iterations =  1.0

     total cpu time spent up to now is      385.9 secs

     total energy              =     -95.10604702 Ry
     Harris-Foulkes estimate   =     -95.07303725 Ry
     estimated scf accuracy    <       0.00000636 Ry

     iteration #  2     ecut=    40.00 Ry     beta=0.70
     Davidson diagonalization with overlap
     ethr =  7.07E-08,  avg # of iterations =  3.0

     total cpu time spent up to now is      392.9 secs

     total energy              =     -95.10605862 Ry
     Harris-Foulkes estimate   =     -95.10606329 Ry
     estimated scf accuracy    <       0.00001063 Ry

     iteration #  3     ecut=    40.00 Ry     beta=0.70
     Davidson diagonalization with overlap
     ethr =  7.07E-08,  avg # of iterations =  1.7

     total cpu time spent up to now is      398.5 secs

     total energy              =     -95.10605866 Ry
     Harris-Foulkes estimate   =     -95.10605931 Ry
     estimated scf accuracy    <       0.00000208 Ry

     iteration #  4     ecut=    40.00 Ry     beta=0.70
     Davidson diagonalization with overlap
     ethr =  2.31E-08,  avg # of iterations =  1.0

     total cpu time spent up to now is      403.7 secs

     total energy              =     -95.10605850 Ry
     Harris-Foulkes estimate   =     -95.10605875 Ry
     estimated scf accuracy    <       0.00000075 Ry

     iteration #  5     ecut=    40.00 Ry     beta=0.70
     Davidson diagonalization with overlap
     ethr =  8.35E-09,  avg # of iterations =  1.0

     total cpu time spent up to now is      409.0 secs

     total energy              =     -95.10605845 Ry
     Harris-Foulkes estimate   =     -95.10605853 Ry
     estimated scf accuracy    <       0.00000026 Ry

     iteration #  6     ecut=    40.00 Ry     beta=0.70
     Davidson diagonalization with overlap
     ethr =  2.84E-09,  avg # of iterations =  1.0

     total cpu time spent up to now is      414.2 secs

     total energy              =     -95.10605838 Ry
     Harris-Foulkes estimate   =     -95.10605846 Ry
     estimated scf accuracy    <       0.00000011 Ry

     iteration #  7     ecut=    40.00 Ry     beta=0.70
     Davidson diagonalization with overlap
     ethr =  1.18E-09,  avg # of iterations =  2.0

     total cpu time spent up to now is      420.5 secs

     total energy              =     -95.10605841 Ry
     Harris-Foulkes estimate   =     -95.10605841 Ry
     estimated scf accuracy    <          2.9E-10 Ry

     iteration #  8     ecut=    40.00 Ry     beta=0.70
     Davidson diagonalization with overlap
     ethr =  3.22E-12,  avg # of iterations =  2.0

     total cpu time spent up to now is      426.9 secs

     total energy              =     -95.10605841 Ry
     Harris-Foulkes estimate   =     -95.10605841 Ry
     estimated scf accuracy    <          1.1E-09 Ry

     iteration #  9     ecut=    40.00 Ry     beta=0.70
     Davidson diagonalization with overlap
     ethr =  3.22E-12,  avg # of iterations =  2.0

     total cpu time spent up to now is      433.2 secs

     total energy              =     -95.10605841 Ry
     Harris-Foulkes estimate   =     -95.10605841 Ry
     estimated scf accuracy    <          1.8E-10 Ry

     iteration # 10     ecut=    40.00 Ry     beta=0.70
     Davidson diagonalization with overlap
     ethr =  2.02E-12,  avg # of iterations =  2.0

     total cpu time spent up to now is      439.3 secs

     End of self-consistent calculation

     Number of k-points >= 100: set verbosity='high' to print the bands.

     the Fermi energy is     1.2451 ev

!    total energy              =     -95.10605841 Ry
     Harris-Foulkes estimate   =     -95.10605841 Ry
     estimated scf accuracy    <          2.0E-12 Ry

     The total energy is the sum of the following terms:

     one-electron contribution =     -90.08809276 Ry
     hartree contribution      =      45.26408956 Ry
     xc contribution           =     -14.25721486 Ry
     ewald contribution        =     -36.02478933 Ry
     smearing contrib. (-TS)   =      -0.00005102 Ry

     convergence has been achieved in  10 iterations

     Forces acting on atoms (cartesian axes, Ry/au):

     atom    1 type  1   force =     0.00000000    0.00000000    0.00000000

     Total force =     0.000000     Total SCF correction =     0.000000


     Computing stress (Cartesian axis) and pressure

          total   stress  (Ry/bohr**3)                   (kbar)     P=   -8.53
  -0.00005802   0.00000000  -0.00000000         -8.53      0.00     -0.00
   0.00000000  -0.00005802  -0.00000000          0.00     -8.53     -0.00
  -0.00000000  -0.00000000  -0.00005802         -0.00     -0.00     -8.53


     number of scf cycles    =   8
     number of bfgs steps    =   7

     enthalpy old            =     -95.1246755168 Ry
     enthalpy new            =     -95.1246767903 Ry

     CASE: enthalpy_new < enthalpy_old


     WARNING: bfgs curvature condition failed, Theta= 0.857
     new trust radius        =       0.0007595264 bohr
     new conv_thr            =            1.0E-10 Ry

     new unit-cell volume =    274.07441 a.u.^3 (    40.61364 Ang^3 )
     density =      0.93997 g/cm^3

CELL_PARAMETERS (alat= 10.29787120)
  -0.500647486  -0.000000000   0.500647486
   0.000000000   0.500647486   0.500647486
  -0.500647486   0.500647486  -0.000000000

ATOMIC_POSITIONS (crystal)
Na       0.000000000   0.000000000   0.000000000



     Writing output data file na.fcc.save
     NEW-OLD atomic charge density approx. for the potential
     extrapolated charge    9.00619, renormalised to    9.00000

     total cpu time spent up to now is      442.5 secs

     per-process dynamical memory:    57.7 Mb

     Self-consistent Calculation

     iteration #  1     ecut=    40.00 Ry     beta=0.70
     Davidson diagonalization with overlap
     ethr =  1.00E-06,  avg # of iterations =  2.0

     total cpu time spent up to now is      449.1 secs

     total energy              =     -95.10602184 Ry
     Harris-Foulkes estimate   =     -95.05652033 Ry
     estimated scf accuracy    <       0.00001428 Ry

     iteration #  2     ecut=    40.00 Ry     beta=0.70
     Davidson diagonalization with overlap
     ethr =  1.59E-07,  avg # of iterations =  3.0

     total cpu time spent up to now is      456.1 secs

     total energy              =     -95.10604793 Ry
     Harris-Foulkes estimate   =     -95.10605843 Ry
     estimated scf accuracy    <       0.00002391 Ry

     iteration #  3     ecut=    40.00 Ry     beta=0.70
     Davidson diagonalization with overlap
     ethr =  1.59E-07,  avg # of iterations =  1.7

     total cpu time spent up to now is      461.7 secs

     total energy              =     -95.10604804 Ry
     Harris-Foulkes estimate   =     -95.10604949 Ry
     estimated scf accuracy    <       0.00000469 Ry

     iteration #  4     ecut=    40.00 Ry     beta=0.70
     Davidson diagonalization with overlap
     ethr =  5.21E-08,  avg # of iterations =  1.0

     total cpu time spent up to now is      467.0 secs

     total energy              =     -95.10604765 Ry
     Harris-Foulkes estimate   =     -95.10604824 Ry
     estimated scf accuracy    <       0.00000172 Ry

     iteration #  5     ecut=    40.00 Ry     beta=0.70
     Davidson diagonalization with overlap
     ethr =  1.91E-08,  avg # of iterations =  1.0

     total cpu time spent up to now is      472.3 secs

     total energy              =     -95.10604753 Ry
     Harris-Foulkes estimate   =     -95.10604772 Ry
     estimated scf accuracy    <       0.00000059 Ry

     iteration #  6     ecut=    40.00 Ry     beta=0.70
     Davidson diagonalization with overlap
     ethr =  6.54E-09,  avg # of iterations =  1.0

     total cpu time spent up to now is      477.6 secs

     total energy              =     -95.10604740 Ry
     Harris-Foulkes estimate   =     -95.10604755 Ry
     estimated scf accuracy    <       0.00000023 Ry

     iteration #  7     ecut=    40.00 Ry     beta=0.70
     Davidson diagonalization with overlap
     ethr =  2.52E-09,  avg # of iterations =  2.0

     total cpu time spent up to now is      483.9 secs

     End of self-consistent calculation

     Number of k-points >= 100: set verbosity='high' to print the bands.

     the Fermi energy is     1.2425 ev

!    total energy              =     -95.10604745 Ry
     Harris-Foulkes estimate   =     -95.10604745 Ry
     estimated scf accuracy    <          6.1E-11 Ry

     The total energy is the sum of the following terms:

     one-electron contribution =     -90.10262285 Ry
     hartree contribution      =      45.27027527 Ry
     xc contribution           =     -14.25712425 Ry
     ewald contribution        =     -36.01652457 Ry
     smearing contrib. (-TS)   =      -0.00005105 Ry

     convergence has been achieved in   7 iterations

     Forces acting on atoms (cartesian axes, Ry/au):

     atom    1 type  1   force =     0.00000000    0.00000000    0.00000000

     Total force =     0.000000     Total SCF correction =     0.000000


     Computing stress (Cartesian axis) and pressure

          total   stress  (Ry/bohr**3)                   (kbar)     P=   -8.62
  -0.00005861  -0.00000000  -0.00000000         -8.62     -0.00     -0.00
  -0.00000000  -0.00005861   0.00000000         -0.00     -8.62      0.00
  -0.00000000   0.00000000  -0.00005861         -0.00      0.00     -8.62


     number of scf cycles    =   9
     number of bfgs steps    =   8

     enthalpy old            =     -95.1246767903 Ry
     enthalpy new            =     -95.1246786517 Ry

     CASE: enthalpy_new < enthalpy_old

     new trust radius        =       0.0011394202 bohr
     new conv_thr            =            1.0E-10 Ry

     new unit-cell volume =    274.35745 a.u.^3 (    40.65558 Ang^3 )
     density =      0.93900 g/cm^3

CELL_PARAMETERS (alat= 10.29787120)
  -0.500819773  -0.000000000   0.500819773
  -0.000000000   0.500819773   0.500819773
  -0.500819773   0.500819773  -0.000000000

ATOMIC_POSITIONS (crystal)
Na       0.000000000   0.000000000   0.000000000



     Writing output data file na.fcc.save
     NEW-OLD atomic charge density approx. for the potential
     extrapolated charge    9.00928, renormalised to    9.00000

     total cpu time spent up to now is      487.0 secs

     per-process dynamical memory:    57.7 Mb

     Self-consistent Calculation

     iteration #  1     ecut=    40.00 Ry     beta=0.70
     Davidson diagonalization with overlap
     ethr =  1.00E-06,  avg # of iterations =  2.0

     total cpu time spent up to now is      493.9 secs

     total energy              =     -95.10597328 Ry
     Harris-Foulkes estimate   =     -95.03175066 Ry
     estimated scf accuracy    <       0.00003209 Ry

     iteration #  2     ecut=    40.00 Ry     beta=0.70
     Davidson diagonalization with overlap
     ethr =  3.57E-07,  avg # of iterations =  3.0

     total cpu time spent up to now is      500.9 secs

     total energy              =     -95.10603199 Ry
     Harris-Foulkes estimate   =     -95.10605561 Ry
     estimated scf accuracy    <       0.00005380 Ry

     iteration #  3     ecut=    40.00 Ry     beta=0.70
     Davidson diagonalization with overlap
     ethr =  3.57E-07,  avg # of iterations =  1.7

     total cpu time spent up to now is      506.5 secs

     total energy              =     -95.10603220 Ry
     Harris-Foulkes estimate   =     -95.10603549 Ry
     estimated scf accuracy    <       0.00001057 Ry

     iteration #  4     ecut=    40.00 Ry     beta=0.70
     Davidson diagonalization with overlap
     ethr =  1.17E-07,  avg # of iterations =  1.0

     total cpu time spent up to now is      511.7 secs

     total energy              =     -95.10603134 Ry
     Harris-Foulkes estimate   =     -95.10603266 Ry
     estimated scf accuracy    <       0.00000383 Ry

     iteration #  5     ecut=    40.00 Ry     beta=0.70
     Davidson diagonalization with overlap
     ethr =  4.26E-08,  avg # of iterations =  1.0

     total cpu time spent up to now is      517.0 secs

     total energy              =     -95.10603109 Ry
     Harris-Foulkes estimate   =     -95.10603149 Ry
     estimated scf accuracy    <       0.00000131 Ry

     iteration #  6     ecut=    40.00 Ry     beta=0.70
     Davidson diagonalization with overlap
     ethr =  1.45E-08,  avg # of iterations =  1.0

     total cpu time spent up to now is      522.3 secs

     total energy              =     -95.10603078 Ry
     Harris-Foulkes estimate   =     -95.10603113 Ry
     estimated scf accuracy    <       0.00000052 Ry

     iteration #  7     ecut=    40.00 Ry     beta=0.70
     Davidson diagonalization with overlap
     ethr =  5.78E-09,  avg # of iterations =  2.0

     total cpu time spent up to now is      528.6 secs

     End of self-consistent calculation

     Number of k-points >= 100: set verbosity='high' to print the bands.

     the Fermi energy is     1.2386 ev

!    total energy              =     -95.10603089 Ry
     Harris-Foulkes estimate   =     -95.10603089 Ry
     estimated scf accuracy    <          2.2E-11 Ry

     The total energy is the sum of the following terms:

     one-electron contribution =     -90.12449163 Ry
     hartree contribution      =      45.27965440 Ry
     xc contribution           =     -14.25700801 Ry
     ewald contribution        =     -36.00413455 Ry
     smearing contrib. (-TS)   =      -0.00005110 Ry

     convergence has been achieved in   7 iterations

     Forces acting on atoms (cartesian axes, Ry/au):

     atom    1 type  1   force =     0.00000000    0.00000000    0.00000000

     Total force =     0.000000     Total SCF correction =     0.000000


     Computing stress (Cartesian axis) and pressure

          total   stress  (Ry/bohr**3)                   (kbar)     P=   -8.61
  -0.00005853  -0.00000000  -0.00000000         -8.61     -0.00     -0.00
  -0.00000000  -0.00005853  -0.00000000         -0.00     -8.61     -0.00
  -0.00000000  -0.00000000  -0.00005853         -0.00     -0.00     -8.61


     number of scf cycles    =  10
     number of bfgs steps    =   9

     enthalpy old            =     -95.1246786517 Ry
     enthalpy new            =     -95.1246813343 Ry

     CASE: enthalpy_new < enthalpy_old


     WARNING: bfgs curvature condition failed, Theta= 0.728
     uphill step: resetting bfgs history

     new trust radius        =       0.0007828539 bohr
     new conv_thr            =            1.0E-10 Ry

     new unit-cell volume =    274.55200 a.u.^3 (    40.68441 Ang^3 )
     density =      0.93834 g/cm^3

CELL_PARAMETERS (alat= 10.29787120)
  -0.500938124   0.000000000   0.500938124
  -0.000000000   0.500938124   0.500938124
  -0.500938124   0.500938124  -0.000000000

ATOMIC_POSITIONS (crystal)
Na       0.000000000   0.000000000   0.000000000



     Writing output data file na.fcc.save
     NEW-OLD atomic charge density approx. for the potential
     extrapolated charge    9.00637, renormalised to    9.00000

     total cpu time spent up to now is      531.8 secs

     per-process dynamical memory:    57.7 Mb

     Self-consistent Calculation

     iteration #  1     ecut=    40.00 Ry     beta=0.70
     Davidson diagonalization with overlap
     ethr =  1.00E-06,  avg # of iterations =  2.0

     total cpu time spent up to now is      538.4 secs

     total energy              =     -95.10599224 Ry
     Harris-Foulkes estimate   =     -95.05499313 Ry
     estimated scf accuracy    <       0.00001518 Ry

     iteration #  2     ecut=    40.00 Ry     beta=0.70
     Davidson diagonalization with overlap
     ethr =  1.69E-07,  avg # of iterations =  3.0

     total cpu time spent up to now is      545.4 secs

     total energy              =     -95.10601994 Ry
     Harris-Foulkes estimate   =     -95.10603109 Ry
     estimated scf accuracy    <       0.00002537 Ry

     iteration #  3     ecut=    40.00 Ry     beta=0.70
     Davidson diagonalization with overlap
     ethr =  1.69E-07,  avg # of iterations =  1.7

     total cpu time spent up to now is      551.0 secs

     total energy              =     -95.10602005 Ry
     Harris-Foulkes estimate   =     -95.10602160 Ry
     estimated scf accuracy    <       0.00000498 Ry

     iteration #  4     ecut=    40.00 Ry     beta=0.70
     Davidson diagonalization with overlap
     ethr =  5.53E-08,  avg # of iterations =  1.0

     total cpu time spent up to now is      556.2 secs

     total energy              =     -95.10601964 Ry
     Harris-Foulkes estimate   =     -95.10602027 Ry
     estimated scf accuracy    <       0.00000181 Ry

     iteration #  5     ecut=    40.00 Ry     beta=0.70
     Davidson diagonalization with overlap
     ethr =  2.01E-08,  avg # of iterations =  1.0

     total cpu time spent up to now is      561.5 secs

     total energy              =     -95.10601952 Ry
     Harris-Foulkes estimate   =     -95.10601971 Ry
     estimated scf accuracy    <       0.00000061 Ry

     iteration #  6     ecut=    40.00 Ry     beta=0.70
     Davidson diagonalization with overlap
     ethr =  6.81E-09,  avg # of iterations =  1.0

     total cpu time spent up to now is      566.7 secs

     total energy              =     -95.10601937 Ry
     Harris-Foulkes estimate   =     -95.10601954 Ry
     estimated scf accuracy    <       0.00000024 Ry

     iteration #  7     ecut=    40.00 Ry     beta=0.70
     Davidson diagonalization with overlap
     ethr =  2.65E-09,  avg # of iterations =  2.0

     total cpu time spent up to now is      572.9 secs

     total energy              =     -95.10601943 Ry
     Harris-Foulkes estimate   =     -95.10601943 Ry
     estimated scf accuracy    <          1.8E-09 Ry

     iteration #  8     ecut=    40.00 Ry     beta=0.70
     Davidson diagonalization with overlap
     ethr =  2.04E-11,  avg # of iterations =  1.3

     total cpu time spent up to now is      578.3 secs

     total energy              =     -95.10601943 Ry
     Harris-Foulkes estimate   =     -95.10601943 Ry
     estimated scf accuracy    <          2.7E-09 Ry

     iteration #  9     ecut=    40.00 Ry     beta=0.70
     Davidson diagonalization with overlap
     ethr =  2.04E-11,  avg # of iterations =  2.0

     total cpu time spent up to now is      584.4 secs

     total energy              =     -95.10601943 Ry
     Harris-Foulkes estimate   =     -95.10601943 Ry
     estimated scf accuracy    <          3.0E-10 Ry

     iteration # 10     ecut=    40.00 Ry     beta=0.70
     Davidson diagonalization with overlap
     ethr =  3.33E-12,  avg # of iterations =  1.0

     total cpu time spent up to now is      589.7 secs

     total energy              =     -95.10601943 Ry
     Harris-Foulkes estimate   =     -95.10601943 Ry
     estimated scf accuracy    <          3.6E-10 Ry

     iteration # 11     ecut=    40.00 Ry     beta=0.70
     Davidson diagonalization with overlap
     ethr =  3.33E-12,  avg # of iterations =  2.0

     total cpu time spent up to now is      596.0 secs

     End of self-consistent calculation

     Number of k-points >= 100: set verbosity='high' to print the bands.

     the Fermi energy is     1.2359 ev

!    total energy              =     -95.10601943 Ry
     Harris-Foulkes estimate   =     -95.10601943 Ry
     estimated scf accuracy    <          1.4E-13 Ry

     The total energy is the sum of the following terms:

     one-electron contribution =     -90.13945313 Ry
     hartree contribution      =      45.28603050 Ry
     xc contribution           =     -14.25691745 Ry
     ewald contribution        =     -35.99562822 Ry
     smearing contrib. (-TS)   =      -0.00005113 Ry

     convergence has been achieved in  11 iterations

     Forces acting on atoms (cartesian axes, Ry/au):

     atom    1 type  1   force =     0.00000000    0.00000000    0.00000000

     Total force =     0.000000     Total SCF correction =     0.000000


     Computing stress (Cartesian axis) and pressure

          total   stress  (Ry/bohr**3)                   (kbar)     P=   -8.69
  -0.00005906  -0.00000000   0.00000000         -8.69     -0.00      0.00
  -0.00000000  -0.00005906  -0.00000000         -0.00     -8.69     -0.00
   0.00000000  -0.00000000  -0.00005906          0.00     -0.00     -8.69


     number of scf cycles    =  11
     number of bfgs steps    =  10

     enthalpy old            =     -95.1246813343 Ry
     enthalpy new            =     -95.1246831012 Ry

     CASE: enthalpy_new < enthalpy_old


     WARNING: bfgs curvature condition failed, Theta= 0.848
     new trust radius        =       0.0008612411 bohr
     new conv_thr            =            1.0E-10 Ry

     new unit-cell volume =    274.76612 a.u.^3 (    40.71614 Ang^3 )
     density =      0.93761 g/cm^3

CELL_PARAMETERS (alat= 10.29787120)
  -0.501068311   0.000000000   0.501068311
  -0.000000000   0.501068311   0.501068311
  -0.501068311   0.501068311  -0.000000000

ATOMIC_POSITIONS (crystal)
Na       0.000000000   0.000000000   0.000000000



     Writing output data file na.fcc.save
     NEW-OLD atomic charge density approx. for the potential
     extrapolated charge    9.00701, renormalised to    9.00000

     total cpu time spent up to now is      599.2 secs

     per-process dynamical memory:    57.7 Mb

     Self-consistent Calculation

     iteration #  1     ecut=    40.00 Ry     beta=0.70
     Davidson diagonalization with overlap
     ethr =  1.00E-06,  avg # of iterations =  2.0

     total cpu time spent up to now is      606.0 secs

     total energy              =     -95.10597388 Ry
     Harris-Foulkes estimate   =     -95.04988201 Ry
     estimated scf accuracy    <       0.00001833 Ry

     iteration #  2     ecut=    40.00 Ry     beta=0.70
     Davidson diagonalization with overlap
     ethr =  2.04E-07,  avg # of iterations =  3.0

     total cpu time spent up to now is      613.0 secs

     total energy              =     -95.10600737 Ry
     Harris-Foulkes estimate   =     -95.10602084 Ry
     estimated scf accuracy    <       0.00003068 Ry

     iteration #  3     ecut=    40.00 Ry     beta=0.70
     Davidson diagonalization with overlap
     ethr =  2.04E-07,  avg # of iterations =  1.7

     total cpu time spent up to now is      618.6 secs

     total energy              =     -95.10600750 Ry
     Harris-Foulkes estimate   =     -95.10600937 Ry
     estimated scf accuracy    <       0.00000602 Ry

     iteration #  4     ecut=    40.00 Ry     beta=0.70
     Davidson diagonalization with overlap
     ethr =  6.69E-08,  avg # of iterations =  1.0

     total cpu time spent up to now is      624.4 secs

     total energy              =     -95.10600701 Ry
     Harris-Foulkes estimate   =     -95.10600776 Ry
     estimated scf accuracy    <       0.00000219 Ry

     iteration #  5     ecut=    40.00 Ry     beta=0.70
     Davidson diagonalization with overlap
     ethr =  2.44E-08,  avg # of iterations =  1.0

     total cpu time spent up to now is      629.5 secs

     total energy              =     -95.10600686 Ry
     Harris-Foulkes estimate   =     -95.10600709 Ry
     estimated scf accuracy    <       0.00000075 Ry

     iteration #  6     ecut=    40.00 Ry     beta=0.70
     Davidson diagonalization with overlap
     ethr =  8.35E-09,  avg # of iterations =  1.0

     total cpu time spent up to now is      634.6 secs

     total energy              =     -95.10600669 Ry
     Harris-Foulkes estimate   =     -95.10600689 Ry
     estimated scf accuracy    <       0.00000029 Ry

     iteration #  7     ecut=    40.00 Ry     beta=0.70
     Davidson diagonalization with overlap
     ethr =  3.26E-09,  avg # of iterations =  2.0

     total cpu time spent up to now is      640.6 secs

     End of self-consistent calculation

     Number of k-points >= 100: set verbosity='high' to print the bands.

     the Fermi energy is     1.2330 ev

!    total energy              =     -95.10600675 Ry
     Harris-Foulkes estimate   =     -95.10600675 Ry
     estimated scf accuracy    <          4.4E-11 Ry

     The total energy is the sum of the following terms:

     one-electron contribution =     -90.15595549 Ry
     hartree contribution      =      45.29310402 Ry
     xc contribution           =     -14.25682821 Ry
     ewald contribution        =     -35.98627590 Ry
     smearing contrib. (-TS)   =      -0.00005117 Ry

     convergence has been achieved in   7 iterations

     Forces acting on atoms (cartesian axes, Ry/au):

     atom    1 type  1   force =     0.00000000    0.00000000    0.00000000

     Total force =     0.000000     Total SCF correction =     0.000000


     Computing stress (Cartesian axis) and pressure

          total   stress  (Ry/bohr**3)                   (kbar)     P=   -8.69
  -0.00005907   0.00000000   0.00000000         -8.69      0.00      0.00
   0.00000000  -0.00005907   0.00000000          0.00     -8.69      0.00
   0.00000000   0.00000000  -0.00005907          0.00      0.00     -8.69


     number of scf cycles    =  12
     number of bfgs steps    =  11

     enthalpy old            =     -95.1246831012 Ry
     enthalpy new            =     -95.1246849734 Ry

     CASE: enthalpy_new < enthalpy_old


     WARNING: bfgs curvature condition failed, Theta= 0.798
     new trust radius        =       0.0012920295 bohr
     new conv_thr            =            1.0E-10 Ry

     new unit-cell volume =    275.08749 a.u.^3 (    40.76376 Ang^3 )
     density =      0.93651 g/cm^3

CELL_PARAMETERS (alat= 10.29787120)
  -0.501263591   0.000000000   0.501263591
  -0.000000000   0.501263591   0.501263591
  -0.501263591   0.501263591  -0.000000000

ATOMIC_POSITIONS (crystal)
Na       0.000000000   0.000000000   0.000000000



     Writing output data file na.fcc.save
     NEW-OLD atomic charge density approx. for the potential
     extrapolated charge    9.01051, renormalised to    9.00000

     total cpu time spent up to now is      643.8 secs

     per-process dynamical memory:    57.7 Mb

     Self-consistent Calculation

     iteration #  1     ecut=    40.00 Ry     beta=0.70
     Davidson diagonalization with overlap
     ethr =  1.00E-06,  avg # of iterations =  2.0

     total cpu time spent up to now is      650.5 secs

     total energy              =     -95.10591352 Ry
     Harris-Foulkes estimate   =     -95.02181388 Ry
     estimated scf accuracy    <       0.00004134 Ry

     iteration #  2     ecut=    40.00 Ry     beta=0.70
     Davidson diagonalization with overlap
     ethr =  4.59E-07,  avg # of iterations =  3.0

     total cpu time spent up to now is      657.3 secs

     total energy              =     -95.10598897 Ry
     Harris-Foulkes estimate   =     -95.10601932 Ry
     estimated scf accuracy    <       0.00006911 Ry

     iteration #  3     ecut=    40.00 Ry     beta=0.70
     Davidson diagonalization with overlap
     ethr =  4.59E-07,  avg # of iterations =  1.7

     total cpu time spent up to now is      662.7 secs

     total energy              =     -95.10598925 Ry
     Harris-Foulkes estimate   =     -95.10599347 Ry
     estimated scf accuracy    <       0.00001356 Ry

     iteration #  4     ecut=    40.00 Ry     beta=0.70
     Davidson diagonalization with overlap
     ethr =  1.51E-07,  avg # of iterations =  1.0

     total cpu time spent up to now is      667.8 secs

     total energy              =     -95.10598816 Ry
     Harris-Foulkes estimate   =     -95.10598985 Ry
     estimated scf accuracy    <       0.00000493 Ry

     iteration #  5     ecut=    40.00 Ry     beta=0.70
     Davidson diagonalization with overlap
     ethr =  5.47E-08,  avg # of iterations =  1.0

     total cpu time spent up to now is      672.9 secs

     total energy              =     -95.10598783 Ry
     Harris-Foulkes estimate   =     -95.10598835 Ry
     estimated scf accuracy    <       0.00000169 Ry

     iteration #  6     ecut=    40.00 Ry     beta=0.70
     Davidson diagonalization with overlap
     ethr =  1.88E-08,  avg # of iterations =  1.0

     total cpu time spent up to now is      678.0 secs

     total energy              =     -95.10598742 Ry
     Harris-Foulkes estimate   =     -95.10598788 Ry
     estimated scf accuracy    <       0.00000067 Ry

     iteration #  7     ecut=    40.00 Ry     beta=0.70
     Davidson diagonalization with overlap
     ethr =  7.44E-09,  avg # of iterations =  2.0

     total cpu time spent up to now is      684.1 secs

     total energy              =     -95.10598757 Ry
     Harris-Foulkes estimate   =     -95.10598757 Ry
     estimated scf accuracy    <          1.6E-09 Ry

     iteration #  8     ecut=    40.00 Ry     beta=0.70
     Davidson diagonalization with overlap
     ethr =  1.80E-11,  avg # of iterations =  2.1

     total cpu time spent up to now is      690.3 secs

     total energy              =     -95.10598757 Ry
     Harris-Foulkes estimate   =     -95.10598757 Ry
     estimated scf accuracy    <          7.4E-09 Ry

     iteration #  9     ecut=    40.00 Ry     beta=0.70
     Davidson diagonalization with overlap
     ethr =  1.80E-11,  avg # of iterations =  2.0

     total cpu time spent up to now is      696.4 secs

     total energy              =     -95.10598757 Ry
     Harris-Foulkes estimate   =     -95.10598757 Ry
     estimated scf accuracy    <          1.4E-09 Ry

     iteration # 10     ecut=    40.00 Ry     beta=0.70
     Davidson diagonalization with overlap
     ethr =  1.61E-11,  avg # of iterations =  2.0

     total cpu time spent up to now is      702.3 secs

     End of self-consistent calculation

     Number of k-points >= 100: set verbosity='high' to print the bands.

     the Fermi energy is     1.2286 ev

!    total energy              =     -95.10598757 Ry
     Harris-Foulkes estimate   =     -95.10598757 Ry
     estimated scf accuracy    <          3.6E-11 Ry

     The total energy is the sum of the following terms:

     one-electron contribution =     -90.18058967 Ry
     hartree contribution      =      45.30358241 Ry
     xc contribution           =     -14.25667255 Ry
     ewald contribution        =     -35.97225653 Ry
     smearing contrib. (-TS)   =      -0.00005122 Ry

     convergence has been achieved in  10 iterations

     Forces acting on atoms (cartesian axes, Ry/au):

     atom    1 type  1   force =     0.00000000    0.00000000    0.00000000

     Total force =     0.000000     Total SCF correction =     0.000000


     Computing stress (Cartesian axis) and pressure

          total   stress  (Ry/bohr**3)                   (kbar)     P=   -8.86
  -0.00006024  -0.00000000  -0.00000000         -8.86     -0.00     -0.00
   0.00000000  -0.00006024   0.00000000          0.00     -8.86      0.00
  -0.00000000   0.00000000  -0.00006024         -0.00      0.00     -8.86


     number of scf cycles    =  13
     number of bfgs steps    =  12

     enthalpy old            =     -95.1246849734 Ry
     enthalpy new            =     -95.1246876422 Ry

     CASE: enthalpy_new < enthalpy_old

     new trust radius        =       0.0019384218 bohr
     new conv_thr            =            1.0E-10 Ry

     new unit-cell volume =    275.57003 a.u.^3 (    40.83526 Ang^3 )
     density =      0.93487 g/cm^3

CELL_PARAMETERS (alat= 10.29787120)
  -0.501556511   0.000000000   0.501556511
  -0.000000000   0.501556511   0.501556511
  -0.501556511   0.501556511  -0.000000000

ATOMIC_POSITIONS (crystal)
Na       0.000000000   0.000000000   0.000000000



     Writing output data file na.fcc.save
     NEW-OLD atomic charge density approx. for the potential
     extrapolated charge    9.01575, renormalised to    9.00000

     total cpu time spent up to now is      705.4 secs

     per-process dynamical memory:    57.7 Mb

     Self-consistent Calculation

     iteration #  1     ecut=    40.00 Ry     beta=0.70
     Davidson diagonalization with overlap
     ethr =  1.00E-06,  avg # of iterations =  2.0

     total cpu time spent up to now is      712.3 secs

     total energy              =     -95.10579192 Ry
     Harris-Foulkes estimate   =     -94.97972821 Ry
     estimated scf accuracy    <       0.00009280 Ry

     iteration #  2     ecut=    40.00 Ry     beta=0.70
     Davidson diagonalization with overlap
     ethr =  1.03E-06,  avg # of iterations =  3.0

     total cpu time spent up to now is      719.4 secs

     total energy              =     -95.10596167 Ry
     Harris-Foulkes estimate   =     -95.10602993 Ry
     estimated scf accuracy    <       0.00015548 Ry

     iteration #  3     ecut=    40.00 Ry     beta=0.70
     Davidson diagonalization with overlap
     ethr =  1.03E-06,  avg # of iterations =  1.7

     total cpu time spent up to now is      724.9 secs

     total energy              =     -95.10596201 Ry
     Harris-Foulkes estimate   =     -95.10597180 Ry
     estimated scf accuracy    <       0.00003051 Ry

     iteration #  4     ecut=    40.00 Ry     beta=0.70
     Davidson diagonalization with overlap
     ethr =  3.39E-07,  avg # of iterations =  1.0

     total cpu time spent up to now is      730.0 secs

     total energy              =     -95.10595965 Ry
     Harris-Foulkes estimate   =     -95.10596337 Ry
     estimated scf accuracy    <       0.00001066 Ry

     iteration #  5     ecut=    40.00 Ry     beta=0.70
     Davidson diagonalization with overlap
     ethr =  1.18E-07,  avg # of iterations =  1.0

     total cpu time spent up to now is      735.1 secs

     total energy              =     -95.10595910 Ry
     Harris-Foulkes estimate   =     -95.10596009 Ry
     estimated scf accuracy    <       0.00000353 Ry

     iteration #  6     ecut=    40.00 Ry     beta=0.70
     Davidson diagonalization with overlap
     ethr =  3.93E-08,  avg # of iterations =  1.0

     total cpu time spent up to now is      740.2 secs

     total energy              =     -95.10595813 Ry
     Harris-Foulkes estimate   =     -95.10595920 Ry
     estimated scf accuracy    <       0.00000158 Ry

     iteration #  7     ecut=    40.00 Ry     beta=0.70
     Davidson diagonalization with overlap
     ethr =  1.75E-08,  avg # of iterations =  2.0

     total cpu time spent up to now is      746.3 secs

     total energy              =     -95.10595846 Ry
     Harris-Foulkes estimate   =     -95.10595846 Ry
     estimated scf accuracy    <          4.4E-10 Ry

     iteration #  8     ecut=    40.00 Ry     beta=0.70
     Davidson diagonalization with overlap
     ethr =  4.85E-12,  avg # of iterations =  3.0

     total cpu time spent up to now is      753.5 secs

     total energy              =     -95.10595846 Ry
     Harris-Foulkes estimate   =     -95.10595847 Ry
     estimated scf accuracy    <       0.00000001 Ry

     iteration #  9     ecut=    40.00 Ry     beta=0.70
     Davidson diagonalization with overlap
     ethr =  4.85E-12,  avg # of iterations =  3.0

     total cpu time spent up to now is      760.5 secs

     total energy              =     -95.10595846 Ry
     Harris-Foulkes estimate   =     -95.10595846 Ry
     estimated scf accuracy    <          4.0E-10 Ry

     iteration # 10     ecut=    40.00 Ry     beta=0.70
     Davidson diagonalization with overlap
     ethr =  4.46E-12,  avg # of iterations =  1.0

     total cpu time spent up to now is      765.6 secs

     total energy              =     -95.10595846 Ry
     Harris-Foulkes estimate   =     -95.10595846 Ry
     estimated scf accuracy    <          4.1E-10 Ry

     iteration # 11     ecut=    40.00 Ry     beta=0.70
     Davidson diagonalization with overlap
     ethr =  4.46E-12,  avg # of iterations =  2.0

     total cpu time spent up to now is      771.6 secs

     End of self-consistent calculation

     Number of k-points >= 100: set verbosity='high' to print the bands.

     the Fermi energy is     1.2220 ev

!    total energy              =     -95.10595846 Ry
     Harris-Foulkes estimate   =     -95.10595846 Ry
     estimated scf accuracy    <          2.7E-12 Ry

     The total energy is the sum of the following terms:

     one-electron contribution =     -90.21762440 Ry
     hartree contribution      =      45.31943007 Ry
     xc contribution           =     -14.25646488 Ry
     ewald contribution        =     -35.95124794 Ry
     smearing contrib. (-TS)   =      -0.00005130 Ry

     convergence has been achieved in  11 iterations

     Forces acting on atoms (cartesian axes, Ry/au):

     atom    1 type  1   force =     0.00000000    0.00000000    0.00000000

     Total force =     0.000000     Total SCF correction =     0.000000


     Computing stress (Cartesian axis) and pressure

          total   stress  (Ry/bohr**3)                   (kbar)     P=   -8.93
  -0.00006067   0.00000000   0.00000000         -8.93      0.00      0.00
   0.00000000  -0.00006067   0.00000000          0.00     -8.93      0.00
   0.00000000   0.00000000  -0.00006067          0.00      0.00     -8.93


     number of scf cycles    =  14
     number of bfgs steps    =  13

     enthalpy old            =     -95.1246876422 Ry
     enthalpy new            =     -95.1246913325 Ry

     CASE: enthalpy_new < enthalpy_old

     new trust radius        =       0.0029084822 bohr
     new conv_thr            =            1.0E-10 Ry

     new unit-cell volume =    276.29489 a.u.^3 (    40.94268 Ang^3 )
     density =      0.93242 g/cm^3

CELL_PARAMETERS (alat= 10.29787120)
  -0.501995891   0.000000000   0.501995891
  -0.000000000   0.501995891   0.501995891
  -0.501995891   0.501995891  -0.000000000

ATOMIC_POSITIONS (crystal)
Na       0.000000000   0.000000000   0.000000000



     Writing output data file na.fcc.save
     NEW-OLD atomic charge density approx. for the potential
     extrapolated charge    9.02360, renormalised to    9.00000

     total cpu time spent up to now is      774.8 secs

     per-process dynamical memory:    57.7 Mb

     Self-consistent Calculation

     iteration #  1     ecut=    40.00 Ry     beta=0.70
     Davidson diagonalization with overlap
     ethr =  1.00E-06,  avg # of iterations =  2.0

     total cpu time spent up to now is      781.8 secs

     total energy              =     -95.10553874 Ry
     Harris-Foulkes estimate   =     -94.91663699 Ry
     estimated scf accuracy    <       0.00020923 Ry

     iteration #  2     ecut=    40.00 Ry     beta=0.70
     Davidson diagonalization with overlap
     ethr =  2.32E-06,  avg # of iterations =  3.0

     total cpu time spent up to now is      789.5 secs

     total energy              =     -95.10592133 Ry
     Harris-Foulkes estimate   =     -95.10607513 Ry
     estimated scf accuracy    <       0.00035025 Ry

     iteration #  3     ecut=    40.00 Ry     beta=0.70
     Davidson diagonalization with overlap
     ethr =  2.32E-06,  avg # of iterations =  2.0

     total cpu time spent up to now is      795.1 secs

     total energy              =     -95.10591999 Ry
     Harris-Foulkes estimate   =     -95.10594438 Ry
     estimated scf accuracy    <       0.00006801 Ry

     iteration #  4     ecut=    40.00 Ry     beta=0.70
     Davidson diagonalization with overlap
     ethr =  7.56E-07,  avg # of iterations =  1.0

     total cpu time spent up to now is      800.2 secs

     total energy              =     -95.10591426 Ry
     Harris-Foulkes estimate   =     -95.10592328 Ry
     estimated scf accuracy    <       0.00002051 Ry

     iteration #  5     ecut=    40.00 Ry     beta=0.70
     Davidson diagonalization with overlap
     ethr =  2.28E-07,  avg # of iterations =  1.0

     total cpu time spent up to now is      805.3 secs

     total energy              =     -95.10591515 Ry
     Harris-Foulkes estimate   =     -95.10591575 Ry
     estimated scf accuracy    <       0.00000387 Ry

     iteration #  6     ecut=    40.00 Ry     beta=0.70
     Davidson diagonalization with overlap
[...]
     Davidson diagonalization with overlap
     ethr =  8.52E-11,  avg # of iterations =  1.0

     total cpu time spent up to now is      915.3 secs

     total energy              =     -95.10584564 Ry
     Harris-Foulkes estimate   =     -95.10584564 Ry
     estimated scf accuracy    <          1.9E-10 Ry

     iteration # 12     ecut=    40.00 Ry     beta=0.70
     Davidson diagonalization with overlap
     ethr =  2.15E-12,  avg # of iterations =  3.0

     total cpu time spent up to now is      922.3 secs

     total energy              =     -95.10584564 Ry
     Harris-Foulkes estimate   =     -95.10584564 Ry
     estimated scf accuracy    <          2.6E-09 Ry

     iteration # 13     ecut=    40.00 Ry     beta=0.70
     Davidson diagonalization with overlap
     ethr =  2.15E-12,  avg # of iterations =  2.9

     total cpu time spent up to now is      929.0 secs

     End of self-consistent calculation

     Number of k-points >= 100: set verbosity='high' to print the bands.

     the Fermi energy is     1.1975 ev

!    total energy              =     -95.10584564 Ry
     Harris-Foulkes estimate   =     -95.10584564 Ry
     estimated scf accuracy    <          5.8E-12 Ry

     The total energy is the sum of the following terms:

     one-electron contribution =     -90.35601251 Ry
     hartree contribution      =      45.37856355 Ry
     xc contribution           =     -14.25566126 Ry
     ewald contribution        =     -35.87268381 Ry
     smearing contrib. (-TS)   =      -0.00005161 Ry

     convergence has been achieved in  13 iterations

     Forces acting on atoms (cartesian axes, Ry/au):

     atom    1 type  1   force =     0.00000000    0.00000000    0.00000000

     Total force =     0.000000     Total SCF correction =     0.000000


     Computing stress (Cartesian axis) and pressure

          total   stress  (Ry/bohr**3)                   (kbar)     P=   -9.36
  -0.00006365   0.00000000   0.00000000         -9.36      0.00      0.00
   0.00000000  -0.00006365   0.00000000          0.00     -9.36      0.00
   0.00000000   0.00000000  -0.00006365          0.00      0.00     -9.36


     number of scf cycles    =  16
     number of bfgs steps    =  15

     enthalpy old            =     -95.1246961682 Ry
     enthalpy new            =     -95.1247018620 Ry

     CASE: enthalpy_new < enthalpy_old

     new trust radius        =       0.0065512471 bohr
     new conv_thr            =            1.0E-10 Ry

     new unit-cell volume =    279.02443 a.u.^3 (    41.34715 Ang^3 )
     density =      0.92330 g/cm^3

CELL_PARAMETERS (alat= 10.29787120)
  -0.503643566   0.000000000   0.503643566
   0.000000000   0.503643566   0.503643566
  -0.503643566   0.503643566   0.000000000

ATOMIC_POSITIONS (crystal)
Na       0.000000000   0.000000000   0.000000000



     Writing output data file na.fcc.save
     NEW-OLD atomic charge density approx. for the potential
     extrapolated charge    9.05286, renormalised to    9.00000

     total cpu time spent up to now is      932.1 secs

     per-process dynamical memory:    57.7 Mb

     Self-consistent Calculation

     iteration #  1     ecut=    40.00 Ry     beta=0.70
     Davidson diagonalization with overlap
     ethr =  1.00E-06,  avg # of iterations =  2.6

     total cpu time spent up to now is      939.5 secs

     total energy              =     -95.10383248 Ry
     Harris-Foulkes estimate   =     -94.68044760 Ry
     estimated scf accuracy    <       0.00106231 Ry

     iteration #  2     ecut=    40.00 Ry     beta=0.70
     Davidson diagonalization with overlap
     ethr =  1.18E-05,  avg # of iterations =  3.0

     total cpu time spent up to now is      947.3 secs

     total energy              =     -95.10577851 Ry
     Harris-Foulkes estimate   =     -95.10655958 Ry
     estimated scf accuracy    <       0.00177896 Ry

     iteration #  3     ecut=    40.00 Ry     beta=0.70
     Davidson diagonalization with overlap
     ethr =  1.18E-05,  avg # of iterations =  2.0

     total cpu time spent up to now is      952.8 secs

     total energy              =     -95.10577135 Ry
     Harris-Foulkes estimate   =     -95.10589462 Ry
     estimated scf accuracy    <       0.00034830 Ry

     iteration #  4     ecut=    40.00 Ry     beta=0.70
     Davidson diagonalization with overlap
     ethr =  3.87E-06,  avg # of iterations =  1.0

     total cpu time spent up to now is      957.9 secs

     total energy              =     -95.10574249 Ry
     Harris-Foulkes estimate   =     -95.10578790 Ry
     estimated scf accuracy    <       0.00010734 Ry

     iteration #  5     ecut=    40.00 Ry     beta=0.70
     Davidson diagonalization with overlap
     ethr =  1.19E-06,  avg # of iterations =  1.0

     total cpu time spent up to now is      963.0 secs

     total energy              =     -95.10574523 Ry
     Harris-Foulkes estimate   =     -95.10574959 Ry
     estimated scf accuracy    <       0.00002287 Ry

     iteration #  6     ecut=    40.00 Ry     beta=0.70
     Davidson diagonalization with overlap
     ethr =  2.54E-07,  avg # of iterations =  1.0

     total cpu time spent up to now is      968.1 secs

     total energy              =     -95.10574539 Ry
     Harris-Foulkes estimate   =     -95.10574578 Ry
     estimated scf accuracy    <       0.00001457 Ry

     iteration #  7     ecut=    40.00 Ry     beta=0.70
     Davidson diagonalization with overlap
     ethr =  1.62E-07,  avg # of iterations =  1.0

     total cpu time spent up to now is      973.2 secs

     total energy              =     -95.10573805 Ry
     Harris-Foulkes estimate   =     -95.10574541 Ry
     estimated scf accuracy    <       0.00001352 Ry

     iteration #  8     ecut=    40.00 Ry     beta=0.70
     Davidson diagonalization with overlap
     ethr =  1.50E-07,  avg # of iterations =  2.0

     total cpu time spent up to now is      979.0 secs

     total energy              =     -95.10573904 Ry
     Harris-Foulkes estimate   =     -95.10573964 Ry
     estimated scf accuracy    <       0.00000088 Ry

     iteration #  9     ecut=    40.00 Ry     beta=0.70
     Davidson diagonalization with overlap
     ethr =  9.80E-09,  avg # of iterations =  2.0

     total cpu time spent up to now is      985.1 secs

     total energy              =     -95.10573925 Ry
     Harris-Foulkes estimate   =     -95.10573925 Ry
     estimated scf accuracy    <       0.00000001 Ry

     iteration # 10     ecut=    40.00 Ry     beta=0.70
     Davidson diagonalization with overlap
     ethr =  1.53E-10,  avg # of iterations =  1.5

     total cpu time spent up to now is      990.4 secs

     total energy              =     -95.10573924 Ry
     Harris-Foulkes estimate   =     -95.10573925 Ry
     estimated scf accuracy    <          6.4E-09 Ry

     iteration # 11     ecut=    40.00 Ry     beta=0.70
     Davidson diagonalization with overlap
     ethr =  7.16E-11,  avg # of iterations =  1.0

     total cpu time spent up to now is      995.5 secs

     total energy              =     -95.10573924 Ry
     Harris-Foulkes estimate   =     -95.10573924 Ry
     estimated scf accuracy    <          1.9E-09 Ry

     iteration # 12     ecut=    40.00 Ry     beta=0.70
     Davidson diagonalization with overlap
     ethr =  2.09E-11,  avg # of iterations =  2.0

     total cpu time spent up to now is     1001.6 secs

     total energy              =     -95.10573924 Ry
     Harris-Foulkes estimate   =     -95.10573924 Ry
     estimated scf accuracy    <          1.1E-09 Ry

     iteration # 13     ecut=    40.00 Ry     beta=0.70
     Davidson diagonalization with overlap
     ethr =  1.22E-11,  avg # of iterations =  2.0

     total cpu time spent up to now is     1007.7 secs

     End of self-consistent calculation

     Number of k-points >= 100: set verbosity='high' to print the bands.

     the Fermi energy is     1.1756 ev

!    total energy              =     -95.10573924 Ry
     Harris-Foulkes estimate   =     -95.10573924 Ry
     estimated scf accuracy    <          1.8E-11 Ry

     The total energy is the sum of the following terms:

     one-electron contribution =     -90.48006567 Ry
     hartree contribution      =      45.43158855 Ry
     xc contribution           =     -14.25494113 Ry
     ewald contribution        =     -35.80226910 Ry
     smearing contrib. (-TS)   =      -0.00005189 Ry

     convergence has been achieved in  13 iterations

     Forces acting on atoms (cartesian axes, Ry/au):

     atom    1 type  1   force =     0.00000000    0.00000000    0.00000000

     Total force =     0.000000     Total SCF correction =     0.000000


     Computing stress (Cartesian axis) and pressure

          total   stress  (Ry/bohr**3)                   (kbar)     P=   -9.75
  -0.00006626   0.00000000   0.00000000         -9.75      0.00      0.00
   0.00000000  -0.00006626   0.00000000          0.00     -9.75      0.00
   0.00000000   0.00000000  -0.00006626          0.00      0.00     -9.75


     bfgs converged in  17 scf cycles and  16 bfgs steps
     (criteria: energy <  1.0E-04 Ry, force <  1.0E-03Ry/Bohr, cell <  5.0E-01kbar)

     End of BFGS Geometry Optimization

     Final enthalpy =     -95.1247069425 Ry
Begin final coordinates
     new unit-cell volume =    279.02443 a.u.^3 (    41.34715 Ang^3 )
     density =      0.92330 g/cm^3

CELL_PARAMETERS (alat= 10.29787120)
  -0.503643566   0.000000000   0.503643566
   0.000000000   0.503643566   0.503643566
  -0.503643566   0.503643566   0.000000000

ATOMIC_POSITIONS (crystal)
Na       0.000000000   0.000000000   0.000000000
End final coordinates



     A final scf calculation at the relaxed structure.
     The G-vectors are recalculated for the final unit cell
     Results may differ from those at the preceding step.

     Parallelization info
     --------------------
     sticks:   dense  smooth     PW     G-vecs:    dense   smooth      PW
     Min         297     148     49                 6733     2394     457
     Max         298     150     50                 6734     2395     460
     Sum        1189     595    199                26933     9577    1837



     bravais-lattice index     =            2
     lattice parameter (alat)  =      10.2979  a.u.
     unit-cell volume          =     279.0244 (a.u.)^3
     number of atoms/cell      =            1
     number of atomic types    =            1
     number of electrons       =         9.00
     number of Kohn-Sham states=            9
     kinetic-energy cutoff     =      40.0000  Ry
     charge density cutoff     =     320.0000  Ry
     convergence threshold     =      1.0E-10
     mixing beta               =       0.7000
     number of iterations used =            8  plain     mixing
     Exchange-correlation      = SLA  PW   PBE  PBE ( 1  4  3  4 0 0)

     celldm(1)=  10.297871  celldm(2)=   0.000000  celldm(3)=   0.000000
     celldm(4)=   0.000000  celldm(5)=   0.000000  celldm(6)=   0.000000

     crystal axes: (cart. coord. in units of alat)
               a(1) = (  -0.503644   0.000000   0.503644 )  
               a(2) = (   0.000000   0.503644   0.503644 )  
               a(3) = (  -0.503644   0.503644   0.000000 )  

     reciprocal axes: (cart. coord. in units 2 pi/alat)
               b(1) = ( -0.992766 -0.992766  0.992766 )  
               b(2) = (  0.992766  0.992766  0.992766 )  
               b(3) = ( -0.992766  0.992766 -0.992766 )  


     PseudoPot. # 1 for Na read from file:
     /home/s1333534/quantum_espresso/qe-6.1/pseudo/Na_pbe_v1.uspp.F.UPF
     MD5 check sum: 76a99c7e9422403d3e93cbc85ab7bccb
     Pseudo is Ultrasoft, Zval =  9.0
     Generated by new atomic code, or converted to UPF format
     Using radial grid of  819 points,  5 beta functions with: 
                l(1) =   0
                l(2) =   0
                l(3) =   1
                l(4) =   1
                l(5) =   2
     Q(r) pseudized with  8 coefficients,  rinner =    1.250   1.250   1.250
                                                       1.250   1.250

     atomic species   valence    mass     pseudopotential
        Na             9.00    22.99000     Na( 1.00)

     48 Sym. Ops., with inversion, found



   Cartesian axes

     site n.     atom                  positions (alat units)
         1           Na  tau(   1) = (   0.0000000   0.0000000   0.0000000  )

     number of k points=   770  Marzari-Vanderbilt smearing, width (Ry)=  0.0200

     Number of k-points >= 100: set verbosity='high' to print them.

     Dense  grid:    26933 G-vectors     FFT dimensions: (  45,  45,  45)

     Smooth grid:     9577 G-vectors     FFT dimensions: (  30,  30,  30)

     Estimated max dynamical RAM per process >      36.31MB

     Estimated total allocated dynamical RAM >     145.25MB

     Initial potential from superposition of free atoms

     starting charge    8.99371, renormalised to    9.00000
     Starting wfc are    5 randomized atomic wfcs +    4 random wfc

     Writing output data file na.fcc.save

     total cpu time spent up to now is     1012.9 secs

     per-process dynamical memory:    54.9 Mb

     Self-consistent Calculation

     iteration #  1     ecut=    40.00 Ry     beta=0.70
     Davidson diagonalization with overlap
     c_bands:  1 eigenvalues not converged
     c_bands:  1 eigenvalues not converged
     c_bands:  1 eigenvalues not converged
     c_bands:  1 eigenvalues not converged
     c_bands:  1 eigenvalues not converged
     c_bands:  1 eigenvalues not converged
     c_bands:  1 eigenvalues not converged
     c_bands:  1 eigenvalues not converged
     c_bands:  1 eigenvalues not converged
     c_bands:  1 eigenvalues not converged
     c_bands:  1 eigenvalues not converged
     c_bands:  1 eigenvalues not converged
     c_bands:  1 eigenvalues not converged
     c_bands:  1 eigenvalues not converged
     c_bands:  1 eigenvalues not converged
     c_bands:  1 eigenvalues not converged
     c_bands:  1 eigenvalues not converged
     c_bands:  1 eigenvalues not converged
     c_bands:  1 eigenvalues not converged
     c_bands:  1 eigenvalues not converged
     c_bands:  1 eigenvalues not converged
     ethr =  1.00E-06,  avg # of iterations = 11.8

     total cpu time spent up to now is     1030.1 secs

     total energy              =     -95.10574385 Ry
     Harris-Foulkes estimate   =     -95.10589146 Ry
     estimated scf accuracy    <       0.00087417 Ry

     iteration #  2     ecut=    40.00 Ry     beta=0.70
     Davidson diagonalization with overlap
     ethr =  9.71E-06,  avg # of iterations =  2.0

     total cpu time spent up to now is     1035.8 secs

     total energy              =     -95.10583754 Ry
     Harris-Foulkes estimate   =     -95.10585627 Ry
     estimated scf accuracy    <       0.00009659 Ry

     iteration #  3     ecut=    40.00 Ry     beta=0.70
     Davidson diagonalization with overlap
     ethr =  1.07E-06,  avg # of iterations =  2.0

     total cpu time spent up to now is     1041.8 secs

     total energy              =     -95.10584933 Ry
     Harris-Foulkes estimate   =     -95.10585024 Ry
     estimated scf accuracy    <       0.00000592 Ry

     iteration #  4     ecut=    40.00 Ry     beta=0.70
     Davidson diagonalization with overlap
     ethr =  6.58E-08,  avg # of iterations =  1.0

     total cpu time spent up to now is     1046.9 secs

     total energy              =     -95.10584990 Ry
     Harris-Foulkes estimate   =     -95.10584985 Ry
     estimated scf accuracy    <       0.00000001 Ry

     iteration #  5     ecut=    40.00 Ry     beta=0.70
     Davidson diagonalization with overlap
     ethr =  1.59E-10,  avg # of iterations =  3.0

     total cpu time spent up to now is     1054.1 secs

     total energy              =     -95.10584993 Ry
     Harris-Foulkes estimate   =     -95.10584993 Ry
     estimated scf accuracy    <          1.9E-09 Ry

     iteration #  6     ecut=    40.00 Ry     beta=0.70
     Davidson diagonalization with overlap
     ethr =  2.11E-11,  avg # of iterations =  1.6

     total cpu time spent up to now is     1059.4 secs

     End of self-consistent calculation

     Number of k-points >= 100: set verbosity='high' to print the bands.

     the Fermi energy is     1.1757 ev

!    total energy              =     -95.10584993 Ry
     Harris-Foulkes estimate   =     -95.10584993 Ry
     estimated scf accuracy    <          4.4E-11 Ry

     The total energy is the sum of the following terms:

     one-electron contribution =     -90.48025717 Ry
     hartree contribution      =      45.43171742 Ry
     xc contribution           =     -14.25498918 Ry
     ewald contribution        =     -35.80226910 Ry
     smearing contrib. (-TS)   =      -0.00005189 Ry

     convergence has been achieved in   6 iterations

     Forces acting on atoms (cartesian axes, Ry/au):

     atom    1 type  1   force =     0.00000000    0.00000000    0.00000000

     Total force =     0.000000     Total SCF correction =     0.000000


     Computing stress (Cartesian axis) and pressure

          total   stress  (Ry/bohr**3)                   (kbar)     P=   -9.37
  -0.00006370   0.00000000   0.00000000         -9.37      0.00      0.00
   0.00000000  -0.00006370   0.00000000          0.00     -9.37      0.00
   0.00000000   0.00000000  -0.00006370          0.00      0.00     -9.37


     Writing output data file na.fcc.save

     init_run     :      4.66s CPU      5.00s WALL (       2 calls)
     electrons    :    948.50s CPU   1000.57s WALL (      18 calls)
     update_pot   :      4.25s CPU      4.29s WALL (      16 calls)
     forces       :      5.59s CPU      5.70s WALL (      18 calls)
     stress       :     32.58s CPU     32.92s WALL (      18 calls)

     Called by init_run:
     wfcinit      :      3.81s CPU      4.02s WALL (       2 calls)
     potinit      :      0.12s CPU      0.12s WALL (       2 calls)

     Called by electrons:
     c_bands      :    771.01s CPU    814.39s WALL (     168 calls)
     sum_band     :    171.55s CPU    180.14s WALL (     168 calls)
     v_of_rho     :      3.21s CPU      3.25s WALL (     180 calls)
     newd         :      2.79s CPU      2.84s WALL (     180 calls)
     mix_rho      :      0.25s CPU      0.26s WALL (     168 calls)

     Called by c_bands:
     init_us_2    :     35.69s CPU     35.46s WALL (  287980 calls)
     cegterg      :    734.20s CPU    776.85s WALL (  129360 calls)

     Called by sum_band:
     sum_band:bec :      0.08s CPU      0.45s WALL (  129360 calls)
     addusdens    :      3.43s CPU      3.48s WALL (     168 calls)

     Called by *egterg:
     h_psi        :    633.76s CPU    671.56s WALL (  361087 calls)
     s_psi        :      7.62s CPU      6.43s WALL (  361087 calls)
     g_psi        :      3.69s CPU      3.81s WALL (  230187 calls)
     cdiaghg      :     43.24s CPU     45.34s WALL (  342607 calls)

     Called by h_psi:
     h_psi:pot    :    631.96s CPU    668.67s WALL (  361087 calls)
     h_psi:calbec :     13.46s CPU     10.81s WALL (  361087 calls)
     vloc_psi     :    614.10s CPU    650.23s WALL (  361087 calls)
     add_vuspsi   :      3.92s CPU      6.67s WALL (  361087 calls)

     General routines
     calbec       :     23.33s CPU     19.83s WALL (  559747 calls)
     fft          :      1.77s CPU      1.94s WALL (    2992 calls)
     ffts         :      0.05s CPU      0.05s WALL (     348 calls)
     fftw         :    674.46s CPU    693.14s WALL ( 6599026 calls)
     interpolate  :      0.29s CPU      0.30s WALL (     348 calls)
     davcio       :      0.01s CPU      0.03s WALL (    1540 calls)

     Parallel routines
     fft_scatter  :     97.44s CPU    132.26s WALL ( 6602366 calls)

     PWSCF        : 16m48.12s CPU    17m42.12s WALL


   This run was terminated on:  14:45:25  20Dec2017            

=------------------------------------------------------------------------------=
   JOB DONE.
=------------------------------------------------------------------------------=
