
     Program PWSCF v.6.1 (svn rev. 13369) starts on 26Jan2018 at 18:56:58 

     This program is part of the open-source Quantum ESPRESSO suite
     for quantum simulation of materials; please cite
         "P. Giannozzi et al., J. Phys.:Condens. Matter 21 395502 (2009);
          URL http://www.quantum-espresso.org", 
     in publications or presentations arising from this work. More details at
     http://www.quantum-espresso.org/quote

     Parallel version (MPI), running on     4 processors
     R & G space division:  proc/nbgrp/npool/nimage =       4
     Waiting for input...
     Reading input from standard input

     Current dimensions of program PWSCF are:
     Max number of different atomic species (ntypx) = 10
     Max number of k-points (npk) =  40000
     Max angular momentum in pseudopotentials (lmaxx) =  3

     Subspace diagonalization in iterative solution of the eigenvalue problem:
     a serial algorithm will be used


     Parallelization info
     --------------------
     sticks:   dense  smooth     PW     G-vecs:    dense   smooth      PW
     Min         267     136     46                 5821     2072     397
     Max         268     137     47                 5825     2073     398
     Sum        1069     547    187                23289     8291    1591



     bravais-lattice index     =            2
     lattice parameter (alat)  =       9.8727  a.u.
     unit-cell volume          =     240.5703 (a.u.)^3
     number of atoms/cell      =            1
     number of atomic types    =            1
     number of electrons       =         9.00
     number of Kohn-Sham states=            9
     kinetic-energy cutoff     =      40.0000  Ry
     charge density cutoff     =     320.0000  Ry
     convergence threshold     =      1.0E-10
     mixing beta               =       0.7000
     number of iterations used =            8  plain     mixing
     Exchange-correlation      = SLA  PW   PBE  PBE ( 1  4  3  4 0 0)
     nstep                     =           50


     celldm(1)=   9.872657  celldm(2)=   0.000000  celldm(3)=   0.000000
     celldm(4)=   0.000000  celldm(5)=   0.000000  celldm(6)=   0.000000

     crystal axes: (cart. coord. in units of alat)
               a(1) = (  -0.500000   0.000000   0.500000 )  
               a(2) = (   0.000000   0.500000   0.500000 )  
               a(3) = (  -0.500000   0.500000   0.000000 )  

     reciprocal axes: (cart. coord. in units 2 pi/alat)
               b(1) = ( -1.000000 -1.000000  1.000000 )  
               b(2) = (  1.000000  1.000000  1.000000 )  
               b(3) = ( -1.000000  1.000000 -1.000000 )  


     PseudoPot. # 1 for Na read from file:
     /home/s1333534/quantum_espresso/qe-6.1/pseudo/Na_pbe_v1.uspp.F.UPF
     MD5 check sum: 76a99c7e9422403d3e93cbc85ab7bccb
     Pseudo is Ultrasoft, Zval =  9.0
     Generated by new atomic code, or converted to UPF format
     Using radial grid of  819 points,  5 beta functions with: 
                l(1) =   0
                l(2) =   0
                l(3) =   1
                l(4) =   1
                l(5) =   2
     Q(r) pseudized with  8 coefficients,  rinner =    1.250   1.250   1.250
                                                       1.250   1.250

     atomic species   valence    mass     pseudopotential
        Na             9.00    22.99000     Na( 1.00)

     48 Sym. Ops., with inversion, found



   Cartesian axes

     site n.     atom                  positions (alat units)
         1           Na  tau(   1) = (   0.0000000   0.0000000   0.0000000  )

     number of k points=   280  Marzari-Vanderbilt smearing, width (Ry)=  0.0200

     Number of k-points >= 100: set verbosity='high' to print them.

     Dense  grid:    23289 G-vectors     FFT dimensions: (  40,  40,  40)

     Smooth grid:     8291 G-vectors     FFT dimensions: (  30,  30,  30)

     Estimated max dynamical RAM per process >      13.69MB

     Estimated total allocated dynamical RAM >      54.78MB

     Initial potential from superposition of free atoms

     starting charge    8.99371, renormalised to    9.00000
     Starting wfc are    5 randomized atomic wfcs +    4 random wfc

     total cpu time spent up to now is        1.2 secs

     per-process dynamical memory:    20.8 Mb

     Self-consistent Calculation

     iteration #  1     ecut=    40.00 Ry     beta=0.70
     Davidson diagonalization with overlap
     ethr =  1.00E-02,  avg # of iterations =  5.5

     Threshold (ethr) on eigenvalues was too large:
     Diagonalizing with lowered threshold

     Davidson diagonalization with overlap
     ethr =  9.97E-06,  avg # of iterations =  3.9

     total cpu time spent up to now is        7.1 secs

     total energy              =     -95.10636019 Ry
     Harris-Foulkes estimate   =     -95.10658471 Ry
     estimated scf accuracy    <       0.00089420 Ry

     iteration #  2     ecut=    40.00 Ry     beta=0.70
     Davidson diagonalization with overlap
     ethr =  9.94E-06,  avg # of iterations =  2.0

     total cpu time spent up to now is        9.1 secs

     total energy              =     -95.10646031 Ry
     Harris-Foulkes estimate   =     -95.10648234 Ry
     estimated scf accuracy    <       0.00009771 Ry

     iteration #  3     ecut=    40.00 Ry     beta=0.70
     Davidson diagonalization with overlap
     ethr =  1.09E-06,  avg # of iterations =  2.1

     total cpu time spent up to now is       11.2 secs

     total energy              =     -95.10647218 Ry
     Harris-Foulkes estimate   =     -95.10647322 Ry
     estimated scf accuracy    <       0.00000585 Ry

     iteration #  4     ecut=    40.00 Ry     beta=0.70
     Davidson diagonalization with overlap
     ethr =  6.50E-08,  avg # of iterations =  1.0

     total cpu time spent up to now is       13.0 secs

     total energy              =     -95.10647274 Ry
     Harris-Foulkes estimate   =     -95.10647269 Ry
     estimated scf accuracy    <       0.00000001 Ry

     iteration #  5     ecut=    40.00 Ry     beta=0.70
     Davidson diagonalization with overlap
     ethr =  1.21E-10,  avg # of iterations =  3.0

     total cpu time spent up to now is       15.5 secs

     total energy              =     -95.10647277 Ry
     Harris-Foulkes estimate   =     -95.10647276 Ry
     estimated scf accuracy    <          1.6E-09 Ry

     iteration #  6     ecut=    40.00 Ry     beta=0.70
     Davidson diagonalization with overlap
     ethr =  1.83E-11,  avg # of iterations =  1.6

     total cpu time spent up to now is       17.4 secs

     End of self-consistent calculation

     Number of k-points >= 100: set verbosity='high' to print the bands.

     the Fermi energy is     1.7689 ev

!    total energy              =     -95.10647277 Ry
     Harris-Foulkes estimate   =     -95.10647277 Ry
     estimated scf accuracy    <          9.0E-12 Ry

     The total energy is the sum of the following terms:

     one-electron contribution =     -87.29017137 Ry
     hartree contribution      =      44.07376998 Ry
     xc contribution           =     -14.27359609 Ry
     ewald contribution        =     -37.61640303 Ry
     smearing contrib. (-TS)   =      -0.00007226 Ry

     convergence has been achieved in   6 iterations

     Forces acting on atoms (cartesian axes, Ry/au):

     atom    1 type  1   force =     0.00000000    0.00000000    0.00000000

     Total force =     0.000000     Total SCF correction =     0.000000


     Computing stress (Cartesian axis) and pressure

          total   stress  (Ry/bohr**3)                   (kbar)     P=    0.36
   0.00000245  -0.00000000   0.00000000          0.36     -0.00      0.00
  -0.00000000   0.00000245   0.00000000         -0.00      0.36      0.00
   0.00000000   0.00000000   0.00000245          0.00      0.00      0.36


     BFGS Geometry Optimization

     number of scf cycles    =   1
     number of bfgs steps    =   0

     enthalpy new            =     -95.1064727682 Ry

     new trust radius        =       0.0001903863 bohr
     new conv_thr            =            1.0E-10 Ry

     new unit-cell volume =    240.61465 a.u.^3 (    35.65541 Ang^3 )
     density =      1.07069 g/cm^3

CELL_PARAMETERS (alat=  9.87265656)
  -0.500030687   0.000000000   0.500030687
   0.000000000   0.500030687   0.500030687
  -0.500030687   0.500030687   0.000000000

ATOMIC_POSITIONS (crystal)
Na       0.000000000   0.000000000   0.000000000



     Writing output data file na.fcc.save
     NEW-OLD atomic charge density approx. for the potential
     extrapolated charge    9.00166, renormalised to    9.00000

     total cpu time spent up to now is       19.0 secs

     per-process dynamical memory:    31.7 Mb

     Self-consistent Calculation

     iteration #  1     ecut=    40.00 Ry     beta=0.70
     Davidson diagonalization with overlap
     ethr =  1.00E-06,  avg # of iterations =  2.0

     Threshold (ethr) on eigenvalues was too large:
     Diagonalizing with lowered threshold

     Davidson diagonalization with overlap
     ethr =  1.12E-08,  avg # of iterations =  1.0

     total cpu time spent up to now is       22.9 secs

     total energy              =     -95.10647106 Ry
     Harris-Foulkes estimate   =     -95.09366671 Ry
     estimated scf accuracy    <       0.00000101 Ry

     iteration #  2     ecut=    40.00 Ry     beta=0.70
     Davidson diagonalization with overlap
     ethr =  1.12E-08,  avg # of iterations =  3.0

     total cpu time spent up to now is       25.3 secs

     total energy              =     -95.10647291 Ry
     Harris-Foulkes estimate   =     -95.10647365 Ry
     estimated scf accuracy    <       0.00000169 Ry

     iteration #  3     ecut=    40.00 Ry     beta=0.70
     Davidson diagonalization with overlap
     ethr =  1.12E-08,  avg # of iterations =  1.6

     total cpu time spent up to now is       27.2 secs

     total energy              =     -95.10647292 Ry
     Harris-Foulkes estimate   =     -95.10647302 Ry
     estimated scf accuracy    <       0.00000033 Ry

     iteration #  4     ecut=    40.00 Ry     beta=0.70
     Davidson diagonalization with overlap
     ethr =  3.68E-09,  avg # of iterations =  1.0

     total cpu time spent up to now is       29.0 secs

     total energy              =     -95.10647289 Ry
     Harris-Foulkes estimate   =     -95.10647293 Ry
     estimated scf accuracy    <       0.00000013 Ry

     iteration #  5     ecut=    40.00 Ry     beta=0.70
     Davidson diagonalization with overlap
     ethr =  1.45E-09,  avg # of iterations =  1.0

     total cpu time spent up to now is       30.8 secs

     total energy              =     -95.10647288 Ry
     Harris-Foulkes estimate   =     -95.10647290 Ry
     estimated scf accuracy    <       0.00000005 Ry

     iteration #  6     ecut=    40.00 Ry     beta=0.70
     Davidson diagonalization with overlap
     ethr =  5.49E-10,  avg # of iterations =  1.0

     total cpu time spent up to now is       32.6 secs

     total energy              =     -95.10647287 Ry
     Harris-Foulkes estimate   =     -95.10647288 Ry
     estimated scf accuracy    <       0.00000002 Ry

     iteration #  7     ecut=    40.00 Ry     beta=0.70
     Davidson diagonalization with overlap
     ethr =  2.27E-10,  avg # of iterations =  2.0

     total cpu time spent up to now is       34.8 secs

     End of self-consistent calculation

     Number of k-points >= 100: set verbosity='high' to print the bands.

     the Fermi energy is     1.7681 ev

!    total energy              =     -95.10647287 Ry
     Harris-Foulkes estimate   =     -95.10647287 Ry
     estimated scf accuracy    <          5.3E-11 Ry

     The total energy is the sum of the following terms:

     one-electron contribution =     -87.29418466 Ry
     hartree contribution      =      44.07544189 Ry
     xc contribution           =     -14.27356334 Ry
     ewald contribution        =     -37.61409450 Ry
     smearing contrib. (-TS)   =      -0.00007226 Ry

     convergence has been achieved in   7 iterations

     Forces acting on atoms (cartesian axes, Ry/au):

     atom    1 type  1   force =     0.00000000    0.00000000    0.00000000

     Total force =     0.000000     Total SCF correction =     0.000000


     Computing stress (Cartesian axis) and pressure

          total   stress  (Ry/bohr**3)                   (kbar)     P=    0.28
   0.00000189  -0.00000000   0.00000000          0.28     -0.00      0.00
   0.00000000   0.00000189  -0.00000000          0.00      0.28     -0.00
   0.00000000  -0.00000000   0.00000189          0.00     -0.00      0.28


     bfgs converged in   2 scf cycles and   1 bfgs steps
     (criteria: energy <  1.0E-04 Ry, force <  1.0E-03Ry/Bohr, cell <  3.0E-01kbar)

     End of BFGS Geometry Optimization

     Final enthalpy =     -95.1064728723 Ry
Begin final coordinates
     new unit-cell volume =    240.61465 a.u.^3 (    35.65541 Ang^3 )
     density =      1.07069 g/cm^3

CELL_PARAMETERS (alat=  9.87265656)
  -0.500030687   0.000000000   0.500030687
   0.000000000   0.500030687   0.500030687
  -0.500030687   0.500030687   0.000000000

ATOMIC_POSITIONS (crystal)
Na       0.000000000   0.000000000   0.000000000
End final coordinates



     A final scf calculation at the relaxed structure.
     The G-vectors are recalculated for the final unit cell
     Results may differ from those at the preceding step.

     Parallelization info
     --------------------
     sticks:   dense  smooth     PW     G-vecs:    dense   smooth      PW
     Min         267     136     46                 5821     2072     397
     Max         268     137     47                 5825     2073     398
     Sum        1069     547    187                23289     8291    1591



     bravais-lattice index     =            2
     lattice parameter (alat)  =       9.8727  a.u.
     unit-cell volume          =     240.6146 (a.u.)^3
     number of atoms/cell      =            1
     number of atomic types    =            1
     number of electrons       =         9.00
     number of Kohn-Sham states=            9
     kinetic-energy cutoff     =      40.0000  Ry
     charge density cutoff     =     320.0000  Ry
     convergence threshold     =      1.0E-10
     mixing beta               =       0.7000
     number of iterations used =            8  plain     mixing
     Exchange-correlation      = SLA  PW   PBE  PBE ( 1  4  3  4 0 0)

     celldm(1)=   9.872657  celldm(2)=   0.000000  celldm(3)=   0.000000
     celldm(4)=   0.000000  celldm(5)=   0.000000  celldm(6)=   0.000000

     crystal axes: (cart. coord. in units of alat)
               a(1) = (  -0.500031   0.000000   0.500031 )  
               a(2) = (   0.000000   0.500031   0.500031 )  
               a(3) = (  -0.500031   0.500031   0.000000 )  

     reciprocal axes: (cart. coord. in units 2 pi/alat)
               b(1) = ( -0.999939 -0.999939  0.999939 )  
               b(2) = (  0.999939  0.999939  0.999939 )  
               b(3) = ( -0.999939  0.999939 -0.999939 )  


     PseudoPot. # 1 for Na read from file:
     /home/s1333534/quantum_espresso/qe-6.1/pseudo/Na_pbe_v1.uspp.F.UPF
     MD5 check sum: 76a99c7e9422403d3e93cbc85ab7bccb
     Pseudo is Ultrasoft, Zval =  9.0
     Generated by new atomic code, or converted to UPF format
     Using radial grid of  819 points,  5 beta functions with: 
                l(1) =   0
                l(2) =   0
                l(3) =   1
                l(4) =   1
                l(5) =   2
     Q(r) pseudized with  8 coefficients,  rinner =    1.250   1.250   1.250
                                                       1.250   1.250

     atomic species   valence    mass     pseudopotential
        Na             9.00    22.99000     Na( 1.00)

     48 Sym. Ops., with inversion, found



   Cartesian axes

     site n.     atom                  positions (alat units)
         1           Na  tau(   1) = (   0.0000000   0.0000000   0.0000000  )

     number of k points=   280  Marzari-Vanderbilt smearing, width (Ry)=  0.0200

     Number of k-points >= 100: set verbosity='high' to print them.

     Dense  grid:    23289 G-vectors     FFT dimensions: (  40,  40,  40)

     Smooth grid:     8291 G-vectors     FFT dimensions: (  30,  30,  30)

     Estimated max dynamical RAM per process >      13.69MB

     Estimated total allocated dynamical RAM >      54.78MB

     Initial potential from superposition of free atoms

     starting charge    8.99371, renormalised to    9.00000
     Starting wfc are    5 randomized atomic wfcs +    4 random wfc

     Writing output data file na.fcc.save

     total cpu time spent up to now is       37.5 secs

     per-process dynamical memory:    26.4 Mb

     Self-consistent Calculation

     iteration #  1     ecut=    40.00 Ry     beta=0.70
     Davidson diagonalization with overlap
     c_bands:  1 eigenvalues not converged
     c_bands:  1 eigenvalues not converged
     c_bands:  1 eigenvalues not converged
     c_bands:  1 eigenvalues not converged
     c_bands:  1 eigenvalues not converged
     c_bands:  1 eigenvalues not converged
     ethr =  1.00E-06,  avg # of iterations = 11.5

     total cpu time spent up to now is       43.4 secs

     total energy              =     -95.10635808 Ry
     Harris-Foulkes estimate   =     -95.10658692 Ry
     estimated scf accuracy    <       0.00089784 Ry

     iteration #  2     ecut=    40.00 Ry     beta=0.70
     Davidson diagonalization with overlap
     ethr =  9.98E-06,  avg # of iterations =  2.0

     total cpu time spent up to now is       45.4 secs

     total energy              =     -95.10646254 Ry
     Harris-Foulkes estimate   =     -95.10648613 Ry
     estimated scf accuracy    <       0.00010063 Ry

     iteration #  3     ecut=    40.00 Ry     beta=0.70
     Davidson diagonalization with overlap
     ethr =  1.12E-06,  avg # of iterations =  2.0

     total cpu time spent up to now is       47.5 secs

     total energy              =     -95.10647379 Ry
     Harris-Foulkes estimate   =     -95.10647504 Ry
     estimated scf accuracy    <       0.00000626 Ry

     iteration #  4     ecut=    40.00 Ry     beta=0.70
     Davidson diagonalization with overlap
     ethr =  6.95E-08,  avg # of iterations =  1.0

     total cpu time spent up to now is       49.3 secs

     total energy              =     -95.10647437 Ry
     Harris-Foulkes estimate   =     -95.10647432 Ry
     estimated scf accuracy    <          8.6E-09 Ry

     iteration #  5     ecut=    40.00 Ry     beta=0.70
     Davidson diagonalization with overlap
     ethr =  9.53E-11,  avg # of iterations =  3.0

     total cpu time spent up to now is       51.8 secs

     total energy              =     -95.10647440 Ry
     Harris-Foulkes estimate   =     -95.10647440 Ry
     estimated scf accuracy    <          1.6E-09 Ry

     iteration #  6     ecut=    40.00 Ry     beta=0.70
     Davidson diagonalization with overlap
     ethr =  1.81E-11,  avg # of iterations =  1.6

     total cpu time spent up to now is       53.6 secs

     End of self-consistent calculation

     Number of k-points >= 100: set verbosity='high' to print the bands.

     the Fermi energy is     1.7681 ev

!    total energy              =     -95.10647440 Ry
     Harris-Foulkes estimate   =     -95.10647440 Ry
     estimated scf accuracy    <          3.4E-11 Ry

     The total energy is the sum of the following terms:

     one-electron contribution =     -87.29423484 Ry
     hartree contribution      =      44.07550200 Ry
     xc contribution           =     -14.27357480 Ry
     ewald contribution        =     -37.61409450 Ry
     smearing contrib. (-TS)   =      -0.00007226 Ry

     convergence has been achieved in   6 iterations

     Forces acting on atoms (cartesian axes, Ry/au):

     atom    1 type  1   force =     0.00000000    0.00000000    0.00000000

     Total force =     0.000000     Total SCF correction =     0.000000


     Computing stress (Cartesian axis) and pressure

          total   stress  (Ry/bohr**3)                   (kbar)     P=    0.38
   0.00000258   0.00000000   0.00000000          0.38      0.00      0.00
  -0.00000000   0.00000258   0.00000000         -0.00      0.38      0.00
   0.00000000  -0.00000000   0.00000258          0.00     -0.00      0.38


     Writing output data file na.fcc.save

     init_run     :      2.10s CPU      2.19s WALL (       2 calls)
     electrons    :     45.58s CPU     48.15s WALL (       3 calls)
     update_pot   :      0.21s CPU      0.21s WALL (       1 calls)
     forces       :      0.40s CPU      0.41s WALL (       3 calls)
     stress       :      2.02s CPU      2.03s WALL (       3 calls)

     Called by init_run:
     wfcinit      :      1.32s CPU      1.39s WALL (       2 calls)
     potinit      :      0.10s CPU      0.10s WALL (       2 calls)

     Called by electrons:
     c_bands      :     37.56s CPU     39.69s WALL (      21 calls)
     sum_band     :      7.47s CPU      7.88s WALL (      21 calls)
     v_of_rho     :      0.26s CPU      0.27s WALL (      22 calls)
     newd         :      0.33s CPU      0.33s WALL (      22 calls)
     mix_rho      :      0.02s CPU      0.02s WALL (      21 calls)

     Called by c_bands:
     init_us_2    :      1.39s CPU      1.47s WALL (   14000 calls)
     cegterg      :     36.18s CPU     38.23s WALL (    5880 calls)

     Called by sum_band:
     sum_band:bec :      0.02s CPU      0.02s WALL (    5880 calls)
     addusdens    :      0.38s CPU      0.38s WALL (      21 calls)

     Called by *egterg:
     h_psi        :     31.73s CPU     33.55s WALL (   21217 calls)
     s_psi        :      0.29s CPU      0.30s WALL (   21217 calls)
     g_psi        :      0.17s CPU      0.18s WALL (   14777 calls)
     cdiaghg      :      2.83s CPU      2.98s WALL (   19817 calls)

     Called by h_psi:
     h_psi:pot    :     31.60s CPU     33.41s WALL (   21217 calls)
     h_psi:calbec :      0.47s CPU      0.50s WALL (   21217 calls)
     vloc_psi     :     30.75s CPU     32.51s WALL (   21217 calls)
     add_vuspsi   :      0.31s CPU      0.33s WALL (   21217 calls)

     General routines
     calbec       :      0.87s CPU      0.93s WALL (   31297 calls)
     fft          :      0.14s CPU      0.14s WALL (     373 calls)
     ffts         :      0.01s CPU      0.01s WALL (      43 calls)
     fftw         :     32.86s CPU     34.75s WALL (  336244 calls)
     interpolate  :      0.03s CPU      0.03s WALL (      43 calls)
     davcio       :      0.01s CPU      0.55s WALL (     560 calls)

     Parallel routines
     fft_scatter  :      5.70s CPU      6.10s WALL (  336660 calls)

     PWSCF        :    51.18s CPU        54.59s WALL


   This run was terminated on:  18:57:52  26Jan2018            

=------------------------------------------------------------------------------=
   JOB DONE.
=------------------------------------------------------------------------------=
