
     Program PHONON v.6.1 (svn rev. 13369) starts on 29Jan2018 at 10: 1:43 

     This program is part of the open-source Quantum ESPRESSO suite
     for quantum simulation of materials; please cite
         "P. Giannozzi et al., J. Phys.:Condens. Matter 21 395502 (2009);
          URL http://www.quantum-espresso.org", 
     in publications or presentations arising from this work. More details at
     http://www.quantum-espresso.org/quote

     Parallel version (MPI), running on    64 processors
     K-points division:     npool     =       4
     R & G space division:  proc/nbgrp/npool/nimage =      16

     Reading data from directory:
     ./na.fcc.save

   Info: using nr1, nr2, nr3 values from input

   Info: using nr1, nr2, nr3 values from input

     IMPORTANT: XC functional enforced from input :
     Exchange-correlation      = SLA  PW   PBE  PBE ( 1  4  3  4 0 0)
     Any further DFT definition will be discarded
     Please, verify this is what you really want


     Parallelization info
     --------------------
     sticks:   dense  smooth     PW     G-vecs:    dense   smooth      PW
     Min          68      34     11                 1497      523     101
     Max          69      35     12                 1499      526     103
     Sum        1099     547    187                23973     8393    1639



     Dynamical matrices for ( 6, 6, 6)  uniform grid of q-points
     (  16q-points):
       N         xq(1)         xq(2)         xq(3) 
       1   0.000000000   0.000000000   0.000000000
       2  -0.166666667   0.166666667  -0.166666667
       3  -0.333333333   0.333333333  -0.333333333
       4   0.500000000  -0.500000000   0.500000000
       5   0.000000000   0.333333333   0.000000000
       6  -0.166666667   0.500000000  -0.166666667
       7   0.666666667  -0.333333333   0.666666667
       8   0.500000000  -0.166666667   0.500000000
       9   0.333333333   0.000000000   0.333333333
      10   0.000000000   0.666666667   0.000000000
      11   0.833333333  -0.166666667   0.833333333
      12   0.666666667  -0.000000000   0.666666667
      13   0.000000000  -1.000000000   0.000000000
      14   0.666666667  -0.333333333   1.000000000
      15   0.500000000  -0.166666667   0.833333333
      16  -0.333333333  -1.000000000   0.000000000

     Calculation of q =    0.0000000   0.0000000   0.0000000

                                                                                

     bravais-lattice index     =            2
     lattice parameter (alat)  =       9.9699  a.u.
     unit-cell volume          =     247.7457 (a.u.)^3
     number of atoms/cell      =            1
     number of atomic types    =            1
     kinetic-energy cut-off    =      40.0000  Ry
     charge density cut-off    =     320.0000  Ry
     convergence threshold     =      1.0E-16
     beta                      =       0.7000
     number of iterations used =            4
     Exchange-correlation      = SLA  PW   PBE  PBE ( 1  4  3  4 0 0)


     celldm(1)=    9.96985  celldm(2)=    0.00000  celldm(3)=    0.00000
     celldm(4)=    0.00000  celldm(5)=    0.00000  celldm(6)=    0.00000

     crystal axes: (cart. coord. in units of alat)
               a(1) = ( -0.5000  0.0000  0.5000 )  
               a(2) = (  0.0000  0.5000  0.5000 )  
               a(3) = ( -0.5000  0.5000  0.0000 )  

     reciprocal axes: (cart. coord. in units 2 pi/alat)
               b(1) = ( -1.0000 -1.0000  1.0000 )  
               b(2) = (  1.0000  1.0000  1.0000 )  
               b(3) = ( -1.0000  1.0000 -1.0000 )  


     Atoms inside the unit cell: 

     Cartesian axes

     site n.  atom      mass           positions (alat units)
        1     Na  22.9900   tau(    1) = (    0.00000    0.00000    0.00000  )

     Computing dynamical matrix for 
                    q = (   0.0000000   0.0000000   0.0000000 )

     49 Sym.Ops. (with q -> -q+G )


     G cutoff =  805.6895  (   1498 G-vectors)     FFT grid: ( 45, 45, 45)
     G cutoff =  402.8447  (    525 G-vectors)  smooth grid: ( 30, 30, 30)

     number of k points=   770  Marzari-Vanderbilt smearing, width (Ry)=  0.0200

     PseudoPot. # 1 for Na read from file:
     /home/s1333534/quantum_espresso/qe-6.1/pseudo/Na_pbe_v1.uspp.F.UPF
     MD5 check sum: 76a99c7e9422403d3e93cbc85ab7bccb
     Pseudo is Ultrasoft, Zval =  9.0
     Generated by new atomic code, or converted to UPF format
     Using radial grid of  819 points,  5 beta functions with: 
                l(1) =   0
                l(2) =   0
                l(3) =   1
                l(4) =   1
                l(5) =   2
     Q(r) pseudized with  8 coefficients,  rinner =    1.250   1.250   1.250
                                                       1.250   1.250

     Mode symmetry, O_h (m-3m)  point group:


     Atomic displacements:
     There are   1 irreducible representations

     Representation     1      3 modes -T_1u G_15  G_4-  To be done



     Alpha used in Ewald sum =   2.8000
     PHONON       :     7.53s CPU         8.03s WALL



     Representation #  1 modes #   1  2  3

     Self-consistent Calculation

     Pert. #  1: Fermi energy shift (Ry) =     8.4011E-26     3.4481E-37
     Pert. #  2: Fermi energy shift (Ry) =    -5.9238E-26     2.0375E-37
     Pert. #  3: Fermi energy shift (Ry) =    -6.4623E-26     4.0750E-37

      iter #   1 total cpu time :    18.5 secs   av.it.:   5.4
      thresh= 1.000E-02 alpha_mix =  0.700 |ddv_scf|^2 =  8.825E-07

     Pert. #  1: Fermi energy shift (Ry) =    -2.5849E-26    -6.1224E-40
     Pert. #  2: Fermi energy shift (Ry) =     8.6165E-27     4.3622E-40
     Pert. #  3: Fermi energy shift (Ry) =     2.1541E-26    -2.4489E-40

      iter #   2 total cpu time :    31.2 secs   av.it.:   8.5
      thresh= 9.394E-05 alpha_mix =  0.700 |ddv_scf|^2 =  1.652E-08

     Pert. #  1: Fermi energy shift (Ry) =    -1.2925E-26     6.1224E-41
     Pert. #  2: Fermi energy shift (Ry) =    -2.1541E-27    -7.6530E-42
     Pert. #  3: Fermi energy shift (Ry) =    -1.0771E-26    -1.5306E-41

      iter #   3 total cpu time :    43.9 secs   av.it.:   8.6
      thresh= 1.285E-05 alpha_mix =  0.700 |ddv_scf|^2 =  3.484E-10

     Pert. #  1: Fermi energy shift (Ry) =    -6.0585E-28     0.0000E+00
     Pert. #  2: Fermi energy shift (Ry) =    -1.3732E-26     3.8265E-42
     Pert. #  3: Fermi energy shift (Ry) =     1.4810E-27    -1.1479E-41

      iter #   4 total cpu time :    56.0 secs   av.it.:   8.1
      thresh= 1.867E-06 alpha_mix =  0.700 |ddv_scf|^2 =  1.159E-12

     Pert. #  1: Fermi energy shift (Ry) =    -9.4243E-27     0.0000E+00
     Pert. #  2: Fermi energy shift (Ry) =     1.0232E-26    -1.1958E-42
     Pert. #  3: Fermi energy shift (Ry) =    -7.5394E-27    -4.7831E-43

      iter #   5 total cpu time :    68.6 secs   av.it.:   8.5
      thresh= 1.076E-07 alpha_mix =  0.700 |ddv_scf|^2 =  2.443E-15

     Pert. #  1: Fermi energy shift (Ry) =     1.1915E-26    -2.3915E-43
     Pert. #  2: Fermi energy shift (Ry) =     8.1453E-27    -4.7831E-43
     Pert. #  3: Fermi energy shift (Ry) =    -1.1814E-26     4.7831E-43

      iter #   6 total cpu time :    80.8 secs   av.it.:   8.1
      thresh= 4.943E-09 alpha_mix =  0.700 |ddv_scf|^2 =  5.883E-17

     End of self-consistent calculation

     Convergence has been achieved 

     Number of q in the star =    1
     List of q in the star:
          1   0.000000000   0.000000000   0.000000000

     Diagonalizing the dynamical matrix

     q = (    0.000000000   0.000000000   0.000000000 ) 

 **************************************************************************
     freq (    1) =      -0.415307 [THz] =     -13.853141 [cm-1]
     freq (    2) =      -0.415307 [THz] =     -13.853141 [cm-1]
     freq (    3) =      -0.415307 [THz] =     -13.853141 [cm-1]
 **************************************************************************

     Mode symmetry, O_h (m-3m)  point group:

     freq (  1 -  3) =        -13.9  [cm-1]   --> T_1u G_15  G_4- I  

     Calculation of q =   -0.1666667   0.1666667  -0.1666667

   Info: using nr1, nr2, nr3 values from input

   Info: using nr1, nr2, nr3 values from input

     Parallelization info
     --------------------
     sticks:   dense  smooth     PW     G-vecs:    dense   smooth      PW
     Min          68      34     12                 1497      523     112
     Max          69      35     13                 1499      526     114
     Sum        1099     547    199                23973     8393    1807



     bravais-lattice index     =            2
     lattice parameter (alat)  =       9.9699  a.u.
     unit-cell volume          =     247.7457 (a.u.)^3
     number of atoms/cell      =            1
     number of atomic types    =            1
     number of electrons       =         9.00
     number of Kohn-Sham states=            9
     kinetic-energy cutoff     =      40.0000  Ry
     charge density cutoff     =     320.0000  Ry
     Exchange-correlation      = SLA  PW   PBE  PBE ( 1  4  3  4 0 0)

     celldm(1)=   9.969852  celldm(2)=   0.000000  celldm(3)=   0.000000
     celldm(4)=   0.000000  celldm(5)=   0.000000  celldm(6)=   0.000000

     crystal axes: (cart. coord. in units of alat)
               a(1) = (  -0.500000   0.000000   0.500000 )  
               a(2) = (   0.000000   0.500000   0.500000 )  
               a(3) = (  -0.500000   0.500000   0.000000 )  

     reciprocal axes: (cart. coord. in units 2 pi/alat)
               b(1) = ( -1.000000 -1.000000  1.000000 )  
               b(2) = (  1.000000  1.000000  1.000000 )  
               b(3) = ( -1.000000  1.000000 -1.000000 )  


     PseudoPot. # 1 for Na read from file:
     /home/s1333534/quantum_espresso/qe-6.1/pseudo/Na_pbe_v1.uspp.F.UPF
     MD5 check sum: 76a99c7e9422403d3e93cbc85ab7bccb
     Pseudo is Ultrasoft, Zval =  9.0
     Generated by new atomic code, or converted to UPF format
     Using radial grid of  819 points,  5 beta functions with: 
                l(1) =   0
                l(2) =   0
                l(3) =   1
                l(4) =   1
                l(5) =   2
     Q(r) pseudized with  8 coefficients,  rinner =    1.250   1.250   1.250
                                                       1.250   1.250

     atomic species   valence    mass     pseudopotential
        Na             9.00    22.99000     Na( 1.00)

     48 Sym. Ops., with inversion, found



   Cartesian axes

     site n.     atom                  positions (alat units)
         1           Na  tau(   1) = (   0.0000000   0.0000000   0.0000000  )

     number of k points= 11480  Marzari-Vanderbilt smearing, width (Ry)=  0.0200

     Number of k-points >= 100: set verbosity='high' to print them.

     Dense  grid:    23973 G-vectors     FFT dimensions: (  45,  45,  45)

     Smooth grid:     8393 G-vectors     FFT dimensions: (  30,  30,  30)

     Estimated max dynamical RAM per process >       0.82MB

     Estimated total allocated dynamical RAM >      52.68MB

     The potential is recalculated from file :
     ./_ph0/na.fcc.save/charge-density.dat

     Starting wfc are    5 atomic +    4 random wfc

     Band Structure Calculation
     Davidson diagonalization with overlap

     ethr =  1.11E-10,  avg # of iterations = 19.9

     total cpu time spent up to now is      196.5 secs

     End of band structure calculation

     Number of k-points >= 100: set verbosity='high' to print the bands.

     the Fermi energy is     1.6444 ev

     Writing output data file na.fcc.save

                                                                                

     bravais-lattice index     =            2
     lattice parameter (alat)  =       9.9699  a.u.
     unit-cell volume          =     247.7457 (a.u.)^3
     number of atoms/cell      =            1
     number of atomic types    =            1
     kinetic-energy cut-off    =      40.0000  Ry
     charge density cut-off    =     320.0000  Ry
     convergence threshold     =      1.0E-16
     beta                      =       0.7000
     number of iterations used =            4
     Exchange-correlation      = SLA  PW   PBE  PBE ( 1  4  3  4 0 0)


     celldm(1)=    9.96985  celldm(2)=    0.00000  celldm(3)=    0.00000
     celldm(4)=    0.00000  celldm(5)=    0.00000  celldm(6)=    0.00000

     crystal axes: (cart. coord. in units of alat)
               a(1) = ( -0.5000  0.0000  0.5000 )  
               a(2) = (  0.0000  0.5000  0.5000 )  
               a(3) = ( -0.5000  0.5000  0.0000 )  

     reciprocal axes: (cart. coord. in units 2 pi/alat)
               b(1) = ( -1.0000 -1.0000  1.0000 )  
               b(2) = (  1.0000  1.0000  1.0000 )  
               b(3) = ( -1.0000  1.0000 -1.0000 )  


     Atoms inside the unit cell: 

     Cartesian axes

     site n.  atom      mass           positions (alat units)
        1     Na  22.9900   tau(    1) = (    0.00000    0.00000    0.00000  )

     Computing dynamical matrix for 
                    q = (  -0.1666667   0.1666667  -0.1666667 )

      6 Sym.Ops. (no q -> -q+G )


     G cutoff =  805.6895  (   1498 G-vectors)     FFT grid: ( 45, 45, 45)
     G cutoff =  402.8447  (    525 G-vectors)  smooth grid: ( 30, 30, 30)

     number of k points= 11480  Marzari-Vanderbilt smearing, width (Ry)=  0.0200

     PseudoPot. # 1 for Na read from file:
     /home/s1333534/quantum_espresso/qe-6.1/pseudo/Na_pbe_v1.uspp.F.UPF
     MD5 check sum: 76a99c7e9422403d3e93cbc85ab7bccb
     Pseudo is Ultrasoft, Zval =  9.0
     Generated by new atomic code, or converted to UPF format
     Using radial grid of  819 points,  5 beta functions with: 
                l(1) =   0
                l(2) =   0
                l(3) =   1
                l(4) =   1
                l(5) =   2
     Q(r) pseudized with  8 coefficients,  rinner =    1.250   1.250   1.250
                                                       1.250   1.250

     Mode symmetry, C_3v (3m)   point group:


     Atomic displacements:
     There are   2 irreducible representations

     Representation     1      1 modes -A_1  L_1  To be done

     Representation     2      2 modes -E    L_3  To be done



     Alpha used in Ewald sum =   2.8000
     PHONON       :  5m 1.89s CPU     5m20.13s WALL



     Representation #  1 mode #   1

     Self-consistent Calculation

      iter #   1 total cpu time :   344.3 secs   av.it.:   5.7
      thresh= 1.000E-02 alpha_mix =  0.700 |ddv_scf|^2 =  2.394E-02

      iter #   2 total cpu time :   368.2 secs   av.it.:   6.4
      thresh= 1.000E-02 alpha_mix =  0.700 |ddv_scf|^2 =  3.978E+00

      iter #   3 total cpu time :   391.3 secs   av.it.:   6.4
      thresh= 1.000E-02 alpha_mix =  0.700 |ddv_scf|^2 =  1.285E-07

      iter #   4 total cpu time :   419.2 secs   av.it.:   8.4
      thresh= 3.585E-05 alpha_mix =  0.700 |ddv_scf|^2 =  3.571E-08

      iter #   5 total cpu time :   445.3 secs   av.it.:   7.6
      thresh= 1.890E-05 alpha_mix =  0.700 |ddv_scf|^2 =  3.297E-09

      iter #   6 total cpu time :   471.7 secs   av.it.:   7.6
      thresh= 5.742E-06 alpha_mix =  0.700 |ddv_scf|^2 =  3.950E-08

      iter #   7 total cpu time :   488.8 secs   av.it.:   4.2
      thresh= 1.988E-05 alpha_mix =  0.700 |ddv_scf|^2 =  1.764E-10

      iter #   8 total cpu time :   515.7 secs   av.it.:   7.8
      thresh= 1.328E-06 alpha_mix =  0.700 |ddv_scf|^2 =  2.064E-11

      iter #   9 total cpu time :   540.4 secs   av.it.:   7.4
      thresh= 4.543E-07 alpha_mix =  0.700 |ddv_scf|^2 =  1.134E-12

      iter #  10 total cpu time :   565.4 secs   av.it.:   7.3
      thresh= 1.065E-07 alpha_mix =  0.700 |ddv_scf|^2 =  1.300E-13

      iter #  11 total cpu time :   590.3 secs   av.it.:   7.3
      thresh= 3.606E-08 alpha_mix =  0.700 |ddv_scf|^2 =  4.628E-16

      iter #  12 total cpu time :   616.8 secs   av.it.:   7.9
      thresh= 2.151E-09 alpha_mix =  0.700 |ddv_scf|^2 =  6.833E-16

      iter #  13 total cpu time :   639.3 secs   av.it.:   6.2
      thresh= 2.614E-09 alpha_mix =  0.700 |ddv_scf|^2 =  2.851E-15

      iter #  14 total cpu time :   661.9 secs   av.it.:   6.5
      thresh= 5.339E-09 alpha_mix =  0.700 |ddv_scf|^2 =  2.150E-18

     End of self-consistent calculation

     Convergence has been achieved 


     Representation #  2 modes #   2  3

     Self-consistent Calculation

      iter #   1 total cpu time :   709.9 secs   av.it.:   5.5
      thresh= 1.000E-02 alpha_mix =  0.700 |ddv_scf|^2 =  2.018E-06

      iter #   2 total cpu time :   765.9 secs   av.it.:   8.5
      thresh= 1.421E-04 alpha_mix =  0.700 |ddv_scf|^2 =  3.694E-08

      iter #   3 total cpu time :   822.7 secs   av.it.:   8.6
      thresh= 1.922E-05 alpha_mix =  0.700 |ddv_scf|^2 =  8.898E-10

      iter #   4 total cpu time :   880.4 secs   av.it.:   8.5
      thresh= 2.983E-06 alpha_mix =  0.700 |ddv_scf|^2 =  2.955E-12

      iter #   5 total cpu time :   938.4 secs   av.it.:   8.7
      thresh= 1.719E-07 alpha_mix =  0.700 |ddv_scf|^2 =  5.455E-15

      iter #   6 total cpu time :   993.1 secs   av.it.:   8.1
      thresh= 7.386E-09 alpha_mix =  0.700 |ddv_scf|^2 =  1.702E-16

      iter #   7 total cpu time :  1050.6 secs   av.it.:   8.6
      thresh= 1.305E-09 alpha_mix =  0.700 |ddv_scf|^2 =  1.491E-19

     End of self-consistent calculation

     Convergence has been achieved 

     Number of q in the star =    8
     List of q in the star:
          1  -0.166666667   0.166666667  -0.166666667
          2   0.166666667   0.166666667   0.166666667
          3  -0.166666667  -0.166666667  -0.166666667
          4   0.166666667  -0.166666667   0.166666667
          5   0.166666667  -0.166666667  -0.166666667
          6   0.166666667   0.166666667  -0.166666667
          7  -0.166666667  -0.166666667   0.166666667
          8  -0.166666667   0.166666667   0.166666667

     Diagonalizing the dynamical matrix

     q = (   -0.166666667   0.166666667  -0.166666667 ) 

 **************************************************************************
     freq (    1) =       0.835191 [THz] =      27.858989 [cm-1]
     freq (    2) =       0.835191 [THz] =      27.858989 [cm-1]
     freq (    3) =       2.044684 [THz] =      68.203330 [cm-1]
 **************************************************************************

     Mode symmetry, C_3v (3m)   point group:

     freq (  1 -  2) =         27.9  [cm-1]   --> E    L_3           
     freq (  3 -  3) =         68.2  [cm-1]   --> A_1  L_1           

     Calculation of q =   -0.3333333   0.3333333  -0.3333333

   Info: using nr1, nr2, nr3 values from input

   Info: using nr1, nr2, nr3 values from input

     Parallelization info
     --------------------
     sticks:   dense  smooth     PW     G-vecs:    dense   smooth      PW
     Min          68      34     12                 1497      523     117
     Max          69      35     13                 1499      526     120
     Sum        1099     547    199                23973     8393    1893



     bravais-lattice index     =            2
     lattice parameter (alat)  =       9.9699  a.u.
     unit-cell volume          =     247.7457 (a.u.)^3
     number of atoms/cell      =            1
     number of atomic types    =            1
     number of electrons       =         9.00
     number of Kohn-Sham states=            9
     kinetic-energy cutoff     =      40.0000  Ry
     charge density cutoff     =     320.0000  Ry
     Exchange-correlation      = SLA  PW   PBE  PBE ( 1  4  3  4 0 0)

     celldm(1)=   9.969852  celldm(2)=   0.000000  celldm(3)=   0.000000
     celldm(4)=   0.000000  celldm(5)=   0.000000  celldm(6)=   0.000000

     crystal axes: (cart. coord. in units of alat)
               a(1) = (  -0.500000   0.000000   0.500000 )  
               a(2) = (   0.000000   0.500000   0.500000 )  
               a(3) = (  -0.500000   0.500000   0.000000 )  

     reciprocal axes: (cart. coord. in units 2 pi/alat)
               b(1) = ( -1.000000 -1.000000  1.000000 )  
               b(2) = (  1.000000  1.000000  1.000000 )  
               b(3) = ( -1.000000  1.000000 -1.000000 )  


     PseudoPot. # 1 for Na read from file:
     /home/s1333534/quantum_espresso/qe-6.1/pseudo/Na_pbe_v1.uspp.F.UPF
     MD5 check sum: 76a99c7e9422403d3e93cbc85ab7bccb
     Pseudo is Ultrasoft, Zval =  9.0
     Generated by new atomic code, or converted to UPF format
     Using radial grid of  819 points,  5 beta functions with: 
                l(1) =   0
                l(2) =   0
                l(3) =   1
                l(4) =   1
                l(5) =   2
     Q(r) pseudized with  8 coefficients,  rinner =    1.250   1.250   1.250
                                                       1.250   1.250

     atomic species   valence    mass     pseudopotential
        Na             9.00    22.99000     Na( 1.00)

     48 Sym. Ops., with inversion, found



   Cartesian axes

     site n.     atom                  positions (alat units)
         1           Na  tau(   1) = (   0.0000000   0.0000000   0.0000000  )

     number of k points= 11480  Marzari-Vanderbilt smearing, width (Ry)=  0.0200

     Number of k-points >= 100: set verbosity='high' to print them.

     Dense  grid:    23973 G-vectors     FFT dimensions: (  45,  45,  45)

     Smooth grid:     8393 G-vectors     FFT dimensions: (  30,  30,  30)

     Estimated max dynamical RAM per process >       0.82MB

     Estimated total allocated dynamical RAM >      52.68MB

     The potential is recalculated from file :
     ./_ph0/na.fcc.save/charge-density.dat

     Starting wfc are    5 atomic +    4 random wfc

     Band Structure Calculation
     Davidson diagonalization with overlap

     ethr =  1.11E-10,  avg # of iterations = 19.9

     total cpu time spent up to now is      422.5 secs

     End of band structure calculation

     Number of k-points >= 100: set verbosity='high' to print the bands.

     the Fermi energy is     1.6444 ev

     Writing output data file na.fcc.save

                                                                                

     bravais-lattice index     =            2
     lattice parameter (alat)  =       9.9699  a.u.
     unit-cell volume          =     247.7457 (a.u.)^3
     number of atoms/cell      =            1
     number of atomic types    =            1
     kinetic-energy cut-off    =      40.0000  Ry
     charge density cut-off    =     320.0000  Ry
     convergence threshold     =      1.0E-16
     beta                      =       0.7000
     number of iterations used =            4
     Exchange-correlation      = SLA  PW   PBE  PBE ( 1  4  3  4 0 0)


     celldm(1)=    9.96985  celldm(2)=    0.00000  celldm(3)=    0.00000
     celldm(4)=    0.00000  celldm(5)=    0.00000  celldm(6)=    0.00000

     crystal axes: (cart. coord. in units of alat)
               a(1) = ( -0.5000  0.0000  0.5000 )  
               a(2) = (  0.0000  0.5000  0.5000 )  
               a(3) = ( -0.5000  0.5000  0.0000 )  

     reciprocal axes: (cart. coord. in units 2 pi/alat)
               b(1) = ( -1.0000 -1.0000  1.0000 )  
               b(2) = (  1.0000  1.0000  1.0000 )  
               b(3) = ( -1.0000  1.0000 -1.0000 )  


     Atoms inside the unit cell: 

     Cartesian axes

     site n.  atom      mass           positions (alat units)
        1     Na  22.9900   tau(    1) = (    0.00000    0.00000    0.00000  )

     Computing dynamical matrix for 
                    q = (  -0.3333333   0.3333333  -0.3333333 )

      6 Sym.Ops. (no q -> -q+G )


     G cutoff =  805.6895  (   1498 G-vectors)     FFT grid: ( 45, 45, 45)
     G cutoff =  402.8447  (    525 G-vectors)  smooth grid: ( 30, 30, 30)

     number of k points= 11480  Marzari-Vanderbilt smearing, width (Ry)=  0.0200

     PseudoPot. # 1 for Na read from file:
     /home/s1333534/quantum_espresso/qe-6.1/pseudo/Na_pbe_v1.uspp.F.UPF
     MD5 check sum: 76a99c7e9422403d3e93cbc85ab7bccb
     Pseudo is Ultrasoft, Zval =  9.0
     Generated by new atomic code, or converted to UPF format
     Using radial grid of  819 points,  5 beta functions with: 
                l(1) =   0
                l(2) =   0
                l(3) =   1
                l(4) =   1
                l(5) =   2
     Q(r) pseudized with  8 coefficients,  rinner =    1.250   1.250   1.250
                                                       1.250   1.250

     Mode symmetry, C_3v (3m)   point group:


     Atomic displacements:
     There are   2 irreducible representations

     Representation     1      1 modes -A_1  L_1  To be done

     Representation     2      2 modes -E    L_3  To be done



     Alpha used in Ewald sum =   2.8000
     PHONON       : 19m56.80s CPU    21m27.26s WALL



     Representation #  1 mode #   1

     Self-consistent Calculation

      iter #   1 total cpu time :  1311.3 secs   av.it.:   5.7
      thresh= 1.000E-02 alpha_mix =  0.700 |ddv_scf|^2 =  4.026E-04

      iter #   2 total cpu time :  1336.0 secs   av.it.:   6.8
      thresh= 2.006E-03 alpha_mix =  0.700 |ddv_scf|^2 =  2.669E-03

      iter #   3 total cpu time :  1357.7 secs   av.it.:   5.8
      thresh= 5.166E-03 alpha_mix =  0.700 |ddv_scf|^2 =  4.456E-07

      iter #   4 total cpu time :  1384.4 secs   av.it.:   7.8
      thresh= 6.676E-05 alpha_mix =  0.700 |ddv_scf|^2 =  7.483E-09

      iter #   5 total cpu time :  1412.3 secs   av.it.:   8.4
      thresh= 8.651E-06 alpha_mix =  0.700 |ddv_scf|^2 =  2.805E-10

      iter #   6 total cpu time :  1439.8 secs   av.it.:   8.3
      thresh= 1.675E-06 alpha_mix =  0.700 |ddv_scf|^2 =  1.689E-11

      iter #   7 total cpu time :  1466.6 secs   av.it.:   7.9
      thresh= 4.110E-07 alpha_mix =  0.700 |ddv_scf|^2 =  5.416E-13

      iter #   8 total cpu time :  1493.9 secs   av.it.:   8.2
      thresh= 7.359E-08 alpha_mix =  0.700 |ddv_scf|^2 =  2.260E-14

      iter #   9 total cpu time :  1519.1 secs   av.it.:   7.3
      thresh= 1.503E-08 alpha_mix =  0.700 |ddv_scf|^2 =  1.126E-13

      iter #  10 total cpu time :  1542.8 secs   av.it.:   6.5
      thresh= 3.356E-08 alpha_mix =  0.700 |ddv_scf|^2 =  6.023E-16

      iter #  11 total cpu time :  1569.2 secs   av.it.:   7.7
      thresh= 2.454E-09 alpha_mix =  0.700 |ddv_scf|^2 =  4.525E-17

     End of self-consistent calculation

     Convergence has been achieved 


     Representation #  2 modes #   2  3

     Self-consistent Calculation

      iter #   1 total cpu time :  1617.5 secs   av.it.:   5.6
      thresh= 1.000E-02 alpha_mix =  0.700 |ddv_scf|^2 =  2.081E-06

      iter #   2 total cpu time :  1674.2 secs   av.it.:   8.5
      thresh= 1.442E-04 alpha_mix =  0.700 |ddv_scf|^2 =  3.664E-08

      iter #   3 total cpu time :  1732.8 secs   av.it.:   8.7
      thresh= 1.914E-05 alpha_mix =  0.700 |ddv_scf|^2 =  1.085E-09

      iter #   4 total cpu time :  1789.3 secs   av.it.:   8.5
      thresh= 3.294E-06 alpha_mix =  0.700 |ddv_scf|^2 =  3.589E-12

      iter #   5 total cpu time :  1847.3 secs   av.it.:   8.7
      thresh= 1.895E-07 alpha_mix =  0.700 |ddv_scf|^2 =  5.669E-15

      iter #   6 total cpu time :  1901.5 secs   av.it.:   7.9
      thresh= 7.529E-09 alpha_mix =  0.700 |ddv_scf|^2 =  2.337E-16

      iter #   7 total cpu time :  1958.8 secs   av.it.:   8.7
      thresh= 1.529E-09 alpha_mix =  0.700 |ddv_scf|^2 =  2.442E-19

     End of self-consistent calculation

     Convergence has been achieved 

     Number of q in the star =    8
     List of q in the star:
          1  -0.333333333   0.333333333  -0.333333333
          2   0.333333333   0.333333333   0.333333333
          3  -0.333333333  -0.333333333  -0.333333333
          4   0.333333333  -0.333333333   0.333333333
          5   0.333333333  -0.333333333  -0.333333333
          6   0.333333333   0.333333333  -0.333333333
          7  -0.333333333  -0.333333333   0.333333333
          8  -0.333333333   0.333333333   0.333333333

     Diagonalizing the dynamical matrix

     q = (   -0.333333333   0.333333333  -0.333333333 ) 

 **************************************************************************
     freq (    1) =       1.456708 [THz] =      48.590562 [cm-1]
     freq (    2) =       1.456708 [THz] =      48.590562 [cm-1]
     freq (    3) =       3.462787 [THz] =     115.506135 [cm-1]
 **************************************************************************

     Mode symmetry, C_3v (3m)   point group:

     freq (  1 -  2) =         48.6  [cm-1]   --> E    L_3           
     freq (  3 -  3) =        115.5  [cm-1]   --> A_1  L_1           

     Calculation of q =    0.5000000  -0.5000000   0.5000000

   Info: using nr1, nr2, nr3 values from input

   Info: using nr1, nr2, nr3 values from input

     Parallelization info
     --------------------
     sticks:   dense  smooth     PW     G-vecs:    dense   smooth      PW
     Min          68      34     13                 1497      523     123
     Max          69      35     14                 1499      526     126
     Sum        1099     547    211                23973     8393    1989



     bravais-lattice index     =            2
     lattice parameter (alat)  =       9.9699  a.u.
     unit-cell volume          =     247.7457 (a.u.)^3
     number of atoms/cell      =            1
     number of atomic types    =            1
     number of electrons       =         9.00
     number of Kohn-Sham states=            9
     kinetic-energy cutoff     =      40.0000  Ry
     charge density cutoff     =     320.0000  Ry
     Exchange-correlation      = SLA  PW   PBE  PBE ( 1  4  3  4 0 0)

     celldm(1)=   9.969852  celldm(2)=   0.000000  celldm(3)=   0.000000
     celldm(4)=   0.000000  celldm(5)=   0.000000  celldm(6)=   0.000000

     crystal axes: (cart. coord. in units of alat)
               a(1) = (  -0.500000   0.000000   0.500000 )  
               a(2) = (   0.000000   0.500000   0.500000 )  
               a(3) = (  -0.500000   0.500000   0.000000 )  

     reciprocal axes: (cart. coord. in units 2 pi/alat)
               b(1) = ( -1.000000 -1.000000  1.000000 )  
               b(2) = (  1.000000  1.000000  1.000000 )  
               b(3) = ( -1.000000  1.000000 -1.000000 )  


     PseudoPot. # 1 for Na read from file:
     /home/s1333534/quantum_espresso/qe-6.1/pseudo/Na_pbe_v1.uspp.F.UPF
     MD5 check sum: 76a99c7e9422403d3e93cbc85ab7bccb
     Pseudo is Ultrasoft, Zval =  9.0
     Generated by new atomic code, or converted to UPF format
     Using radial grid of  819 points,  5 beta functions with: 
                l(1) =   0
                l(2) =   0
                l(3) =   1
                l(4) =   1
                l(5) =   2
     Q(r) pseudized with  8 coefficients,  rinner =    1.250   1.250   1.250
                                                       1.250   1.250

     atomic species   valence    mass     pseudopotential
        Na             9.00    22.99000     Na( 1.00)

     48 Sym. Ops., with inversion, found



   Cartesian axes

     site n.     atom                  positions (alat units)
         1           Na  tau(   1) = (   0.0000000   0.0000000   0.0000000  )

     number of k points=  5740  Marzari-Vanderbilt smearing, width (Ry)=  0.0200

     Number of k-points >= 100: set verbosity='high' to print them.

     Dense  grid:    23973 G-vectors     FFT dimensions: (  45,  45,  45)

     Smooth grid:     8393 G-vectors     FFT dimensions: (  30,  30,  30)

     Estimated max dynamical RAM per process >       0.82MB

     Estimated total allocated dynamical RAM >      52.68MB

     The potential is recalculated from file :
     ./_ph0/na.fcc.save/charge-density.dat

     Starting wfc are    5 atomic +    4 random wfc

     Band Structure Calculation
     Davidson diagonalization with overlap

     ethr =  1.11E-10,  avg # of iterations = 19.9

     total cpu time spent up to now is      552.7 secs

     End of band structure calculation

     Number of k-points >= 100: set verbosity='high' to print the bands.

     the Fermi energy is     1.6444 ev

     Writing output data file na.fcc.save

                                                                                

     bravais-lattice index     =            2
     lattice parameter (alat)  =       9.9699  a.u.
     unit-cell volume          =     247.7457 (a.u.)^3
     number of atoms/cell      =            1
     number of atomic types    =            1
     kinetic-energy cut-off    =      40.0000  Ry
     charge density cut-off    =     320.0000  Ry
     convergence threshold     =      1.0E-16
     beta                      =       0.7000
     number of iterations used =            4
     Exchange-correlation      = SLA  PW   PBE  PBE ( 1  4  3  4 0 0)


     celldm(1)=    9.96985  celldm(2)=    0.00000  celldm(3)=    0.00000
     celldm(4)=    0.00000  celldm(5)=    0.00000  celldm(6)=    0.00000

     crystal axes: (cart. coord. in units of alat)
               a(1) = ( -0.5000  0.0000  0.5000 )  
               a(2) = (  0.0000  0.5000  0.5000 )  
               a(3) = ( -0.5000  0.5000  0.0000 )  

     reciprocal axes: (cart. coord. in units 2 pi/alat)
               b(1) = ( -1.0000 -1.0000  1.0000 )  
               b(2) = (  1.0000  1.0000  1.0000 )  
               b(3) = ( -1.0000  1.0000 -1.0000 )  


     Atoms inside the unit cell: 

     Cartesian axes

     site n.  atom      mass           positions (alat units)
        1     Na  22.9900   tau(    1) = (    0.00000    0.00000    0.00000  )

     Computing dynamical matrix for 
                    q = (   0.5000000  -0.5000000   0.5000000 )

     13 Sym.Ops. (with q -> -q+G )


     G cutoff =  805.6895  (   1498 G-vectors)     FFT grid: ( 45, 45, 45)
     G cutoff =  402.8447  (    525 G-vectors)  smooth grid: ( 30, 30, 30)

     number of k points=  5740  Marzari-Vanderbilt smearing, width (Ry)=  0.0200

     PseudoPot. # 1 for Na read from file:
     /home/s1333534/quantum_espresso/qe-6.1/pseudo/Na_pbe_v1.uspp.F.UPF
     MD5 check sum: 76a99c7e9422403d3e93cbc85ab7bccb
     Pseudo is Ultrasoft, Zval =  9.0
     Generated by new atomic code, or converted to UPF format
     Using radial grid of  819 points,  5 beta functions with: 
                l(1) =   0
                l(2) =   0
                l(3) =   1
                l(4) =   1
                l(5) =   2
     Q(r) pseudized with  8 coefficients,  rinner =    1.250   1.250   1.250
                                                       1.250   1.250

     Mode symmetry, D_3d (-3m)  point group:


     Atomic displacements:
     There are   2 irreducible representations

     Representation     1      1 modes -A_2u L_2'  To be done

     Representation     2      2 modes -E_u  L_3'  To be done



     Alpha used in Ewald sum =   2.8000
     PHONON       : 32m 6.78s CPU    34m39.79s WALL



     Representation #  1 mode #   1

     Self-consistent Calculation

      iter #   1 total cpu time :  2092.4 secs   av.it.:   5.7
      thresh= 1.000E-02 alpha_mix =  0.700 |ddv_scf|^2 =  8.054E-05

      iter #   2 total cpu time :  2105.2 secs   av.it.:   6.9
      thresh= 8.975E-04 alpha_mix =  0.700 |ddv_scf|^2 =  4.997E-05

      iter #   3 total cpu time :  2118.0 secs   av.it.:   6.7
      thresh= 7.069E-04 alpha_mix =  0.700 |ddv_scf|^2 =  6.179E-08

      iter #   4 total cpu time :  2132.3 secs   av.it.:   8.0
      thresh= 2.486E-05 alpha_mix =  0.700 |ddv_scf|^2 =  2.537E-10

      iter #   5 total cpu time :  2145.3 secs   av.it.:   7.1
      thresh= 1.593E-06 alpha_mix =  0.700 |ddv_scf|^2 =  5.071E-12

      iter #   6 total cpu time :  2157.9 secs   av.it.:   6.8
      thresh= 2.252E-07 alpha_mix =  0.700 |ddv_scf|^2 =  1.439E-14

      iter #   7 total cpu time :  2171.4 secs   av.it.:   7.6
      thresh= 1.199E-08 alpha_mix =  0.700 |ddv_scf|^2 =  2.946E-17

     End of self-consistent calculation

     Convergence has been achieved 


     Representation #  2 modes #   2  3

     Self-consistent Calculation

      iter #   1 total cpu time :  2196.3 secs   av.it.:   5.4
      thresh= 1.000E-02 alpha_mix =  0.700 |ddv_scf|^2 =  2.110E-06

      iter #   2 total cpu time :  2225.5 secs   av.it.:   8.4
      thresh= 1.452E-04 alpha_mix =  0.700 |ddv_scf|^2 =  3.649E-08

      iter #   3 total cpu time :  2254.7 secs   av.it.:   8.6
      thresh= 1.910E-05 alpha_mix =  0.700 |ddv_scf|^2 =  1.162E-09

      iter #   4 total cpu time :  2282.5 secs   av.it.:   8.0
      thresh= 3.409E-06 alpha_mix =  0.700 |ddv_scf|^2 =  3.877E-12

      iter #   5 total cpu time :  2312.6 secs   av.it.:   8.3
      thresh= 1.969E-07 alpha_mix =  0.700 |ddv_scf|^2 =  5.859E-15

      iter #   6 total cpu time :  2339.4 secs   av.it.:   7.6
      thresh= 7.654E-09 alpha_mix =  0.700 |ddv_scf|^2 =  2.582E-16

      iter #   7 total cpu time :  2368.9 secs   av.it.:   8.3
      thresh= 1.607E-09 alpha_mix =  0.700 |ddv_scf|^2 =  2.411E-19

     End of self-consistent calculation

     Convergence has been achieved 

     Number of q in the star =    4
     List of q in the star:
          1   0.500000000  -0.500000000   0.500000000
          2   0.500000000   0.500000000   0.500000000
          3  -0.500000000   0.500000000   0.500000000
          4   0.500000000   0.500000000  -0.500000000

     Diagonalizing the dynamical matrix

     q = (    0.500000000  -0.500000000   0.500000000 ) 

 **************************************************************************
     freq (    1) =       1.710966 [THz] =      57.071678 [cm-1]
     freq (    2) =       1.710966 [THz] =      57.071678 [cm-1]
     freq (    3) =       3.976820 [THz] =     132.652430 [cm-1]
 **************************************************************************

     Mode symmetry, D_3d (-3m)  point group:

     freq (  1 -  2) =         57.1  [cm-1]   --> E_u  L_3'          
     freq (  3 -  3) =        132.7  [cm-1]   --> A_2u L_2'          

     Calculation of q =    0.0000000   0.3333333   0.0000000

   Info: using nr1, nr2, nr3 values from input

   Info: using nr1, nr2, nr3 values from input

     Parallelization info
     --------------------
     sticks:   dense  smooth     PW     G-vecs:    dense   smooth      PW
     Min          68      34     12                 1497      523     112
     Max          69      35     13                 1499      526     114
     Sum        1099     547    199                23973     8393    1807



     bravais-lattice index     =            2
     lattice parameter (alat)  =       9.9699  a.u.
     unit-cell volume          =     247.7457 (a.u.)^3
     number of atoms/cell      =            1
     number of atomic types    =            1
     number of electrons       =         9.00
     number of Kohn-Sham states=            9
     kinetic-energy cutoff     =      40.0000  Ry
     charge density cutoff     =     320.0000  Ry
     Exchange-correlation      = SLA  PW   PBE  PBE ( 1  4  3  4 0 0)

     celldm(1)=   9.969852  celldm(2)=   0.000000  celldm(3)=   0.000000
     celldm(4)=   0.000000  celldm(5)=   0.000000  celldm(6)=   0.000000

     crystal axes: (cart. coord. in units of alat)
               a(1) = (  -0.500000   0.000000   0.500000 )  
               a(2) = (   0.000000   0.500000   0.500000 )  
               a(3) = (  -0.500000   0.500000   0.000000 )  

     reciprocal axes: (cart. coord. in units 2 pi/alat)
               b(1) = ( -1.000000 -1.000000  1.000000 )  
               b(2) = (  1.000000  1.000000  1.000000 )  
               b(3) = ( -1.000000  1.000000 -1.000000 )  


     PseudoPot. # 1 for Na read from file:
     /home/s1333534/quantum_espresso/qe-6.1/pseudo/Na_pbe_v1.uspp.F.UPF
     MD5 check sum: 76a99c7e9422403d3e93cbc85ab7bccb
     Pseudo is Ultrasoft, Zval =  9.0
     Generated by new atomic code, or converted to UPF format
     Using radial grid of  819 points,  5 beta functions with: 
                l(1) =   0
                l(2) =   0
                l(3) =   1
                l(4) =   1
                l(5) =   2
     Q(r) pseudized with  8 coefficients,  rinner =    1.250   1.250   1.250
                                                       1.250   1.250

     atomic species   valence    mass     pseudopotential
        Na             9.00    22.99000     Na( 1.00)

     48 Sym. Ops., with inversion, found



   Cartesian axes

     site n.     atom                  positions (alat units)
         1           Na  tau(   1) = (   0.0000000   0.0000000   0.0000000  )

     number of k points=  8400  Marzari-Vanderbilt smearing, width (Ry)=  0.0200

     Number of k-points >= 100: set verbosity='high' to print them.

     Dense  grid:    23973 G-vectors     FFT dimensions: (  45,  45,  45)

     Smooth grid:     8393 G-vectors     FFT dimensions: (  30,  30,  30)

     Estimated max dynamical RAM per process >       0.82MB

     Estimated total allocated dynamical RAM >      52.68MB

     The potential is recalculated from file :
     ./_ph0/na.fcc.save/charge-density.dat

     Starting wfc are    5 atomic +    4 random wfc

     Band Structure Calculation
     Davidson diagonalization with overlap

     ethr =  1.11E-10,  avg # of iterations = 19.9

     total cpu time spent up to now is      710.6 secs

     End of band structure calculation

     Number of k-points >= 100: set verbosity='high' to print the bands.

     the Fermi energy is     1.6444 ev

     Writing output data file na.fcc.save

                                                                                

     bravais-lattice index     =            2
     lattice parameter (alat)  =       9.9699  a.u.
     unit-cell volume          =     247.7457 (a.u.)^3
     number of atoms/cell      =            1
     number of atomic types    =            1
     kinetic-energy cut-off    =      40.0000  Ry
     charge density cut-off    =     320.0000  Ry
     convergence threshold     =      1.0E-16
     beta                      =       0.7000
     number of iterations used =            4
     Exchange-correlation      = SLA  PW   PBE  PBE ( 1  4  3  4 0 0)


     celldm(1)=    9.96985  celldm(2)=    0.00000  celldm(3)=    0.00000
     celldm(4)=    0.00000  celldm(5)=    0.00000  celldm(6)=    0.00000

     crystal axes: (cart. coord. in units of alat)
               a(1) = ( -0.5000  0.0000  0.5000 )  
               a(2) = (  0.0000  0.5000  0.5000 )  
               a(3) = ( -0.5000  0.5000  0.0000 )  

     reciprocal axes: (cart. coord. in units 2 pi/alat)
               b(1) = ( -1.0000 -1.0000  1.0000 )  
               b(2) = (  1.0000  1.0000  1.0000 )  
               b(3) = ( -1.0000  1.0000 -1.0000 )  


     Atoms inside the unit cell: 

     Cartesian axes

     site n.  atom      mass           positions (alat units)
        1     Na  22.9900   tau(    1) = (    0.00000    0.00000    0.00000  )

     Computing dynamical matrix for 
                    q = (   0.0000000   0.3333333   0.0000000 )

      8 Sym.Ops. (no q -> -q+G )


     G cutoff =  805.6895  (   1498 G-vectors)     FFT grid: ( 45, 45, 45)
     G cutoff =  402.8447  (    525 G-vectors)  smooth grid: ( 30, 30, 30)

     number of k points=  8400  Marzari-Vanderbilt smearing, width (Ry)=  0.0200

     PseudoPot. # 1 for Na read from file:
     /home/s1333534/quantum_espresso/qe-6.1/pseudo/Na_pbe_v1.uspp.F.UPF
     MD5 check sum: 76a99c7e9422403d3e93cbc85ab7bccb
     Pseudo is Ultrasoft, Zval =  9.0
     Generated by new atomic code, or converted to UPF format
     Using radial grid of  819 points,  5 beta functions with: 
                l(1) =   0
                l(2) =   0
                l(3) =   1
                l(4) =   1
                l(5) =   2
     Q(r) pseudized with  8 coefficients,  rinner =    1.250   1.250   1.250
                                                       1.250   1.250

     Mode symmetry, C_4v (4mm)  point group:


     Atomic displacements:
     There are   2 irreducible representations

     Representation     1      1 modes -A_1  G_1 D_1  To be done

     Representation     2      2 modes -E    G_5 D_5  To be done



     Alpha used in Ewald sum =   2.8000
     PHONON       : 39m17.65s CPU    42m22.51s WALL



     Representation #  1 mode #   1

     Self-consistent Calculation

      iter #   1 total cpu time :  2560.0 secs   av.it.:   5.7
      thresh= 1.000E-02 alpha_mix =  0.700 |ddv_scf|^2 =  1.021E-02

      iter #   2 total cpu time :  2576.6 secs   av.it.:   6.2
      thresh= 1.000E-02 alpha_mix =  0.700 |ddv_scf|^2 =  9.188E-01

      iter #   3 total cpu time :  2593.4 secs   av.it.:   6.2
      thresh= 1.000E-02 alpha_mix =  0.700 |ddv_scf|^2 =  1.271E-06

      iter #   4 total cpu time :  2612.7 secs   av.it.:   7.6
      thresh= 1.127E-04 alpha_mix =  0.700 |ddv_scf|^2 =  4.020E-08

      iter #   5 total cpu time :  2631.9 secs   av.it.:   7.6
      thresh= 2.005E-05 alpha_mix =  0.700 |ddv_scf|^2 =  1.374E-09

      iter #   6 total cpu time :  2651.2 secs   av.it.:   7.7
      thresh= 3.707E-06 alpha_mix =  0.700 |ddv_scf|^2 =  1.698E-10

      iter #   7 total cpu time :  2669.9 secs   av.it.:   7.5
      thresh= 1.303E-06 alpha_mix =  0.700 |ddv_scf|^2 =  3.477E-09

      iter #   8 total cpu time :  2686.1 secs   av.it.:   6.0
      thresh= 5.897E-06 alpha_mix =  0.700 |ddv_scf|^2 =  3.656E-11

      iter #   9 total cpu time :  2703.8 secs   av.it.:   6.9
      thresh= 6.047E-07 alpha_mix =  0.700 |ddv_scf|^2 =  1.532E-12

      iter #  10 total cpu time :  2721.8 secs   av.it.:   7.0
      thresh= 1.238E-07 alpha_mix =  0.700 |ddv_scf|^2 =  3.733E-14

      iter #  11 total cpu time :  2740.9 secs   av.it.:   7.6
      thresh= 1.932E-08 alpha_mix =  0.700 |ddv_scf|^2 =  2.737E-16

      iter #  12 total cpu time :  2760.3 secs   av.it.:   7.9
      thresh= 1.654E-09 alpha_mix =  0.700 |ddv_scf|^2 =  5.415E-17

     End of self-consistent calculation

     Convergence has been achieved 


     Representation #  2 modes #   2  3

     Self-consistent Calculation

      iter #   1 total cpu time :  2795.3 secs   av.it.:   5.5
      thresh= 1.000E-02 alpha_mix =  0.700 |ddv_scf|^2 =  2.128E-06

      iter #   2 total cpu time :  2837.3 secs   av.it.:   8.5
      thresh= 1.459E-04 alpha_mix =  0.700 |ddv_scf|^2 =  3.582E-08

      iter #   3 total cpu time :  2879.9 secs   av.it.:   8.6
      thresh= 1.893E-05 alpha_mix =  0.700 |ddv_scf|^2 =  1.332E-09

      iter #   4 total cpu time :  2921.4 secs   av.it.:   8.4
      thresh= 3.650E-06 alpha_mix =  0.700 |ddv_scf|^2 =  4.233E-12

      iter #   5 total cpu time :  2964.5 secs   av.it.:   8.7
      thresh= 2.057E-07 alpha_mix =  0.700 |ddv_scf|^2 =  4.880E-15

      iter #   6 total cpu time :  3003.5 secs   av.it.:   7.8
      thresh= 6.986E-09 alpha_mix =  0.700 |ddv_scf|^2 =  2.224E-16

      iter #   7 total cpu time :  3045.5 secs   av.it.:   8.6
      thresh= 1.491E-09 alpha_mix =  0.700 |ddv_scf|^2 =  9.182E-20

     End of self-consistent calculation

     Convergence has been achieved 

     Number of q in the star =    6
     List of q in the star:
          1   0.000000000   0.333333333   0.000000000
          2   0.333333333   0.000000000   0.000000000
          3   0.000000000   0.000000000   0.333333333
          4   0.000000000  -0.333333333   0.000000000
          5  -0.333333333   0.000000000   0.000000000
          6   0.000000000   0.000000000  -0.333333333

     Diagonalizing the dynamical matrix

     q = (    0.000000000   0.333333333   0.000000000 ) 

 **************************************************************************
     freq (    1) =       1.454344 [THz] =      48.511700 [cm-1]
     freq (    2) =       1.454344 [THz] =      48.511700 [cm-1]
     freq (    3) =       1.863427 [THz] =      62.157219 [cm-1]
 **************************************************************************

     Mode symmetry, C_4v (4mm)  point group:

     freq (  1 -  2) =         48.5  [cm-1]   --> E    G_5 D_5       
     freq (  3 -  3) =         62.2  [cm-1]   --> A_1  G_1 D_1       

     Calculation of q =   -0.1666667   0.5000000  -0.1666667

   Info: using nr1, nr2, nr3 values from input

   Info: using nr1, nr2, nr3 values from input

     Parallelization info
     --------------------
     sticks:   dense  smooth     PW     G-vecs:    dense   smooth      PW
     Min          68      34     12                 1497      523     117
     Max          69      35     13                 1499      526     120
     Sum        1099     547    199                23973     8393    1893



     bravais-lattice index     =            2
     lattice parameter (alat)  =       9.9699  a.u.
     unit-cell volume          =     247.7457 (a.u.)^3
     number of atoms/cell      =            1
     number of atomic types    =            1
     number of electrons       =         9.00
     number of Kohn-Sham states=            9
     kinetic-energy cutoff     =      40.0000  Ry
     charge density cutoff     =     320.0000  Ry
     Exchange-correlation      = SLA  PW   PBE  PBE ( 1  4  3  4 0 0)

     celldm(1)=   9.969852  celldm(2)=   0.000000  celldm(3)=   0.000000
     celldm(4)=   0.000000  celldm(5)=   0.000000  celldm(6)=   0.000000

     crystal axes: (cart. coord. in units of alat)
               a(1) = (  -0.500000   0.000000   0.500000 )  
               a(2) = (   0.000000   0.500000   0.500000 )  
               a(3) = (  -0.500000   0.500000   0.000000 )  

     reciprocal axes: (cart. coord. in units 2 pi/alat)
               b(1) = ( -1.000000 -1.000000  1.000000 )  
               b(2) = (  1.000000  1.000000  1.000000 )  
               b(3) = ( -1.000000  1.000000 -1.000000 )  


     PseudoPot. # 1 for Na read from file:
     /home/s1333534/quantum_espresso/qe-6.1/pseudo/Na_pbe_v1.uspp.F.UPF
     MD5 check sum: 76a99c7e9422403d3e93cbc85ab7bccb
     Pseudo is Ultrasoft, Zval =  9.0
     Generated by new atomic code, or converted to UPF format
     Using radial grid of  819 points,  5 beta functions with: 
                l(1) =   0
                l(2) =   0
                l(3) =   1
                l(4) =   1
                l(5) =   2
     Q(r) pseudized with  8 coefficients,  rinner =    1.250   1.250   1.250
                                                       1.250   1.250

     atomic species   valence    mass     pseudopotential
        Na             9.00    22.99000     Na( 1.00)

     48 Sym. Ops., with inversion, found



   Cartesian axes

     site n.     atom                  positions (alat units)
         1           Na  tau(   1) = (   0.0000000   0.0000000   0.0000000  )

     number of k points= 32800  Marzari-Vanderbilt smearing, width (Ry)=  0.0200

     Number of k-points >= 100: set verbosity='high' to print them.

     Dense  grid:    23973 G-vectors     FFT dimensions: (  45,  45,  45)

     Smooth grid:     8393 G-vectors     FFT dimensions: (  30,  30,  30)

     Estimated max dynamical RAM per process >       0.82MB

     Estimated total allocated dynamical RAM >      52.68MB

     The potential is recalculated from file :
     ./_ph0/na.fcc.save/charge-density.dat

     Starting wfc are    5 atomic +    4 random wfc

     Band Structure Calculation
     Davidson diagonalization with overlap

     ethr =  1.11E-10,  avg # of iterations = 19.8

     total cpu time spent up to now is     1280.2 secs

     End of band structure calculation

     Number of k-points >= 100: set verbosity='high' to print the bands.

     the Fermi energy is     1.6444 ev

     Writing output data file na.fcc.save

                                                                                

     bravais-lattice index     =            2
     lattice parameter (alat)  =       9.9699  a.u.
     unit-cell volume          =     247.7457 (a.u.)^3
     number of atoms/cell      =            1
     number of atomic types    =            1
     kinetic-energy cut-off    =      40.0000  Ry
     charge density cut-off    =     320.0000  Ry
     convergence threshold     =      1.0E-16
     beta                      =       0.7000
     number of iterations used =            4
     Exchange-correlation      = SLA  PW   PBE  PBE ( 1  4  3  4 0 0)


     celldm(1)=    9.96985  celldm(2)=    0.00000  celldm(3)=    0.00000
     celldm(4)=    0.00000  celldm(5)=    0.00000  celldm(6)=    0.00000

     crystal axes: (cart. coord. in units of alat)
               a(1) = ( -0.5000  0.0000  0.5000 )  
               a(2) = (  0.0000  0.5000  0.5000 )  
               a(3) = ( -0.5000  0.5000  0.0000 )  

     reciprocal axes: (cart. coord. in units 2 pi/alat)
               b(1) = ( -1.0000 -1.0000  1.0000 )  
               b(2) = (  1.0000  1.0000  1.0000 )  
               b(3) = ( -1.0000  1.0000 -1.0000 )  


     Atoms inside the unit cell: 

     Cartesian axes

     site n.  atom      mass           positions (alat units)
        1     Na  22.9900   tau(    1) = (    0.00000    0.00000    0.00000  )

     Computing dynamical matrix for 
                    q = (  -0.1666667   0.5000000  -0.1666667 )

      2 Sym.Ops. (no q -> -q+G )


     G cutoff =  805.6895  (   1498 G-vectors)     FFT grid: ( 45, 45, 45)
     G cutoff =  402.8447  (    525 G-vectors)  smooth grid: ( 30, 30, 30)

     number of k points= 32800  Marzari-Vanderbilt smearing, width (Ry)=  0.0200

     PseudoPot. # 1 for Na read from file:
     /home/s1333534/quantum_espresso/qe-6.1/pseudo/Na_pbe_v1.uspp.F.UPF
     MD5 check sum: 76a99c7e9422403d3e93cbc85ab7bccb
     Pseudo is Ultrasoft, Zval =  9.0
     Generated by new atomic code, or converted to UPF format
     Using radial grid of  819 points,  5 beta functions with: 
                l(1) =   0
                l(2) =   0
                l(3) =   1
                l(4) =   1
                l(5) =   2
     Q(r) pseudized with  8 coefficients,  rinner =    1.250   1.250   1.250
                                                       1.250   1.250

     Mode symmetry, C_s (m)     point group:


     Atomic displacements:
     There are   3 irreducible representations

     Representation     1      1 modes -A'  To be done

     Representation     2      1 modes -A'  To be done

     Representation     3      1 modes -A''  To be done



     Alpha used in Ewald sum =   2.8000
     PHONON       :     0h57m CPU        1h 1m WALL



     Representation #  1 mode #   1

     Self-consistent Calculation

      iter #   1 total cpu time :  3793.3 secs   av.it.:   5.8
      thresh= 1.000E-02 alpha_mix =  0.700 |ddv_scf|^2 =  4.493E-04

      iter #   2 total cpu time :  3866.8 secs   av.it.:   7.0
      thresh= 2.120E-03 alpha_mix =  0.700 |ddv_scf|^2 =  3.779E-03

      iter #   3 total cpu time :  3929.6 secs   av.it.:   5.7
      thresh= 6.148E-03 alpha_mix =  0.700 |ddv_scf|^2 =  4.842E-07

      iter #   4 total cpu time :  4010.6 secs   av.it.:   7.9
      thresh= 6.958E-05 alpha_mix =  0.700 |ddv_scf|^2 =  4.620E-09

      iter #   5 total cpu time :  4094.0 secs   av.it.:   8.4
      thresh= 6.797E-06 alpha_mix =  0.700 |ddv_scf|^2 =  4.275E-10

      iter #   6 total cpu time :  4176.5 secs   av.it.:   8.3
      thresh= 2.068E-06 alpha_mix =  0.700 |ddv_scf|^2 =  1.936E-11

      iter #   7 total cpu time :  4258.0 secs   av.it.:   8.2
      thresh= 4.400E-07 alpha_mix =  0.700 |ddv_scf|^2 =  2.354E-11

      iter #   8 total cpu time :  4330.6 secs   av.it.:   6.9
      thresh= 4.851E-07 alpha_mix =  0.700 |ddv_scf|^2 =  5.325E-12

      iter #   9 total cpu time :  4404.1 secs   av.it.:   7.1
      thresh= 2.308E-07 alpha_mix =  0.700 |ddv_scf|^2 =  1.303E-12

      iter #  10 total cpu time :  4475.0 secs   av.it.:   6.8
      thresh= 1.141E-07 alpha_mix =  0.700 |ddv_scf|^2 =  6.351E-15

      iter #  11 total cpu time :  4558.2 secs   av.it.:   8.5
      thresh= 7.969E-09 alpha_mix =  0.700 |ddv_scf|^2 =  3.681E-16

      iter #  12 total cpu time :  4637.7 secs   av.it.:   7.9
      thresh= 1.919E-09 alpha_mix =  0.700 |ddv_scf|^2 =  2.378E-17

     End of self-consistent calculation

     Convergence has been achieved 


     Representation #  2 mode #   2

     Self-consistent Calculation

      iter #   1 total cpu time :  4712.2 secs   av.it.:   5.7
      thresh= 1.000E-02 alpha_mix =  0.700 |ddv_scf|^2 =  7.613E-05

      iter #   2 total cpu time :  4789.5 secs   av.it.:   7.5
      thresh= 8.725E-04 alpha_mix =  0.700 |ddv_scf|^2 =  5.693E-04

      iter #   3 total cpu time :  4852.3 secs   av.it.:   5.7
      thresh= 2.386E-03 alpha_mix =  0.700 |ddv_scf|^2 =  1.869E-07

      iter #   4 total cpu time :  4933.9 secs   av.it.:   8.3
      thresh= 4.323E-05 alpha_mix =  0.700 |ddv_scf|^2 =  5.616E-09

      iter #   5 total cpu time :  5016.4 secs   av.it.:   8.3
      thresh= 7.494E-06 alpha_mix =  0.700 |ddv_scf|^2 =  1.674E-10

      iter #   6 total cpu time :  5100.7 secs   av.it.:   8.3
      thresh= 1.294E-06 alpha_mix =  0.700 |ddv_scf|^2 =  1.285E-11

      iter #   7 total cpu time :  5183.7 secs   av.it.:   8.3
      thresh= 3.585E-07 alpha_mix =  0.700 |ddv_scf|^2 =  1.146E-12

      iter #   8 total cpu time :  5263.5 secs   av.it.:   7.8
      thresh= 1.070E-07 alpha_mix =  0.700 |ddv_scf|^2 =  4.788E-12

      iter #   9 total cpu time :  5329.9 secs   av.it.:   6.1
      thresh= 2.188E-07 alpha_mix =  0.700 |ddv_scf|^2 =  1.379E-14

      iter #  10 total cpu time :  5407.6 secs   av.it.:   7.5
      thresh= 1.174E-08 alpha_mix =  0.700 |ddv_scf|^2 =  3.667E-15

      iter #  11 total cpu time :  5480.2 secs   av.it.:   7.0
      thresh= 6.056E-09 alpha_mix =  0.700 |ddv_scf|^2 =  1.194E-15

      iter #  12 total cpu time :  5555.9 secs   av.it.:   7.3
      thresh= 3.456E-09 alpha_mix =  0.700 |ddv_scf|^2 =  3.017E-18

     End of self-consistent calculation

     Convergence has been achieved 


     Representation #  3 mode #   3

     Self-consistent Calculation

      iter #   1 total cpu time :  5627.4 secs   av.it.:   5.5
      thresh= 1.000E-02 alpha_mix =  0.700 |ddv_scf|^2 =  8.992E-06

      iter #   2 total cpu time :  5707.9 secs   av.it.:   7.8
      thresh= 2.999E-04 alpha_mix =  0.700 |ddv_scf|^2 =  1.404E-07

      iter #   3 total cpu time :  5789.0 secs   av.it.:   8.1
      thresh= 3.747E-05 alpha_mix =  0.700 |ddv_scf|^2 =  7.257E-09

      iter #   4 total cpu time :  5866.1 secs   av.it.:   7.7
      thresh= 8.519E-06 alpha_mix =  0.700 |ddv_scf|^2 =  2.323E-11

      iter #   5 total cpu time :  5948.4 secs   av.it.:   8.0
      thresh= 4.820E-07 alpha_mix =  0.700 |ddv_scf|^2 =  2.046E-14

      iter #   6 total cpu time :  6017.3 secs   av.it.:   6.4
      thresh= 1.430E-08 alpha_mix =  0.700 |ddv_scf|^2 =  1.223E-15

      iter #   7 total cpu time :  6097.0 secs   av.it.:   7.8
      thresh= 3.497E-09 alpha_mix =  0.700 |ddv_scf|^2 =  1.196E-18

     End of self-consistent calculation

     Convergence has been achieved 

     Number of q in the star =   24
     List of q in the star:
          1  -0.166666667   0.500000000  -0.166666667
          2   0.166666667   0.500000000   0.166666667
          3  -0.166666667   0.500000000   0.166666667
          4   0.166666667   0.500000000  -0.166666667
          5   0.500000000  -0.166666667   0.166666667
          6   0.166666667  -0.166666667   0.500000000
          7  -0.166666667  -0.500000000  -0.166666667
          8   0.166666667  -0.500000000  -0.166666667
          9  -0.166666667  -0.500000000   0.166666667
         10   0.500000000  -0.166666667  -0.166666667
         11  -0.500000000  -0.166666667   0.166666667
         12   0.500000000   0.166666667   0.166666667
         13  -0.166666667   0.166666667  -0.500000000
         14  -0.166666667  -0.166666667   0.500000000
         15   0.166666667   0.166666667   0.500000000
         16   0.166666667  -0.166666667  -0.500000000
         17  -0.500000000   0.166666667  -0.166666667
         18  -0.500000000  -0.166666667  -0.166666667
         19   0.166666667  -0.500000000   0.166666667
         20   0.500000000   0.166666667  -0.166666667
         21   0.166666667   0.166666667  -0.500000000
         22  -0.166666667  -0.166666667  -0.500000000
         23  -0.500000000   0.166666667   0.166666667
         24  -0.166666667   0.166666667   0.500000000

     Diagonalizing the dynamical matrix

     q = (   -0.166666667   0.500000000  -0.166666667 ) 

 **************************************************************************
     freq (    1) =       1.872482 [THz] =      62.459260 [cm-1]
     freq (    2) =       1.967446 [THz] =      65.626925 [cm-1]
     freq (    3) =       3.142470 [THz] =     104.821530 [cm-1]
 **************************************************************************

     Mode symmetry, C_s (m)     point group:

     freq (  1 -  1) =         62.5  [cm-1]   --> A'                 
     freq (  2 -  2) =         65.6  [cm-1]   --> A''                
     freq (  3 -  3) =        104.8  [cm-1]   --> A'                 

     Calculation of q =    0.6666667  -0.3333333   0.6666667

   Info: using nr1, nr2, nr3 values from input

   Info: using nr1, nr2, nr3 values from input

     Parallelization info
     --------------------
     sticks:   dense  smooth     PW     G-vecs:    dense   smooth      PW
     Min          68      34     13                 1497      523     129
     Max          69      35     14                 1499      526     132
     Sum        1099     547    211                23973     8393    2085



     bravais-lattice index     =            2
     lattice parameter (alat)  =       9.9699  a.u.
     unit-cell volume          =     247.7457 (a.u.)^3
     number of atoms/cell      =            1
     number of atomic types    =            1
     number of electrons       =         9.00
     number of Kohn-Sham states=            9
     kinetic-energy cutoff     =      40.0000  Ry
     charge density cutoff     =     320.0000  Ry
     Exchange-correlation      = SLA  PW   PBE  PBE ( 1  4  3  4 0 0)

     celldm(1)=   9.969852  celldm(2)=   0.000000  celldm(3)=   0.000000
     celldm(4)=   0.000000  celldm(5)=   0.000000  celldm(6)=   0.000000

     crystal axes: (cart. coord. in units of alat)
               a(1) = (  -0.500000   0.000000   0.500000 )  
               a(2) = (   0.000000   0.500000   0.500000 )  
               a(3) = (  -0.500000   0.500000   0.000000 )  

     reciprocal axes: (cart. coord. in units 2 pi/alat)
               b(1) = ( -1.000000 -1.000000  1.000000 )  
               b(2) = (  1.000000  1.000000  1.000000 )  
               b(3) = ( -1.000000  1.000000 -1.000000 )  


     PseudoPot. # 1 for Na read from file:
     /home/s1333534/quantum_espresso/qe-6.1/pseudo/Na_pbe_v1.uspp.F.UPF
     MD5 check sum: 76a99c7e9422403d3e93cbc85ab7bccb
     Pseudo is Ultrasoft, Zval =  9.0
     Generated by new atomic code, or converted to UPF format
     Using radial grid of  819 points,  5 beta functions with: 
                l(1) =   0
                l(2) =   0
                l(3) =   1
                l(4) =   1
                l(5) =   2
     Q(r) pseudized with  8 coefficients,  rinner =    1.250   1.250   1.250
                                                       1.250   1.250

     atomic species   valence    mass     pseudopotential
        Na             9.00    22.99000     Na( 1.00)

     48 Sym. Ops., with inversion, found



   Cartesian axes

     site n.     atom                  positions (alat units)
         1           Na  tau(   1) = (   0.0000000   0.0000000   0.0000000  )

     number of k points= 32800  Marzari-Vanderbilt smearing, width (Ry)=  0.0200

     Number of k-points >= 100: set verbosity='high' to print them.

     Dense  grid:    23973 G-vectors     FFT dimensions: (  45,  45,  45)

     Smooth grid:     8393 G-vectors     FFT dimensions: (  30,  30,  30)

     Estimated max dynamical RAM per process >       0.82MB

     Estimated total allocated dynamical RAM >      52.68MB

     The potential is recalculated from file :
     ./_ph0/na.fcc.save/charge-density.dat

     Starting wfc are    5 atomic +    4 random wfc

     Band Structure Calculation
     Davidson diagonalization with overlap

     ethr =  1.11E-10,  avg # of iterations = 19.8

     total cpu time spent up to now is     1945.8 secs

     End of band structure calculation

     Number of k-points >= 100: set verbosity='high' to print the bands.

     the Fermi energy is     1.6444 ev

     Writing output data file na.fcc.save

                                                                                

     bravais-lattice index     =            2
     lattice parameter (alat)  =       9.9699  a.u.
     unit-cell volume          =     247.7457 (a.u.)^3
     number of atoms/cell      =            1
     number of atomic types    =            1
     kinetic-energy cut-off    =      40.0000  Ry
     charge density cut-off    =     320.0000  Ry
     convergence threshold     =      1.0E-16
     beta                      =       0.7000
     number of iterations used =            4
     Exchange-correlation      = SLA  PW   PBE  PBE ( 1  4  3  4 0 0)


     celldm(1)=    9.96985  celldm(2)=    0.00000  celldm(3)=    0.00000
     celldm(4)=    0.00000  celldm(5)=    0.00000  celldm(6)=    0.00000

     crystal axes: (cart. coord. in units of alat)
               a(1) = ( -0.5000  0.0000  0.5000 )  
               a(2) = (  0.0000  0.5000  0.5000 )  
               a(3) = ( -0.5000  0.5000  0.0000 )  

     reciprocal axes: (cart. coord. in units 2 pi/alat)
               b(1) = ( -1.0000 -1.0000  1.0000 )  
               b(2) = (  1.0000  1.0000  1.0000 )  
               b(3) = ( -1.0000  1.0000 -1.0000 )  


     Atoms inside the unit cell: 

     Cartesian axes

     site n.  atom      mass           positions (alat units)
        1     Na  22.9900   tau(    1) = (    0.00000    0.00000    0.00000  )

     Computing dynamical matrix for 
                    q = (   0.6666667  -0.3333333   0.6666667 )

      2 Sym.Ops. (no q -> -q+G )


     G cutoff =  805.6895  (   1498 G-vectors)     FFT grid: ( 45, 45, 45)
     G cutoff =  402.8447  (    525 G-vectors)  smooth grid: ( 30, 30, 30)

     number of k points= 32800  Marzari-Vanderbilt smearing, width (Ry)=  0.0200

     PseudoPot. # 1 for Na read from file:
     /home/s1333534/quantum_espresso/qe-6.1/pseudo/Na_pbe_v1.uspp.F.UPF
     MD5 check sum: 76a99c7e9422403d3e93cbc85ab7bccb
     Pseudo is Ultrasoft, Zval =  9.0
     Generated by new atomic code, or converted to UPF format
     Using radial grid of  819 points,  5 beta functions with: 
                l(1) =   0
                l(2) =   0
                l(3) =   1
                l(4) =   1
                l(5) =   2
     Q(r) pseudized with  8 coefficients,  rinner =    1.250   1.250   1.250
                                                       1.250   1.250

     Mode symmetry, C_s (m)     point group:


     Atomic displacements:
     There are   3 irreducible representations

     Representation     1      1 modes -A'  To be done

     Representation     2      1 modes -A'  To be done

     Representation     3      1 modes -A''  To be done



     Alpha used in Ewald sum =   2.8000
     PHONON       :     1h45m CPU        1h53m WALL



     Representation #  1 mode #   1

     Self-consistent Calculation

      iter #   1 total cpu time :  6866.2 secs   av.it.:   5.8
      thresh= 1.000E-02 alpha_mix =  0.700 |ddv_scf|^2 =  5.506E-05

      iter #   2 total cpu time :  6945.8 secs   av.it.:   7.6
      thresh= 7.420E-04 alpha_mix =  0.700 |ddv_scf|^2 =  4.059E-05

      iter #   3 total cpu time :  7021.2 secs   av.it.:   7.1
      thresh= 6.371E-04 alpha_mix =  0.700 |ddv_scf|^2 =  1.077E-07

      iter #   4 total cpu time :  7105.5 secs   av.it.:   8.3
      thresh= 3.281E-05 alpha_mix =  0.700 |ddv_scf|^2 =  8.383E-09

      iter #   5 total cpu time :  7189.5 secs   av.it.:   8.2
      thresh= 9.156E-06 alpha_mix =  0.700 |ddv_scf|^2 =  4.558E-10

      iter #   6 total cpu time :  7271.6 secs   av.it.:   8.0
      thresh= 2.135E-06 alpha_mix =  0.700 |ddv_scf|^2 =  5.742E-12

      iter #   7 total cpu time :  7356.0 secs   av.it.:   8.4
      thresh= 2.396E-07 alpha_mix =  0.700 |ddv_scf|^2 =  2.568E-13

      iter #   8 total cpu time :  7441.8 secs   av.it.:   8.5
      thresh= 5.067E-08 alpha_mix =  0.700 |ddv_scf|^2 =  2.195E-14

      iter #   9 total cpu time :  7526.2 secs   av.it.:   8.3
      thresh= 1.481E-08 alpha_mix =  0.700 |ddv_scf|^2 =  9.281E-16

      iter #  10 total cpu time :  7605.9 secs   av.it.:   7.5
      thresh= 3.046E-09 alpha_mix =  0.700 |ddv_scf|^2 =  8.520E-17

     End of self-consistent calculation

     Convergence has been achieved 


     Representation #  2 mode #   2

     Self-consistent Calculation

      iter #   1 total cpu time :  7680.7 secs   av.it.:   5.7
      thresh= 1.000E-02 alpha_mix =  0.700 |ddv_scf|^2 =  2.876E-05

      iter #   2 total cpu time :  7763.3 secs   av.it.:   7.9
      thresh= 5.363E-04 alpha_mix =  0.700 |ddv_scf|^2 =  1.245E-05

      iter #   3 total cpu time :  7840.4 secs   av.it.:   7.3
      thresh= 3.528E-04 alpha_mix =  0.700 |ddv_scf|^2 =  3.915E-07

      iter #   4 total cpu time :  7919.4 secs   av.it.:   7.7
      thresh= 6.257E-05 alpha_mix =  0.700 |ddv_scf|^2 =  1.361E-08

      iter #   5 total cpu time :  8002.9 secs   av.it.:   8.2
      thresh= 1.167E-05 alpha_mix =  0.700 |ddv_scf|^2 =  3.726E-10

      iter #   6 total cpu time :  8086.0 secs   av.it.:   8.2
      thresh= 1.930E-06 alpha_mix =  0.700 |ddv_scf|^2 =  1.256E-11

      iter #   7 total cpu time :  8171.4 secs   av.it.:   8.5
      thresh= 3.544E-07 alpha_mix =  0.700 |ddv_scf|^2 =  8.295E-13

      iter #   8 total cpu time :  8257.6 secs   av.it.:   8.6
      thresh= 9.107E-08 alpha_mix =  0.700 |ddv_scf|^2 =  2.584E-14

      iter #   9 total cpu time :  8342.8 secs   av.it.:   8.3
      thresh= 1.608E-08 alpha_mix =  0.700 |ddv_scf|^2 =  4.910E-15

      iter #  10 total cpu time :  8423.2 secs   av.it.:   7.7
      thresh= 7.007E-09 alpha_mix =  0.700 |ddv_scf|^2 =  1.227E-16

      iter #  11 total cpu time :  8507.2 secs   av.it.:   8.2
      thresh= 1.108E-09 alpha_mix =  0.700 |ddv_scf|^2 =  5.296E-18

     End of self-consistent calculation

     Convergence has been achieved 


     Representation #  3 mode #   3

     Self-consistent Calculation

      iter #   1 total cpu time :  8578.9 secs   av.it.:   5.5
      thresh= 1.000E-02 alpha_mix =  0.700 |ddv_scf|^2 =  8.976E-06

      iter #   2 total cpu time :  8659.3 secs   av.it.:   7.8
      thresh= 2.996E-04 alpha_mix =  0.700 |ddv_scf|^2 =  1.413E-07

      iter #   3 total cpu time :  8741.7 secs   av.it.:   8.0
      thresh= 3.759E-05 alpha_mix =  0.700 |ddv_scf|^2 =  7.115E-09

      iter #   4 total cpu time :  8821.2 secs   av.it.:   7.7
      thresh= 8.435E-06 alpha_mix =  0.700 |ddv_scf|^2 =  2.347E-11

      iter #   5 total cpu time :  8902.7 secs   av.it.:   8.0
      thresh= 4.845E-07 alpha_mix =  0.700 |ddv_scf|^2 =  2.221E-14

      iter #   6 total cpu time :  8974.5 secs   av.it.:   6.8
      thresh= 1.490E-08 alpha_mix =  0.700 |ddv_scf|^2 =  1.332E-15

      iter #   7 total cpu time :  9054.7 secs   av.it.:   7.8
      thresh= 3.650E-09 alpha_mix =  0.700 |ddv_scf|^2 =  1.539E-18

     End of self-consistent calculation

     Convergence has been achieved 

     Number of q in the star =   24
     List of q in the star:
          1   0.666666667  -0.333333333   0.666666667
          2  -0.666666667  -0.333333333  -0.666666667
          3   0.666666667  -0.333333333  -0.666666667
          4  -0.666666667  -0.333333333   0.666666667
          5  -0.333333333   0.666666667  -0.666666667
          6  -0.666666667   0.666666667  -0.333333333
          7   0.666666667   0.333333333   0.666666667
          8  -0.666666667   0.333333333   0.666666667
          9   0.666666667   0.333333333  -0.666666667
         10  -0.333333333   0.666666667   0.666666667
         11   0.333333333   0.666666667  -0.666666667
         12  -0.333333333  -0.666666667  -0.666666667
         13   0.666666667  -0.666666667   0.333333333
         14   0.666666667   0.666666667  -0.333333333
         15  -0.666666667  -0.666666667  -0.333333333
         16  -0.666666667   0.666666667   0.333333333
         17   0.333333333  -0.666666667   0.666666667
         18   0.333333333   0.666666667   0.666666667
         19  -0.666666667   0.333333333  -0.666666667
         20  -0.333333333  -0.666666667   0.666666667
         21  -0.666666667  -0.666666667   0.333333333
         22   0.666666667   0.666666667   0.333333333
         23   0.333333333  -0.666666667  -0.666666667
         24   0.666666667  -0.666666667  -0.333333333

     Diagonalizing the dynamical matrix

     q = (    0.666666667  -0.333333333   0.666666667 ) 

 **************************************************************************
     freq (    1) =       2.081971 [THz] =      69.447078 [cm-1]
     freq (    2) =       2.382979 [THz] =      79.487638 [cm-1]
     freq (    3) =       3.837715 [THz] =     128.012381 [cm-1]
 **************************************************************************

     Mode symmetry, C_s (m)     point group:

     freq (  1 -  1) =         69.4  [cm-1]   --> A''                
     freq (  2 -  2) =         79.5  [cm-1]   --> A'                 
     freq (  3 -  3) =        128.0  [cm-1]   --> A'                 

     Calculation of q =    0.5000000  -0.1666667   0.5000000

   Info: using nr1, nr2, nr3 values from input

   Info: using nr1, nr2, nr3 values from input

     Parallelization info
     --------------------
     sticks:   dense  smooth     PW     G-vecs:    dense   smooth      PW
     Min          68      34     12                 1497      523     118
     Max          69      35     13                 1499      526     122
     Sum        1099     547    199                23973     8393    1917



     bravais-lattice index     =            2
     lattice parameter (alat)  =       9.9699  a.u.
     unit-cell volume          =     247.7457 (a.u.)^3
     number of atoms/cell      =            1
     number of atomic types    =            1
     number of electrons       =         9.00
     number of Kohn-Sham states=            9
     kinetic-energy cutoff     =      40.0000  Ry
     charge density cutoff     =     320.0000  Ry
     Exchange-correlation      = SLA  PW   PBE  PBE ( 1  4  3  4 0 0)

     celldm(1)=   9.969852  celldm(2)=   0.000000  celldm(3)=   0.000000
     celldm(4)=   0.000000  celldm(5)=   0.000000  celldm(6)=   0.000000

     crystal axes: (cart. coord. in units of alat)
               a(1) = (  -0.500000   0.000000   0.500000 )  
               a(2) = (   0.000000   0.500000   0.500000 )  
               a(3) = (  -0.500000   0.500000   0.000000 )  

     reciprocal axes: (cart. coord. in units 2 pi/alat)
               b(1) = ( -1.000000 -1.000000  1.000000 )  
               b(2) = (  1.000000  1.000000  1.000000 )  
               b(3) = ( -1.000000  1.000000 -1.000000 )  


     PseudoPot. # 1 for Na read from file:
     /home/s1333534/quantum_espresso/qe-6.1/pseudo/Na_pbe_v1.uspp.F.UPF
     MD5 check sum: 76a99c7e9422403d3e93cbc85ab7bccb
     Pseudo is Ultrasoft, Zval =  9.0
     Generated by new atomic code, or converted to UPF format
     Using radial grid of  819 points,  5 beta functions with: 
                l(1) =   0
                l(2) =   0
                l(3) =   1
                l(4) =   1
                l(5) =   2
     Q(r) pseudized with  8 coefficients,  rinner =    1.250   1.250   1.250
                                                       1.250   1.250

     atomic species   valence    mass     pseudopotential
        Na             9.00    22.99000     Na( 1.00)

     48 Sym. Ops., with inversion, found



   Cartesian axes

     site n.     atom                  positions (alat units)
         1           Na  tau(   1) = (   0.0000000   0.0000000   0.0000000  )

     number of k points= 32800  Marzari-Vanderbilt smearing, width (Ry)=  0.0200

     Number of k-points >= 100: set verbosity='high' to print them.

     Dense  grid:    23973 G-vectors     FFT dimensions: (  45,  45,  45)

     Smooth grid:     8393 G-vectors     FFT dimensions: (  30,  30,  30)

     Estimated max dynamical RAM per process >       0.82MB

     Estimated total allocated dynamical RAM >      52.68MB

     The potential is recalculated from file :
     ./_ph0/na.fcc.save/charge-density.dat

     Starting wfc are    5 atomic +    4 random wfc

     Band Structure Calculation
     Davidson diagonalization with overlap

     ethr =  1.11E-10,  avg # of iterations = 19.8

     total cpu time spent up to now is     2604.6 secs

     End of band structure calculation

     Number of k-points >= 100: set verbosity='high' to print the bands.

     the Fermi energy is     1.6444 ev

     Writing output data file na.fcc.save

                                                                                

     bravais-lattice index     =            2
     lattice parameter (alat)  =       9.9699  a.u.
     unit-cell volume          =     247.7457 (a.u.)^3
     number of atoms/cell      =            1
     number of atomic types    =            1
     kinetic-energy cut-off    =      40.0000  Ry
     charge density cut-off    =     320.0000  Ry
     convergence threshold     =      1.0E-16
     beta                      =       0.7000
     number of iterations used =            4
     Exchange-correlation      = SLA  PW   PBE  PBE ( 1  4  3  4 0 0)


     celldm(1)=    9.96985  celldm(2)=    0.00000  celldm(3)=    0.00000
     celldm(4)=    0.00000  celldm(5)=    0.00000  celldm(6)=    0.00000

     crystal axes: (cart. coord. in units of alat)
               a(1) = ( -0.5000  0.0000  0.5000 )  
               a(2) = (  0.0000  0.5000  0.5000 )  
               a(3) = ( -0.5000  0.5000  0.0000 )  

     reciprocal axes: (cart. coord. in units 2 pi/alat)
               b(1) = ( -1.0000 -1.0000  1.0000 )  
               b(2) = (  1.0000  1.0000  1.0000 )  
               b(3) = ( -1.0000  1.0000 -1.0000 )  


     Atoms inside the unit cell: 

     Cartesian axes

     site n.  atom      mass           positions (alat units)
        1     Na  22.9900   tau(    1) = (    0.00000    0.00000    0.00000  )

     Computing dynamical matrix for 
                    q = (   0.5000000  -0.1666667   0.5000000 )

      2 Sym.Ops. (no q -> -q+G )


     G cutoff =  805.6895  (   1498 G-vectors)     FFT grid: ( 45, 45, 45)
     G cutoff =  402.8447  (    525 G-vectors)  smooth grid: ( 30, 30, 30)

     number of k points= 32800  Marzari-Vanderbilt smearing, width (Ry)=  0.0200

     PseudoPot. # 1 for Na read from file:
     /home/s1333534/quantum_espresso/qe-6.1/pseudo/Na_pbe_v1.uspp.F.UPF
     MD5 check sum: 76a99c7e9422403d3e93cbc85ab7bccb
     Pseudo is Ultrasoft, Zval =  9.0
     Generated by new atomic code, or converted to UPF format
     Using radial grid of  819 points,  5 beta functions with: 
                l(1) =   0
                l(2) =   0
                l(3) =   1
                l(4) =   1
                l(5) =   2
     Q(r) pseudized with  8 coefficients,  rinner =    1.250   1.250   1.250
                                                       1.250   1.250

     Mode symmetry, C_s (m)     point group:


     Atomic displacements:
     There are   3 irreducible representations

     Representation     1      1 modes -A'  To be done

     Representation     2      1 modes -A'  To be done

     Representation     3      1 modes -A''  To be done



     Alpha used in Ewald sum =   2.8000
     PHONON       :     2h30m CPU        2h42m WALL



     Representation #  1 mode #   1

     Self-consistent Calculation

      iter #   1 total cpu time :  9820.0 secs   av.it.:   5.8
      thresh= 1.000E-02 alpha_mix =  0.700 |ddv_scf|^2 =  4.331E-05

      iter #   2 total cpu time :  9900.0 secs   av.it.:   7.7
      thresh= 6.581E-04 alpha_mix =  0.700 |ddv_scf|^2 =  5.559E-05

      iter #   3 total cpu time :  9971.5 secs   av.it.:   6.8
[...]

      iter #   4 total cpu time : 23788.1 secs   av.it.:   8.3
      thresh= 1.669E-05 alpha_mix =  0.700 |ddv_scf|^2 =  9.854E-10

      iter #   5 total cpu time : 23870.5 secs   av.it.:   7.8
      thresh= 3.139E-06 alpha_mix =  0.700 |ddv_scf|^2 =  2.775E-11

      iter #   6 total cpu time : 23952.0 secs   av.it.:   7.6
      thresh= 5.268E-07 alpha_mix =  0.700 |ddv_scf|^2 =  4.844E-14

      iter #   7 total cpu time : 24035.4 secs   av.it.:   8.0
      thresh= 2.201E-08 alpha_mix =  0.700 |ddv_scf|^2 =  3.656E-15

      iter #   8 total cpu time : 24119.5 secs   av.it.:   8.0
      thresh= 6.047E-09 alpha_mix =  0.700 |ddv_scf|^2 =  1.117E-17

     End of self-consistent calculation

     Convergence has been achieved 

     Number of q in the star =   24
     List of q in the star:
          1   0.500000000  -0.166666667   0.833333333
          2   0.833333333   0.166666667   0.500000000
          3   0.500000000   0.166666667   0.833333333
          4  -0.833333333  -0.166666667   0.500000000
          5  -0.833333333  -0.166666667  -0.500000000
          6  -0.500000000  -0.166666667  -0.833333333
          7   0.833333333  -0.166666667   0.500000000
          8  -0.500000000  -0.166666667   0.833333333
          9  -0.833333333   0.166666667   0.500000000
         10   0.833333333   0.166666667  -0.500000000
         11   0.833333333  -0.166666667  -0.500000000
         12   0.500000000   0.166666667  -0.833333333
         13  -0.500000000   0.166666667   0.833333333
         14  -0.500000000   0.166666667  -0.833333333
         15  -0.833333333   0.166666667  -0.500000000
         16   0.833333333  -0.500000000   0.166666667
         17   0.833333333   0.500000000  -0.166666667
         18  -0.833333333  -0.500000000  -0.166666667
         19  -0.833333333   0.500000000   0.166666667
         20   0.166666667  -0.500000000   0.833333333
         21  -0.166666667   0.500000000   0.833333333
         22   0.166666667   0.500000000  -0.833333333
         23  -0.166666667  -0.500000000  -0.833333333
         24  -0.500000000   0.833333333   0.166666667

     Diagonalizing the dynamical matrix

     q = (    0.500000000  -0.166666667   0.833333333 ) 

 **************************************************************************
     freq (    1) =       2.387804 [THz] =      79.648565 [cm-1]
     freq (    2) =       3.177606 [THz] =     105.993514 [cm-1]
     freq (    3) =       3.692774 [THz] =     123.177686 [cm-1]
 **************************************************************************

     Mode symmetry, C_2  (2)    point group:

     freq (  1 -  1) =         79.6  [cm-1]   --> B                  
     freq (  2 -  2) =        106.0  [cm-1]   --> A                  
     freq (  3 -  3) =        123.2  [cm-1]   --> B                  

     Calculation of q =   -0.3333333  -1.0000000   0.0000000

   Info: using nr1, nr2, nr3 values from input

   Info: using nr1, nr2, nr3 values from input

     Parallelization info
     --------------------
     sticks:   dense  smooth     PW     G-vecs:    dense   smooth      PW
     Min          68      34     13                 1497      523     129
     Max          69      35     14                 1499      526     132
     Sum        1099     547    211                23973     8393    2085



     bravais-lattice index     =            2
     lattice parameter (alat)  =       9.9699  a.u.
     unit-cell volume          =     247.7457 (a.u.)^3
     number of atoms/cell      =            1
     number of atomic types    =            1
     number of electrons       =         9.00
     number of Kohn-Sham states=            9
     kinetic-energy cutoff     =      40.0000  Ry
     charge density cutoff     =     320.0000  Ry
     Exchange-correlation      = SLA  PW   PBE  PBE ( 1  4  3  4 0 0)

     celldm(1)=   9.969852  celldm(2)=   0.000000  celldm(3)=   0.000000
     celldm(4)=   0.000000  celldm(5)=   0.000000  celldm(6)=   0.000000

     crystal axes: (cart. coord. in units of alat)
               a(1) = (  -0.500000   0.000000   0.500000 )  
               a(2) = (   0.000000   0.500000   0.500000 )  
               a(3) = (  -0.500000   0.500000   0.000000 )  

     reciprocal axes: (cart. coord. in units 2 pi/alat)
               b(1) = ( -1.000000 -1.000000  1.000000 )  
               b(2) = (  1.000000  1.000000  1.000000 )  
               b(3) = ( -1.000000  1.000000 -1.000000 )  


     PseudoPot. # 1 for Na read from file:
     /home/s1333534/quantum_espresso/qe-6.1/pseudo/Na_pbe_v1.uspp.F.UPF
     MD5 check sum: 76a99c7e9422403d3e93cbc85ab7bccb
     Pseudo is Ultrasoft, Zval =  9.0
     Generated by new atomic code, or converted to UPF format
     Using radial grid of  819 points,  5 beta functions with: 
                l(1) =   0
                l(2) =   0
                l(3) =   1
                l(4) =   1
                l(5) =   2
     Q(r) pseudized with  8 coefficients,  rinner =    1.250   1.250   1.250
                                                       1.250   1.250

     atomic species   valence    mass     pseudopotential
        Na             9.00    22.99000     Na( 1.00)

     48 Sym. Ops., with inversion, found



   Cartesian axes

     site n.     atom                  positions (alat units)
         1           Na  tau(   1) = (   0.0000000   0.0000000   0.0000000  )

     number of k points= 16000  Marzari-Vanderbilt smearing, width (Ry)=  0.0200

     Number of k-points >= 100: set verbosity='high' to print them.

     Dense  grid:    23973 G-vectors     FFT dimensions: (  45,  45,  45)

     Smooth grid:     8393 G-vectors     FFT dimensions: (  30,  30,  30)

     Estimated max dynamical RAM per process >       0.82MB

     Estimated total allocated dynamical RAM >      52.68MB

     The potential is recalculated from file :
     ./_ph0/na.fcc.save/charge-density.dat

     Starting wfc are    5 atomic +    4 random wfc

     Band Structure Calculation
     Davidson diagonalization with overlap

     ethr =  1.11E-10,  avg # of iterations = 19.8

     total cpu time spent up to now is     5887.0 secs

     End of band structure calculation

     Number of k-points >= 100: set verbosity='high' to print the bands.

     the Fermi energy is     1.6444 ev

     Writing output data file na.fcc.save

                                                                                

     bravais-lattice index     =            2
     lattice parameter (alat)  =       9.9699  a.u.
     unit-cell volume          =     247.7457 (a.u.)^3
     number of atoms/cell      =            1
     number of atomic types    =            1
     kinetic-energy cut-off    =      40.0000  Ry
     charge density cut-off    =     320.0000  Ry
     convergence threshold     =      1.0E-16
     beta                      =       0.7000
     number of iterations used =            4
     Exchange-correlation      = SLA  PW   PBE  PBE ( 1  4  3  4 0 0)


     celldm(1)=    9.96985  celldm(2)=    0.00000  celldm(3)=    0.00000
     celldm(4)=    0.00000  celldm(5)=    0.00000  celldm(6)=    0.00000

     crystal axes: (cart. coord. in units of alat)
               a(1) = ( -0.5000  0.0000  0.5000 )  
               a(2) = (  0.0000  0.5000  0.5000 )  
               a(3) = ( -0.5000  0.5000  0.0000 )  

     reciprocal axes: (cart. coord. in units 2 pi/alat)
               b(1) = ( -1.0000 -1.0000  1.0000 )  
               b(2) = (  1.0000  1.0000  1.0000 )  
               b(3) = ( -1.0000  1.0000 -1.0000 )  


     Atoms inside the unit cell: 

     Cartesian axes

     site n.  atom      mass           positions (alat units)
        1     Na  22.9900   tau(    1) = (    0.00000    0.00000    0.00000  )

     Computing dynamical matrix for 
                    q = (  -0.3333333  -1.0000000   0.0000000 )

      4 Sym.Ops. (no q -> -q+G )


     G cutoff =  805.6895  (   1498 G-vectors)     FFT grid: ( 45, 45, 45)
     G cutoff =  402.8447  (    525 G-vectors)  smooth grid: ( 30, 30, 30)

     number of k points= 16000  Marzari-Vanderbilt smearing, width (Ry)=  0.0200

     PseudoPot. # 1 for Na read from file:
     /home/s1333534/quantum_espresso/qe-6.1/pseudo/Na_pbe_v1.uspp.F.UPF
     MD5 check sum: 76a99c7e9422403d3e93cbc85ab7bccb
     Pseudo is Ultrasoft, Zval =  9.0
     Generated by new atomic code, or converted to UPF format
     Using radial grid of  819 points,  5 beta functions with: 
                l(1) =   0
                l(2) =   0
                l(3) =   1
                l(4) =   1
                l(5) =   2
     Q(r) pseudized with  8 coefficients,  rinner =    1.250   1.250   1.250
                                                       1.250   1.250

     Mode symmetry, C_2v (mm2)  point group:


     Atomic displacements:
     There are   3 irreducible representations

     Representation     1      1 modes -A_1  D_1  S_1  To be done

     Representation     2      1 modes -B_1  D_3  S_3  To be done

     Representation     3      1 modes -B_2  D_4  S_4  To be done



     Alpha used in Ewald sum =   2.8000
     PHONON       :     6h18m CPU        6h47m WALL



     Representation #  1 mode #   1

     Self-consistent Calculation

      iter #   1 total cpu time : 24503.9 secs   av.it.:   5.6
      thresh= 1.000E-02 alpha_mix =  0.700 |ddv_scf|^2 =  1.318E-05

      iter #   2 total cpu time : 24545.0 secs   av.it.:   8.0
      thresh= 3.630E-04 alpha_mix =  0.700 |ddv_scf|^2 =  4.203E-07

      iter #   3 total cpu time : 24585.5 secs   av.it.:   7.9
      thresh= 6.483E-05 alpha_mix =  0.700 |ddv_scf|^2 =  1.515E-08

      iter #   4 total cpu time : 24626.8 secs   av.it.:   8.2
      thresh= 1.231E-05 alpha_mix =  0.700 |ddv_scf|^2 =  7.522E-10

      iter #   5 total cpu time : 24667.9 secs   av.it.:   8.1
      thresh= 2.743E-06 alpha_mix =  0.700 |ddv_scf|^2 =  3.882E-11

      iter #   6 total cpu time : 24709.0 secs   av.it.:   8.2
      thresh= 6.230E-07 alpha_mix =  0.700 |ddv_scf|^2 =  2.737E-12

      iter #   7 total cpu time : 24750.0 secs   av.it.:   8.2
      thresh= 1.655E-07 alpha_mix =  0.700 |ddv_scf|^2 =  2.823E-14

      iter #   8 total cpu time : 24790.0 secs   av.it.:   8.0
      thresh= 1.680E-08 alpha_mix =  0.700 |ddv_scf|^2 =  6.672E-16

      iter #   9 total cpu time : 24830.4 secs   av.it.:   8.2
      thresh= 2.583E-09 alpha_mix =  0.700 |ddv_scf|^2 =  2.261E-17

     End of self-consistent calculation

     Convergence has been achieved 


     Representation #  2 mode #   2

     Self-consistent Calculation

      iter #   1 total cpu time : 24867.3 secs   av.it.:   5.6
      thresh= 1.000E-02 alpha_mix =  0.700 |ddv_scf|^2 =  1.471E-05

      iter #   2 total cpu time : 24908.1 secs   av.it.:   7.9
      thresh= 3.835E-04 alpha_mix =  0.700 |ddv_scf|^2 =  3.210E-07

      iter #   3 total cpu time : 24948.2 secs   av.it.:   7.8
      thresh= 5.666E-05 alpha_mix =  0.700 |ddv_scf|^2 =  1.632E-08

      iter #   4 total cpu time : 24988.5 secs   av.it.:   8.0
      thresh= 1.277E-05 alpha_mix =  0.700 |ddv_scf|^2 =  1.787E-10

      iter #   5 total cpu time : 25026.0 secs   av.it.:   7.2
      thresh= 1.337E-06 alpha_mix =  0.700 |ddv_scf|^2 =  1.331E-13

      iter #   6 total cpu time : 25065.5 secs   av.it.:   7.8
      thresh= 3.648E-08 alpha_mix =  0.700 |ddv_scf|^2 =  4.342E-15

      iter #   7 total cpu time : 25104.5 secs   av.it.:   7.7
      thresh= 6.589E-09 alpha_mix =  0.700 |ddv_scf|^2 =  4.013E-17

     End of self-consistent calculation

     Convergence has been achieved 


     Representation #  3 mode #   3

     Self-consistent Calculation

      iter #   1 total cpu time : 25141.5 secs   av.it.:   5.6
      thresh= 1.000E-02 alpha_mix =  0.700 |ddv_scf|^2 =  2.823E-05

      iter #   2 total cpu time : 25181.7 secs   av.it.:   7.7
      thresh= 5.313E-04 alpha_mix =  0.700 |ddv_scf|^2 =  3.014E-06

      iter #   3 total cpu time : 25219.8 secs   av.it.:   7.4
      thresh= 1.736E-04 alpha_mix =  0.700 |ddv_scf|^2 =  3.059E-08

      iter #   4 total cpu time : 25260.7 secs   av.it.:   8.1
      thresh= 1.749E-05 alpha_mix =  0.700 |ddv_scf|^2 =  1.459E-10

      iter #   5 total cpu time : 25297.6 secs   av.it.:   7.1
      thresh= 1.208E-06 alpha_mix =  0.700 |ddv_scf|^2 =  1.543E-13

      iter #   6 total cpu time : 25336.4 secs   av.it.:   7.7
      thresh= 3.928E-08 alpha_mix =  0.700 |ddv_scf|^2 =  8.282E-15

      iter #   7 total cpu time : 25374.2 secs   av.it.:   7.4
      thresh= 9.101E-09 alpha_mix =  0.700 |ddv_scf|^2 =  1.916E-17

     End of self-consistent calculation

     Convergence has been achieved 

     Number of q in the star =   12
     List of q in the star:
          1  -0.333333333  -1.000000000   0.000000000
          2   0.000000000  -1.000000000  -0.333333333
          3   0.000000000  -1.000000000   0.333333333
          4   0.333333333  -1.000000000   0.000000000
          5  -1.000000000   0.000000000  -0.333333333
          6   1.000000000   0.000000000   0.333333333
          7   0.000000000   0.333333333   1.000000000
          8   0.000000000  -0.333333333  -1.000000000
          9  -1.000000000  -0.333333333   0.000000000
         10   1.000000000   0.333333333   0.000000000
         11  -0.333333333   0.000000000   1.000000000
         12   0.333333333   0.000000000   1.000000000

     Diagonalizing the dynamical matrix

     q = (   -0.333333333  -1.000000000   0.000000000 ) 

 **************************************************************************
     freq (    1) =       2.707687 [THz] =      90.318710 [cm-1]
     freq (    2) =       3.199918 [THz] =     106.737778 [cm-1]
     freq (    3) =       3.812425 [THz] =     127.168815 [cm-1]
 **************************************************************************

     Mode symmetry, C_2v (mm2)  point group:

     freq (  1 -  1) =         90.3  [cm-1]   --> A_1  D_1  S_1      
     freq (  2 -  2) =        106.7  [cm-1]   --> B_1  D_3  S_3      
     freq (  3 -  3) =        127.2  [cm-1]   --> B_2  D_4  S_4      

     init_run     :      3.62s CPU      3.78s WALL (      15 calls)
     electrons    :   4775.20s CPU   5040.69s WALL (      15 calls)

     Called by init_run:
     wfcinit      :      0.00s CPU      0.00s WALL (      15 calls)
     potinit      :      0.54s CPU      0.55s WALL (      15 calls)

     Called by electrons:
     c_bands      :   4773.94s CPU   5039.39s WALL (      15 calls)
     v_of_rho     :      0.21s CPU      0.21s WALL (      16 calls)
     newd         :      0.18s CPU      0.18s WALL (      16 calls)

     Called by c_bands:
     init_us_2    :     98.61s CPU    106.56s WALL ( 1262244 calls)
     cegterg      :   3728.41s CPU   3968.65s WALL (   99576 calls)

     Called by sum_band:

     Called by *egterg:
     h_psi        :  14090.91s CPU  15165.73s WALL (11709265 calls)
     s_psi        :    375.52s CPU    410.45s WALL (22693272 calls)
     g_psi        :     12.09s CPU     13.05s WALL ( 1535138 calls)
     cdiaghg      :    956.66s CPU   1017.87s WALL ( 1608564 calls)

     Called by h_psi:
     h_psi:pot    :  13997.32s CPU  15062.17s WALL (11709265 calls)
     h_psi:calbec :    742.15s CPU    793.81s WALL (11709265 calls)
     vloc_psi     :  12915.35s CPU  13902.01s WALL (11709265 calls)
     add_vuspsi   :    204.25s CPU    222.40s WALL (11709265 calls)

     General routines
     calbec       :   1386.30s CPU   1490.60s WALL (24745849 calls)
     fft          :      6.04s CPU      6.31s WALL (    6451 calls)
     ffts         :     20.91s CPU     23.09s WALL (  112706 calls)
     fftw         :  14146.20s CPU  15284.77s WALL (******** calls)
     interpolate  :      1.09s CPU      1.34s WALL (     884 calls)
     davcio       :    130.41s CPU    233.53s WALL ( 5120851 calls)

     Parallel routines
     fft_scatter  :   6211.87s CPU   6704.34s WALL (******** calls)

     PHONON       :     6h31m CPU        7h 2m WALL

     INITIALIZATION: 
     phq_setup    :      0.95s CPU      0.99s WALL (      16 calls)
     phq_init     :    249.00s CPU    262.47s WALL (      16 calls)

     phq_init     :    249.00s CPU    262.47s WALL (      16 calls)
     init_vloc    :      0.15s CPU      0.15s WALL (      16 calls)
     init_us_1    :      1.49s CPU      1.61s WALL (      16 calls)
     newd         :      0.18s CPU      0.18s WALL (      16 calls)
     dvanqq       :      0.68s CPU      0.69s WALL (      16 calls)
     drho         :    195.98s CPU    206.58s WALL (      16 calls)

     DYNAMICAL MATRIX:
     dynmat0      :     34.90s CPU     36.33s WALL (      16 calls)
     phqscf       :  17596.70s CPU  19166.94s WALL (      16 calls)
     dynmatrix    :      0.13s CPU      0.14s WALL (      16 calls)

     phqscf       :  17596.70s CPU  19166.94s WALL (      16 calls)
     solve_linter :  17541.43s CPU  19107.49s WALL (      40 calls)
     drhodv       :     55.05s CPU     58.68s WALL (      40 calls)

     dynmat0      :     34.90s CPU     36.33s WALL (      16 calls)
     dynmat_us    :     34.84s CPU     36.27s WALL (      16 calls)
     d2ionq       :      0.01s CPU      0.02s WALL (      16 calls)

     dynmat_us    :     34.84s CPU     36.27s WALL (      16 calls)
     addusdynmat  :      0.00s CPU      0.00s WALL (      16 calls)

     phqscf       :  17596.70s CPU  19166.94s WALL (      16 calls)
     solve_linter :  17541.43s CPU  19107.49s WALL (      40 calls)

     solve_linter :  17541.43s CPU  19107.49s WALL (      40 calls)
     dvqpsi_us    :    345.24s CPU    368.42s WALL (  110718 calls)
     ortho        :    207.90s CPU    222.27s WALL (  982882 calls)
     cgsolve      :  13940.90s CPU  15082.43s WALL (  982882 calls)
     incdrhoscf   :   1357.62s CPU   1535.63s WALL (  982882 calls)
     addusddens   :      5.21s CPU      5.30s WALL (     388 calls)
     vpsifft      :   1120.72s CPU   1210.84s WALL (  872164 calls)
     dv_of_drho   :      4.50s CPU      4.63s WALL (     402 calls)
     mix_pot      :      0.84s CPU      3.03s WALL (     348 calls)
     ef_shift     :      0.04s CPU      0.11s WALL (       7 calls)
     localdos     :      0.24s CPU      0.26s WALL (       1 calls)
     psymdvscf    :     36.81s CPU     37.88s WALL (     348 calls)
     newdq        :      5.07s CPU      5.19s WALL (     348 calls)
     adddvscf     :     56.57s CPU     60.53s WALL (  872164 calls)
     drhodvus     :      0.03s CPU      0.03s WALL (      40 calls)

     dvqpsi_us    :    345.24s CPU    368.42s WALL (  110718 calls)
     dvqpsi_us_on :     54.29s CPU     56.93s WALL (  110718 calls)

     cgsolve      :  13940.90s CPU  15082.43s WALL (  982882 calls)
     ch_psi       :  13252.81s CPU  14327.35s WALL (10001125 calls)

     ch_psi       :  13252.81s CPU  14327.35s WALL (10001125 calls)
     h_psi        :  14090.91s CPU  15165.73s WALL (11709265 calls)
     last         :   1273.10s CPU   1384.27s WALL (10001125 calls)

     h_psi        :  14090.91s CPU  15165.73s WALL (11709265 calls)
     add_vuspsi   :    204.25s CPU    222.40s WALL (11709265 calls)

     incdrhoscf   :   1357.62s CPU   1535.63s WALL (  982882 calls)
     addusdbec    :    104.95s CPU    111.36s WALL ( 1093600 calls)

     drhodvus     :      0.03s CPU      0.03s WALL (      40 calls)

      General routines
     calbec       :   1386.30s CPU   1490.60s WALL (24745849 calls)
     fft          :      6.04s CPU      6.31s WALL (    6451 calls)
     ffts         :     20.91s CPU     23.09s WALL (  112706 calls)
     fftw         :  14146.20s CPU  15284.77s WALL (******** calls)
     davcio       :    130.41s CPU    233.53s WALL ( 5120851 calls)
     write_rec    :      1.38s CPU      3.50s WALL (     388 calls)


     PHONON       :     6h31m CPU        7h 2m WALL


   This run was terminated on:  17: 4:39  29Jan2018            

=------------------------------------------------------------------------------=
   JOB DONE.
=------------------------------------------------------------------------------=
