
     Program PWSCF v.6.1 (svn rev. 13369) starts on 20Dec2017 at 11:14: 1 

     This program is part of the open-source Quantum ESPRESSO suite
     for quantum simulation of materials; please cite
         "P. Giannozzi et al., J. Phys.:Condens. Matter 21 395502 (2009);
          URL http://www.quantum-espresso.org", 
     in publications or presentations arising from this work. More details at
     http://www.quantum-espresso.org/quote

     Parallel version (MPI), running on     4 processors
     R & G space division:  proc/nbgrp/npool/nimage =       4
     Waiting for input...
     Reading input from standard input

     Current dimensions of program PWSCF are:
     Max number of different atomic species (ntypx) = 10
     Max number of k-points (npk) =  40000
     Max angular momentum in pseudopotentials (lmaxx) =  3

     Subspace diagonalization in iterative solution of the eigenvalue problem:
     a serial algorithm will be used


     Parallelization info
     --------------------
     sticks:   dense  smooth     PW     G-vecs:    dense   smooth      PW
     Min         175      90     30                 3084     1095     234
     Max         176      91     31                 3086     1096     238
     Sum         703     361    121                12339     4381     941



     bravais-lattice index     =            2
     lattice parameter (alat)  =       8.0000  a.u.
     unit-cell volume          =     128.0000 (a.u.)^3
     number of atoms/cell      =            1
     number of atomic types    =            1
     number of electrons       =         9.00
     number of Kohn-Sham states=            9
     kinetic-energy cutoff     =      40.0000  Ry
     charge density cutoff     =     320.0000  Ry
     convergence threshold     =      1.0E-08
     mixing beta               =       0.7000
     number of iterations used =            8  plain     mixing
     Exchange-correlation      = SLA  PW   PBE  PBE ( 1  4  3  4 0 0)
     nstep                     =           50


     celldm(1)=   8.000000  celldm(2)=   0.000000  celldm(3)=   0.000000
     celldm(4)=   0.000000  celldm(5)=   0.000000  celldm(6)=   0.000000

     crystal axes: (cart. coord. in units of alat)
               a(1) = (  -0.500000   0.000000   0.500000 )  
               a(2) = (   0.000000   0.500000   0.500000 )  
               a(3) = (  -0.500000   0.500000   0.000000 )  

     reciprocal axes: (cart. coord. in units 2 pi/alat)
               b(1) = ( -1.000000 -1.000000  1.000000 )  
               b(2) = (  1.000000  1.000000  1.000000 )  
               b(3) = ( -1.000000  1.000000 -1.000000 )  


     PseudoPot. # 1 for Na read from file:
     /home/s1333534/quantum_espresso/qe-6.1/pseudo/Na_pbe_v1.uspp.F.UPF
     MD5 check sum: 76a99c7e9422403d3e93cbc85ab7bccb
     Pseudo is Ultrasoft, Zval =  9.0
     Generated by new atomic code, or converted to UPF format
     Using radial grid of  819 points,  5 beta functions with: 
                l(1) =   0
                l(2) =   0
                l(3) =   1
                l(4) =   1
                l(5) =   2
     Q(r) pseudized with  8 coefficients,  rinner =    1.250   1.250   1.250
                                                       1.250   1.250

     atomic species   valence    mass     pseudopotential
        Na             9.00    22.99000     Na( 1.00)

     48 Sym. Ops., with inversion, found



   Cartesian axes

     site n.     atom                  positions (alat units)
         1           Na  tau(   1) = (   0.0000000   0.0000000   0.0000000  )

     number of k points=   770  Marzari-Vanderbilt smearing, width (Ry)=  0.0200

     Number of k-points >= 100: set verbosity='high' to print them.

     Dense  grid:    12339 G-vectors     FFT dimensions: (  36,  36,  36)

     Smooth grid:     4381 G-vectors     FFT dimensions: (  24,  24,  24)

     Estimated max dynamical RAM per process >      16.64MB

     Estimated total allocated dynamical RAM >      66.55MB

     Initial potential from superposition of free atoms

     starting charge    8.99371, renormalised to    9.00000
     Starting wfc are    5 randomized atomic wfcs +    4 random wfc

     total cpu time spent up to now is        1.3 secs

     per-process dynamical memory:    24.8 Mb

     Self-consistent Calculation

     iteration #  1     ecut=    40.00 Ry     beta=0.70
     Davidson diagonalization with overlap
     ethr =  1.00E-02,  avg # of iterations =  5.1

     Threshold (ethr) on eigenvalues was too large:
     Diagonalizing with lowered threshold

     Davidson diagonalization with overlap
     ethr =  2.47E-05,  avg # of iterations =  2.4

     total cpu time spent up to now is        8.3 secs

     total energy              =     -95.06263719 Ry
     Harris-Foulkes estimate   =     -95.06346383 Ry
     estimated scf accuracy    <       0.00221907 Ry

     iteration #  2     ecut=    40.00 Ry     beta=0.70
     Davidson diagonalization with overlap
     ethr =  2.47E-05,  avg # of iterations =  2.0

     total cpu time spent up to now is       10.9 secs

     total energy              =     -95.06293327 Ry
     Harris-Foulkes estimate   =     -95.06299962 Ry
     estimated scf accuracy    <       0.00025023 Ry

     iteration #  3     ecut=    40.00 Ry     beta=0.70
     Davidson diagonalization with overlap
     ethr =  2.78E-06,  avg # of iterations =  2.1

     total cpu time spent up to now is       13.5 secs

     total energy              =     -95.06296602 Ry
     Harris-Foulkes estimate   =     -95.06296754 Ry
     estimated scf accuracy    <       0.00001446 Ry

     iteration #  4     ecut=    40.00 Ry     beta=0.70
     Davidson diagonalization with overlap
     ethr =  1.61E-07,  avg # of iterations =  1.0

     total cpu time spent up to now is       15.7 secs

     total energy              =     -95.06296732 Ry
     Harris-Foulkes estimate   =     -95.06296725 Ry
     estimated scf accuracy    <       0.00000002 Ry

     iteration #  5     ecut=    40.00 Ry     beta=0.70
     Davidson diagonalization with overlap
     ethr =  2.20E-10,  avg # of iterations =  3.0

     total cpu time spent up to now is       18.9 secs

     End of self-consistent calculation

     Number of k-points >= 100: set verbosity='high' to print the bands.

     the Fermi energy is     5.7098 ev

!    total energy              =     -95.06296737 Ry
     Harris-Foulkes estimate   =     -95.06296737 Ry
     estimated scf accuracy    <          2.7E-09 Ry

     The total energy is the sum of the following terms:

     one-electron contribution =     -72.01868817 Ry
     hartree contribution      =      37.75480527 Ry
     xc contribution           =     -14.37732448 Ry
     ewald contribution        =     -46.42172850 Ry
     smearing contrib. (-TS)   =      -0.00003149 Ry

     convergence has been achieved in   5 iterations

     Forces acting on atoms (cartesian axes, Ry/au):

     atom    1 type  1   force =     0.00000000    0.00000000    0.00000000

     Total force =     0.000000     Total SCF correction =     0.000000


     Computing stress (Cartesian axis) and pressure

          total   stress  (Ry/bohr**3)                   (kbar)     P=  175.59
   0.00119366   0.00000000   0.00000000        175.59      0.00      0.00
   0.00000000   0.00119366  -0.00000000          0.00    175.59     -0.00
   0.00000000  -0.00000000   0.00119366          0.00     -0.00    175.59


     BFGS Geometry Optimization

     number of scf cycles    =   1
     number of bfgs steps    =   0

     enthalpy new            =     -95.0194610471 Ry

     new trust radius        =       0.0482965697 bohr
     new conv_thr            =       0.0000000100 Ry

     new unit-cell volume =    136.37239 a.u.^3 (    20.20830 Ang^3 )
     density =      1.88911 g/cm^3

CELL_PARAMETERS (alat=  8.00000000)
  -0.510672135  -0.000000000   0.510672135
   0.000000000   0.510672135   0.510672135
  -0.510672135   0.510672135  -0.000000000

ATOMIC_POSITIONS (crystal)
Na       0.000000000   0.000000000   0.000000000



     Writing output data file na.fcc.save
     NEW-OLD atomic charge density approx. for the potential
     extrapolated charge    9.55216, renormalised to    9.00000

     total cpu time spent up to now is       20.8 secs

     per-process dynamical memory:    31.6 Mb

     Self-consistent Calculation

     iteration #  1     ecut=    40.00 Ry     beta=0.70
     Davidson diagonalization with overlap
     ethr =  1.00E-06,  avg # of iterations =  4.1

     total cpu time spent up to now is       25.3 secs

     total energy              =     -94.83532516 Ry
     Harris-Foulkes estimate   =     -91.48611295 Ry
     estimated scf accuracy    <       0.13244539 Ry

     iteration #  2     ecut=    40.00 Ry     beta=0.70
     Davidson diagonalization with overlap
     ethr =  1.47E-03,  avg # of iterations =  3.0

     total cpu time spent up to now is       28.8 secs

     total energy              =     -95.08111755 Ry
     Harris-Foulkes estimate   =     -95.17818066 Ry
     estimated scf accuracy    <       0.22066468 Ry

     iteration #  3     ecut=    40.00 Ry     beta=0.70
     Davidson diagonalization with overlap
     ethr =  1.47E-03,  avg # of iterations =  1.1

     total cpu time spent up to now is       31.0 secs

     total energy              =     -95.07728509 Ry
     Harris-Foulkes estimate   =     -95.09391591 Ry
     estimated scf accuracy    <       0.04820951 Ry

     iteration #  4     ecut=    40.00 Ry     beta=0.70
     Davidson diagonalization with overlap
     ethr =  5.36E-04,  avg # of iterations =  1.0

     total cpu time spent up to now is       33.2 secs

     total energy              =     -95.07671452 Ry
     Harris-Foulkes estimate   =     -95.07936540 Ry
     estimated scf accuracy    <       0.01593382 Ry

     iteration #  5     ecut=    40.00 Ry     beta=0.70
     Davidson diagonalization with overlap
     ethr =  1.77E-04,  avg # of iterations =  1.0

     total cpu time spent up to now is       35.4 secs

     total energy              =     -95.07414627 Ry
     Harris-Foulkes estimate   =     -95.07691016 Ry
     estimated scf accuracy    <       0.01074825 Ry

     iteration #  6     ecut=    40.00 Ry     beta=0.70
     Davidson diagonalization with overlap
     ethr =  1.19E-04,  avg # of iterations =  1.0

     total cpu time spent up to now is       37.6 secs

     total energy              =     -95.07110361 Ry
     Harris-Foulkes estimate   =     -95.07434452 Ry
     estimated scf accuracy    <       0.00533448 Ry

     iteration #  7     ecut=    40.00 Ry     beta=0.70
     Davidson diagonalization with overlap
     ethr =  5.93E-05,  avg # of iterations =  2.0

     total cpu time spent up to now is       40.2 secs

     total energy              =     -95.07187307 Ry
     Harris-Foulkes estimate   =     -95.07192856 Ry
     estimated scf accuracy    <       0.00013254 Ry

     iteration #  8     ecut=    40.00 Ry     beta=0.70
     Davidson diagonalization with overlap
     ethr =  1.47E-06,  avg # of iterations =  2.0

     total cpu time spent up to now is       42.7 secs

     total energy              =     -95.07185883 Ry
     Harris-Foulkes estimate   =     -95.07188372 Ry
     estimated scf accuracy    <       0.00003001 Ry

     iteration #  9     ecut=    40.00 Ry     beta=0.70
     Davidson diagonalization with overlap
     ethr =  3.33E-07,  avg # of iterations =  2.0

     total cpu time spent up to now is       45.5 secs

     total energy              =     -95.07186293 Ry
     Harris-Foulkes estimate   =     -95.07188810 Ry
     estimated scf accuracy    <       0.00003844 Ry

     iteration # 10     ecut=    40.00 Ry     beta=0.70
     Davidson diagonalization with overlap
     ethr =  3.33E-07,  avg # of iterations =  2.0

     total cpu time spent up to now is       48.2 secs

     total energy              =     -95.07187096 Ry
     Harris-Foulkes estimate   =     -95.07187102 Ry
     estimated scf accuracy    <       0.00000207 Ry

     iteration # 11     ecut=    40.00 Ry     beta=0.70
     Davidson diagonalization with overlap
     ethr =  2.30E-08,  avg # of iterations =  1.9

     total cpu time spent up to now is       50.8 secs

     total energy              =     -95.07187041 Ry
     Harris-Foulkes estimate   =     -95.07187128 Ry
     estimated scf accuracy    <       0.00000196 Ry

     iteration # 12     ecut=    40.00 Ry     beta=0.70
     Davidson diagonalization with overlap
     ethr =  2.18E-08,  avg # of iterations =  1.1

     total cpu time spent up to now is       53.0 secs

     total energy              =     -95.07187056 Ry
     Harris-Foulkes estimate   =     -95.07187060 Ry
     estimated scf accuracy    <       0.00000010 Ry

     iteration # 13     ecut=    40.00 Ry     beta=0.70
     Davidson diagonalization with overlap
     ethr =  1.16E-09,  avg # of iterations =  1.8

     total cpu time spent up to now is       55.4 secs

     total energy              =     -95.07187057 Ry
     Harris-Foulkes estimate   =     -95.07187057 Ry
     estimated scf accuracy    <       0.00000002 Ry

     iteration # 14     ecut=    40.00 Ry     beta=0.70
     Davidson diagonalization with overlap
     ethr =  2.00E-10,  avg # of iterations =  2.0

     total cpu time spent up to now is       58.1 secs

     End of self-consistent calculation

     Number of k-points >= 100: set verbosity='high' to print the bands.

     the Fermi energy is     5.1792 ev

!    total energy              =     -95.07187057 Ry
     Harris-Foulkes estimate   =     -95.07187057 Ry
     estimated scf accuracy    <          5.8E-09 Ry

     The total energy is the sum of the following terms:

     one-electron contribution =     -73.68322073 Ry
     hartree contribution      =      38.42750498 Ry
     xc contribution           =     -14.36452576 Ry
     ewald contribution        =     -45.45159733 Ry
     smearing contrib. (-TS)   =      -0.00003173 Ry

     convergence has been achieved in  14 iterations

     Forces acting on atoms (cartesian axes, Ry/au):

     atom    1 type  1   force =     0.00000000    0.00000000    0.00000000

     Total force =     0.000000     Total SCF correction =     0.000000


     Computing stress (Cartesian axis) and pressure

          total   stress  (Ry/bohr**3)                   (kbar)     P=  137.61
   0.00093548  -0.00000000  -0.00000000        137.61     -0.00     -0.00
  -0.00000000   0.00093548   0.00000000         -0.00    137.61      0.00
  -0.00000000   0.00000000   0.00093548         -0.00      0.00    137.61


     number of scf cycles    =   2
     number of bfgs steps    =   1

     enthalpy old            =     -95.0194610471 Ry
     enthalpy new            =     -95.0255185269 Ry

     CASE: enthalpy_new < enthalpy_old

     new trust radius        =       0.0536902034 bohr
     new conv_thr            =            1.0E-10 Ry

     new unit-cell volume =    145.99504 a.u.^3 (    21.63423 Ang^3 )
     density =      1.76460 g/cm^3

CELL_PARAMETERS (alat=  8.00000000)
  -0.522411484  -0.000000000   0.522411484
   0.000000000   0.522411484   0.522411484
  -0.522411484   0.522411484  -0.000000000

ATOMIC_POSITIONS (crystal)
Na       0.000000000   0.000000000   0.000000000



     Writing output data file na.fcc.save
     NEW-OLD atomic charge density approx. for the potential
     extrapolated charge    9.59278, renormalised to    9.00000

     total cpu time spent up to now is       60.0 secs

     per-process dynamical memory:    31.6 Mb

     Self-consistent Calculation

     iteration #  1     ecut=    40.00 Ry     beta=0.70
     Davidson diagonalization with overlap
     ethr =  1.00E-06,  avg # of iterations =  4.2

     total cpu time spent up to now is       64.5 secs

     total energy              =     -94.79827788 Ry
     Harris-Foulkes estimate   =     -91.13327326 Ry
     estimated scf accuracy    <       0.15762816 Ry

     iteration #  2     ecut=    40.00 Ry     beta=0.70
     Davidson diagonalization with overlap
     ethr =  1.75E-03,  avg # of iterations =  3.0

     total cpu time spent up to now is       68.0 secs

     total energy              =     -95.09131528 Ry
     Harris-Foulkes estimate   =     -95.20668504 Ry
     estimated scf accuracy    <       0.26209375 Ry

     iteration #  3     ecut=    40.00 Ry     beta=0.70
     Davidson diagonalization with overlap
     ethr =  1.75E-03,  avg # of iterations =  1.1

     total cpu time spent up to now is       70.2 secs

     total energy              =     -95.08617018 Ry
     Harris-Foulkes estimate   =     -95.10635624 Ry
     estimated scf accuracy    <       0.05777656 Ry

     iteration #  4     ecut=    40.00 Ry     beta=0.70
     Davidson diagonalization with overlap
     ethr =  6.42E-04,  avg # of iterations =  1.0

     total cpu time spent up to now is       72.4 secs

     total energy              =     -95.08527564 Ry
     Harris-Foulkes estimate   =     -95.08869581 Ry
     estimated scf accuracy    <       0.01882818 Ry

     iteration #  5     ecut=    40.00 Ry     beta=0.70
     Davidson diagonalization with overlap
     ethr =  2.09E-04,  avg # of iterations =  1.0

     total cpu time spent up to now is       74.6 secs

     total energy              =     -95.08221365 Ry
     Harris-Foulkes estimate   =     -95.08553459 Ry
     estimated scf accuracy    <       0.01208321 Ry

     iteration #  6     ecut=    40.00 Ry     beta=0.70
     Davidson diagonalization with overlap
     ethr =  1.34E-04,  avg # of iterations =  1.0

     total cpu time spent up to now is       76.8 secs

     total energy              =     -95.07886315 Ry
     Harris-Foulkes estimate   =     -95.08246140 Ry
     estimated scf accuracy    <       0.00567257 Ry

     iteration #  7     ecut=    40.00 Ry     beta=0.70
     Davidson diagonalization with overlap
     ethr =  6.30E-05,  avg # of iterations =  2.0

     total cpu time spent up to now is       79.5 secs

     total energy              =     -95.07984900 Ry
     Harris-Foulkes estimate   =     -95.07985508 Ry
     estimated scf accuracy    <       0.00006392 Ry

     iteration #  8     ecut=    40.00 Ry     beta=0.70
     Davidson diagonalization with overlap
     ethr =  7.10E-07,  avg # of iterations =  2.0

     total cpu time spent up to now is       82.0 secs

     total energy              =     -95.07980688 Ry
     Harris-Foulkes estimate   =     -95.07985105 Ry
     estimated scf accuracy    <       0.00005261 Ry

     iteration #  9     ecut=    40.00 Ry     beta=0.70
     Davidson diagonalization with overlap
     ethr =  5.85E-07,  avg # of iterations =  2.0

     total cpu time spent up to now is       84.7 secs

     total energy              =     -95.07984473 Ry
     Harris-Foulkes estimate   =     -95.07984522 Ry
     estimated scf accuracy    <       0.00003859 Ry

     iteration # 10     ecut=    40.00 Ry     beta=0.70
     Davidson diagonalization with overlap
     ethr =  4.29E-07,  avg # of iterations =  1.0

     total cpu time spent up to now is       86.9 secs

     total energy              =     -95.07981459 Ry
     Harris-Foulkes estimate   =     -95.07984474 Ry
     estimated scf accuracy    <       0.00003757 Ry

     iteration # 11     ecut=    40.00 Ry     beta=0.70
     Davidson diagonalization with overlap
     ethr =  4.17E-07,  avg # of iterations =  2.0

     total cpu time spent up to now is       89.7 secs

     total energy              =     -95.07982625 Ry
     Harris-Foulkes estimate   =     -95.07983148 Ry
     estimated scf accuracy    <       0.00000951 Ry

     iteration # 12     ecut=    40.00 Ry     beta=0.70
     Davidson diagonalization with overlap
     ethr =  1.06E-07,  avg # of iterations =  2.0

     total cpu time spent up to now is       92.3 secs

     total energy              =     -95.07982755 Ry
     Harris-Foulkes estimate   =     -95.07982762 Ry
     estimated scf accuracy    <       0.00000013 Ry

     iteration # 13     ecut=    40.00 Ry     beta=0.70
     Davidson diagonalization with overlap
     ethr =  1.46E-09,  avg # of iterations =  2.0

     total cpu time spent up to now is       95.0 secs

     total energy              =     -95.07982758 Ry
     Harris-Foulkes estimate   =     -95.07982758 Ry
     estimated scf accuracy    <          8.2E-09 Ry

     iteration # 14     ecut=    40.00 Ry     beta=0.70
     Davidson diagonalization with overlap
     ethr =  9.08E-11,  avg # of iterations =  1.0

     total cpu time spent up to now is       97.2 secs

     total energy              =     -95.07982758 Ry
     Harris-Foulkes estimate   =     -95.07982758 Ry
     estimated scf accuracy    <          3.1E-09 Ry

     iteration # 15     ecut=    40.00 Ry     beta=0.70
     Davidson diagonalization with overlap
     ethr =  3.46E-11,  avg # of iterations =  2.0

     total cpu time spent up to now is       99.9 secs

     total energy              =     -95.07982758 Ry
     Harris-Foulkes estimate   =     -95.07982758 Ry
     estimated scf accuracy    <          1.9E-10 Ry

     iteration # 16     ecut=    40.00 Ry     beta=0.70
     Davidson diagonalization with overlap
     ethr =  2.15E-12,  avg # of iterations =  1.0

     total cpu time spent up to now is      102.1 secs

     End of self-consistent calculation

     Number of k-points >= 100: set verbosity='high' to print the bands.

     the Fermi energy is     4.6482 ev

!    total energy              =     -95.07982758 Ry
     Harris-Foulkes estimate   =     -95.07982758 Ry
     estimated scf accuracy    <          4.8E-11 Ry

     The total energy is the sum of the following terms:

     one-electron contribution =     -75.44108239 Ry
     hartree contribution      =      39.14313215 Ry
     xc contribution           =     -14.35161140 Ry
     ewald contribution        =     -44.43023359 Ry
     smearing contrib. (-TS)   =      -0.00003234 Ry

     convergence has been achieved in  16 iterations

     Forces acting on atoms (cartesian axes, Ry/au):

     atom    1 type  1   force =     0.00000000    0.00000000    0.00000000

     Total force =     0.000000     Total SCF correction =     0.000000


     Computing stress (Cartesian axis) and pressure

          total   stress  (Ry/bohr**3)                   (kbar)     P=  106.22
   0.00072205  -0.00000000  -0.00000000        106.22     -0.00     -0.00
  -0.00000000   0.00072205  -0.00000000         -0.00    106.22     -0.00
   0.00000000   0.00000000   0.00072205          0.00      0.00    106.22


     number of scf cycles    =   3
     number of bfgs steps    =   2

     enthalpy old            =     -95.0255185269 Ry
     enthalpy new            =     -95.0302048640 Ry

     CASE: enthalpy_new < enthalpy_old

     new trust radius        =       0.0814557197 bohr
     new conv_thr            =            1.0E-10 Ry

     new unit-cell volume =    161.26151 a.u.^3 (    23.89649 Ang^3 )
     density =      1.59755 g/cm^3

CELL_PARAMETERS (alat=  8.00000000)
  -0.540020507   0.000000000   0.540020507
  -0.000000000   0.540020507   0.540020507
  -0.540020507   0.540020507  -0.000000000

ATOMIC_POSITIONS (crystal)
Na       0.000000000   0.000000000   0.000000000



     Writing output data file na.fcc.save
     NEW-OLD atomic charge density approx. for the potential
     extrapolated charge    9.85143, renormalised to    9.00000

     total cpu time spent up to now is      104.0 secs

     per-process dynamical memory:    31.6 Mb

     Self-consistent Calculation

     iteration #  1     ecut=    40.00 Ry     beta=0.70
     Davidson diagonalization with overlap
     ethr =  1.00E-06,  avg # of iterations =  4.7

     total cpu time spent up to now is      108.7 secs

     total energy              =     -94.40908559 Ry
     Harris-Foulkes estimate   =     -89.22523591 Ry
     estimated scf accuracy    <       0.38346938 Ry

     iteration #  2     ecut=    40.00 Ry     beta=0.70
     Davidson diagonalization with overlap
     ethr =  4.26E-03,  avg # of iterations =  3.0

     total cpu time spent up to now is      112.1 secs

     total energy              =     -95.12348999 Ry
     Harris-Foulkes estimate   =     -95.40001176 Ry
     estimated scf accuracy    <       0.62394347 Ry

     iteration #  3     ecut=    40.00 Ry     beta=0.70
     Davidson diagonalization with overlap
     ethr =  4.26E-03,  avg # of iterations =  1.0

     total cpu time spent up to now is      114.3 secs

     total energy              =     -95.10368638 Ry
     Harris-Foulkes estimate   =     -95.15701002 Ry
     estimated scf accuracy    <       0.14494018 Ry

     iteration #  4     ecut=    40.00 Ry     beta=0.70
     Davidson diagonalization with overlap
     ethr =  1.61E-03,  avg # of iterations =  1.0

     total cpu time spent up to now is      116.5 secs

     total energy              =     -95.10121787 Ry
     Harris-Foulkes estimate   =     -95.11029383 Ry
     estimated scf accuracy    <       0.04492833 Ry

     iteration #  5     ecut=    40.00 Ry     beta=0.70
     Davidson diagonalization with overlap
     ethr =  4.99E-04,  avg # of iterations =  1.0

     total cpu time spent up to now is      118.7 secs

     total energy              =     -95.09206731 Ry
     Harris-Foulkes estimate   =     -95.10191581 Ry
     estimated scf accuracy    <       0.02714729 Ry

     iteration #  6     ecut=    40.00 Ry     beta=0.70
     Davidson diagonalization with overlap
     ethr =  3.02E-04,  avg # of iterations =  1.0

     total cpu time spent up to now is      120.9 secs

     total energy              =     -95.08688534 Ry
     Harris-Foulkes estimate   =     -95.09305942 Ry
     estimated scf accuracy    <       0.00904411 Ry

     iteration #  7     ecut=    40.00 Ry     beta=0.70
     Davidson diagonalization with overlap
     ethr =  1.00E-04,  avg # of iterations =  2.0

     total cpu time spent up to now is      123.6 secs

     total energy              =     -95.08885988 Ry
     Harris-Foulkes estimate   =     -95.08885099 Ry
     estimated scf accuracy    <       0.00000834 Ry

     iteration #  8     ecut=    40.00 Ry     beta=0.70
     Davidson diagonalization with overlap
     ethr =  9.27E-08,  avg # of iterations =  2.9

     total cpu time spent up to now is      126.8 secs

     total energy              =     -95.08886162 Ry
     Harris-Foulkes estimate   =     -95.08886987 Ry
     estimated scf accuracy    <       0.00005413 Ry

     iteration #  9     ecut=    40.00 Ry     beta=0.70
     Davidson diagonalization with overlap
     ethr =  9.27E-08,  avg # of iterations =  1.0

     total cpu time spent up to now is      129.0 secs

     total energy              =     -95.08885190 Ry
     Harris-Foulkes estimate   =     -95.08886202 Ry
     estimated scf accuracy    <       0.00002664 Ry

     iteration # 10     ecut=    40.00 Ry     beta=0.70
     Davidson diagonalization with overlap
     ethr =  9.27E-08,  avg # of iterations =  2.0

     total cpu time spent up to now is      131.7 secs

     total energy              =     -95.08884938 Ry
     Harris-Foulkes estimate   =     -95.08885360 Ry
     estimated scf accuracy    <       0.00000539 Ry

     iteration # 11     ecut=    40.00 Ry     beta=0.70
     Davidson diagonalization with overlap
     ethr =  5.99E-08,  avg # of iterations =  2.0

     total cpu time spent up to now is      134.5 secs

     total energy              =     -95.08885111 Ry
     Harris-Foulkes estimate   =     -95.08885130 Ry
     estimated scf accuracy    <       0.00000065 Ry

     iteration # 12     ecut=    40.00 Ry     beta=0.70
     Davidson diagonalization with overlap
     ethr =  7.17E-09,  avg # of iterations =  1.0

     total cpu time spent up to now is      136.7 secs

     total energy              =     -95.08885098 Ry
     Harris-Foulkes estimate   =     -95.08885113 Ry
     estimated scf accuracy    <       0.00000028 Ry

     iteration # 13     ecut=    40.00 Ry     beta=0.70
     Davidson diagonalization with overlap
     ethr =  3.09E-09,  avg # of iterations =  2.0

     total cpu time spent up to now is      139.2 secs

     total energy              =     -95.08885102 Ry
     Harris-Foulkes estimate   =     -95.08885102 Ry
     estimated scf accuracy    <       0.00000001 Ry

     iteration # 14     ecut=    40.00 Ry     beta=0.70
     Davidson diagonalization with overlap
     ethr =  1.64E-10,  avg # of iterations =  1.0

     total cpu time spent up to now is      141.4 secs

     total energy              =     -95.08885101 Ry
     Harris-Foulkes estimate   =     -95.08885102 Ry
     estimated scf accuracy    <       0.00000003 Ry

     iteration # 15     ecut=    40.00 Ry     beta=0.70
     Davidson diagonalization with overlap
     ethr =  1.64E-10,  avg # of iterations =  2.0

     total cpu time spent up to now is      144.1 secs

     End of self-consistent calculation

     Number of k-points >= 100: set verbosity='high' to print the bands.

     the Fermi energy is     3.9419 ev

!    total energy              =     -95.08885101 Ry
     Harris-Foulkes estimate   =     -95.08885101 Ry
     estimated scf accuracy    <          7.4E-11 Ry

     The total energy is the sum of the following terms:

     one-electron contribution =     -77.94281563 Ry
     hartree contribution      =      40.16939916 Ry
     xc contribution           =     -14.33395100 Ry
     ewald contribution        =     -42.98144972 Ry
     smearing contrib. (-TS)   =      -0.00003383 Ry

     convergence has been achieved in  15 iterations

     Forces acting on atoms (cartesian axes, Ry/au):

     atom    1 type  1   force =     0.00000000    0.00000000    0.00000000

     Total force =     0.000000     Total SCF correction =     0.000000


     Computing stress (Cartesian axis) and pressure

          total   stress  (Ry/bohr**3)                   (kbar)     P=   70.38
   0.00047842   0.00000000  -0.00000000         70.38      0.00     -0.00
   0.00000000   0.00047842   0.00000000          0.00     70.38      0.00
  -0.00000000   0.00000000   0.00047842         -0.00      0.00     70.38


     number of scf cycles    =   4
     number of bfgs steps    =   3

     enthalpy old            =     -95.0302048640 Ry
     enthalpy new            =     -95.0340393302 Ry

     CASE: enthalpy_new < enthalpy_old

     new trust radius        =       0.0523605429 bohr
     new conv_thr            =            1.0E-10 Ry

     new unit-cell volume =    171.44234 a.u.^3 (    25.40513 Ang^3 )
     density =      1.50268 g/cm^3

CELL_PARAMETERS (alat=  8.00000000)
  -0.551153682   0.000000000   0.551153682
  -0.000000000   0.551153682   0.551153682
  -0.551153682   0.551153682  -0.000000000

ATOMIC_POSITIONS (crystal)
Na       0.000000000   0.000000000   0.000000000



     Writing output data file na.fcc.save
     NEW-OLD atomic charge density approx. for the potential
     extrapolated charge    9.53408, renormalised to    9.00000

     total cpu time spent up to now is      146.0 secs

     per-process dynamical memory:    31.6 Mb

     Self-consistent Calculation

     iteration #  1     ecut=    40.00 Ry     beta=0.70
     Davidson diagonalization with overlap
     ethr =  1.00E-06,  avg # of iterations =  4.2

     total cpu time spent up to now is      150.5 secs

     total energy              =     -94.86493065 Ry
     Harris-Foulkes estimate   =     -91.33673571 Ry
     estimated scf accuracy    <       0.12747606 Ry

     iteration #  2     ecut=    40.00 Ry     beta=0.70
     Davidson diagonalization with overlap
     ethr =  1.42E-03,  avg # of iterations =  3.0

     total cpu time spent up to now is      154.0 secs

     total energy              =     -95.10200090 Ry
     Harris-Foulkes estimate   =     -95.19541833 Ry
     estimated scf accuracy    <       0.21232784 Ry

     iteration #  3     ecut=    40.00 Ry     beta=0.70
     Davidson diagonalization with overlap
     ethr =  1.42E-03,  avg # of iterations =  1.2

     total cpu time spent up to now is      156.3 secs

     total energy              =     -95.09816191 Ry
     Harris-Foulkes estimate   =     -95.11435640 Ry
     estimated scf accuracy    <       0.04624134 Ry

     iteration #  4     ecut=    40.00 Ry     beta=0.70
     Davidson diagonalization with overlap
     ethr =  5.14E-04,  avg # of iterations =  1.0

     total cpu time spent up to now is      158.4 secs

     total energy              =     -95.09643147 Ry
     Harris-Foulkes estimate   =     -95.10018049 Ry
     estimated scf accuracy    <       0.01501396 Ry

     iteration #  5     ecut=    40.00 Ry     beta=0.70
     Davidson diagonalization with overlap
     ethr =  1.67E-04,  avg # of iterations =  1.0

     total cpu time spent up to now is      160.6 secs

     total energy              =     -95.09365018 Ry
     Harris-Foulkes estimate   =     -95.09675337 Ry
     estimated scf accuracy    <       0.00760064 Ry

     iteration #  6     ecut=    40.00 Ry     beta=0.70
     Davidson diagonalization with overlap
     ethr =  8.45E-05,  avg # of iterations =  1.0

     total cpu time spent up to now is      162.8 secs

     total energy              =     -95.09275450 Ry
     Harris-Foulkes estimate   =     -95.09402247 Ry
     estimated scf accuracy    <       0.00195436 Ry

     iteration #  7     ecut=    40.00 Ry     beta=0.70
     Davidson diagonalization with overlap
     ethr =  2.17E-05,  avg # of iterations =  2.1

     total cpu time spent up to now is      165.5 secs

     total energy              =     -95.09317363 Ry
     Harris-Foulkes estimate   =     -95.09313469 Ry
     estimated scf accuracy    <       0.00000867 Ry

     iteration #  8     ecut=    40.00 Ry     beta=0.70
     Davidson diagonalization with overlap
     ethr =  9.63E-08,  avg # of iterations =  2.6

     total cpu time spent up to now is      168.5 secs

     total energy              =     -95.09310094 Ry
     Harris-Foulkes estimate   =     -95.09318861 Ry
     estimated scf accuracy    <       0.00012442 Ry

     iteration #  9     ecut=    40.00 Ry     beta=0.70
     Davidson diagonalization with overlap
     ethr =  9.63E-08,  avg # of iterations =  2.9

     total cpu time spent up to now is      171.6 secs

     total energy              =     -95.09313146 Ry
     Harris-Foulkes estimate   =     -95.09313148 Ry
     estimated scf accuracy    <       0.00000073 Ry

     iteration # 10     ecut=    40.00 Ry     beta=0.70
     Davidson diagonalization with overlap
     ethr =  8.16E-09,  avg # of iterations =  1.0

     total cpu time spent up to now is      173.8 secs

     total energy              =     -95.09313097 Ry
     Harris-Foulkes estimate   =     -95.09313146 Ry
     estimated scf accuracy    <       0.00000068 Ry

     iteration # 11     ecut=    40.00 Ry     beta=0.70
     Davidson diagonalization with overlap
     ethr =  7.57E-09,  avg # of iterations =  2.0

     total cpu time spent up to now is      176.5 secs

     total energy              =     -95.09313115 Ry
     Harris-Foulkes estimate   =     -95.09313115 Ry
     estimated scf accuracy    <       0.00000001 Ry

     iteration # 12     ecut=    40.00 Ry     beta=0.70
     Davidson diagonalization with overlap
     ethr =  1.52E-10,  avg # of iterations =  2.8

     total cpu time spent up to now is      179.5 secs

     total energy              =     -95.09313112 Ry
     Harris-Foulkes estimate   =     -95.09313118 Ry
     estimated scf accuracy    <       0.00000008 Ry

     iteration # 13     ecut=    40.00 Ry     beta=0.70
     Davidson diagonalization with overlap
     ethr =  1.52E-10,  avg # of iterations =  2.8

     total cpu time spent up to now is      182.6 secs

     total energy              =     -95.09313115 Ry
     Harris-Foulkes estimate   =     -95.09313115 Ry
     estimated scf accuracy    <       0.00000002 Ry

     iteration # 14     ecut=    40.00 Ry     beta=0.70
     Davidson diagonalization with overlap
     ethr =  1.52E-10,  avg # of iterations =  1.0

     total cpu time spent up to now is      184.7 secs

     total energy              =     -95.09313115 Ry
     Harris-Foulkes estimate   =     -95.09313115 Ry
     estimated scf accuracy    <          6.5E-09 Ry

     iteration # 15     ecut=    40.00 Ry     beta=0.70
     Davidson diagonalization with overlap
     ethr =  7.24E-11,  avg # of iterations =  1.0

     total cpu time spent up to now is      186.9 secs

     total energy              =     -95.09313115 Ry
     Harris-Foulkes estimate   =     -95.09313115 Ry
     estimated scf accuracy    <          6.7E-10 Ry

     iteration # 16     ecut=    40.00 Ry     beta=0.70
     Davidson diagonalization with overlap
     ethr =  7.49E-12,  avg # of iterations =  1.0

     total cpu time spent up to now is      189.1 secs

     End of self-consistent calculation

     Number of k-points >= 100: set verbosity='high' to print the bands.

     the Fermi energy is     3.5441 ev

!    total energy              =     -95.09313115 Ry
     Harris-Foulkes estimate   =     -95.09313115 Ry
     estimated scf accuracy    <          7.1E-11 Ry

     The total energy is the sum of the following terms:

     one-electron contribution =     -79.44704474 Ry
     hartree contribution      =      40.79098266 Ry
     xc contribution           =     -14.32379950 Ry
     ewald contribution        =     -42.11323450 Ry
     smearing contrib. (-TS)   =      -0.00003506 Ry

     convergence has been achieved in  16 iterations

     Forces acting on atoms (cartesian axes, Ry/au):

     atom    1 type  1   force =     0.00000000    0.00000000    0.00000000

     Total force =     0.000000     Total SCF correction =     0.000000


     Computing stress (Cartesian axis) and pressure

          total   stress  (Ry/bohr**3)                   (kbar)     P=   54.08
   0.00036765   0.00000000   0.00000000         54.08      0.00      0.00
   0.00000000   0.00036765  -0.00000000          0.00     54.08     -0.00
   0.00000000  -0.00000000   0.00036765          0.00     -0.00     54.08


     number of scf cycles    =   5
     number of bfgs steps    =   4

     enthalpy old            =     -95.0340393302 Ry
     enthalpy new            =     -95.0348590687 Ry

     CASE: enthalpy_new < enthalpy_old

     new trust radius        =       0.0139521549 bohr
     new conv_thr            =            1.0E-10 Ry

     new unit-cell volume =    174.19723 a.u.^3 (    25.81337 Ang^3 )
     density =      1.47892 g/cm^3

CELL_PARAMETERS (alat=  8.00000000)
  -0.554090148   0.000000000   0.554090148
  -0.000000000   0.554090148   0.554090148
  -0.554090148   0.554090148  -0.000000000

ATOMIC_POSITIONS (crystal)
Na       0.000000000   0.000000000   0.000000000



     Writing output data file na.fcc.save
     NEW-OLD atomic charge density approx. for the potential
     extrapolated charge    9.14223, renormalised to    9.00000

     total cpu time spent up to now is      191.0 secs

     per-process dynamical memory:    31.6 Mb

     Self-consistent Calculation

     iteration #  1     ecut=    40.00 Ry     beta=0.70
     Davidson diagonalization with overlap
     ethr =  1.00E-06,  avg # of iterations =  3.2

     total cpu time spent up to now is      194.9 secs

     total energy              =     -95.08046965 Ry
     Harris-Foulkes estimate   =     -94.09175206 Ry
     estimated scf accuracy    <       0.00761995 Ry

     iteration #  2     ecut=    40.00 Ry     beta=0.70
     Davidson diagonalization with overlap
     ethr =  8.47E-05,  avg # of iterations =  2.9

     total cpu time spent up to now is      198.4 secs

     total energy              =     -95.09443684 Ry
     Harris-Foulkes estimate   =     -95.10005803 Ry
     estimated scf accuracy    <       0.01281528 Ry

     iteration #  3     ecut=    40.00 Ry     beta=0.70
     Davidson diagonalization with overlap
     ethr =  8.47E-05,  avg # of iterations =  1.4

     total cpu time spent up to now is      200.7 secs

     total energy              =     -95.09442550 Ry
     Harris-Foulkes estimate   =     -95.09525650 Ry
     estimated scf accuracy    <       0.00255915 Ry

     iteration #  4     ecut=    40.00 Ry     beta=0.70
     Davidson diagonalization with overlap
     ethr =  2.84E-05,  avg # of iterations =  1.0

     total cpu time spent up to now is      202.9 secs

     total energy              =     -95.09426827 Ry
     Harris-Foulkes estimate   =     -95.09452689 Ry
     estimated scf accuracy    <       0.00090541 Ry

     iteration #  5     ecut=    40.00 Ry     beta=0.70
     Davidson diagonalization with overlap
     ethr =  1.01E-05,  avg # of iterations =  1.0

     total cpu time spent up to now is      205.1 secs

     total energy              =     -95.09416184 Ry
     Harris-Foulkes estimate   =     -95.09429279 Ry
     estimated scf accuracy    <       0.00039386 Ry

     iteration #  6     ecut=    40.00 Ry     beta=0.70
     Davidson diagonalization with overlap
     ethr =  4.38E-06,  avg # of iterations =  1.0

     total cpu time spent up to now is      207.3 secs

     total energy              =     -95.09408795 Ry
     Harris-Foulkes estimate   =     -95.09417455 Ry
     estimated scf accuracy    <       0.00014367 Ry

     iteration #  7     ecut=    40.00 Ry     beta=0.70
     Davidson diagonalization with overlap
     ethr =  1.60E-06,  avg # of iterations =  2.0

     total cpu time spent up to now is      210.0 secs

     total energy              =     -95.09410924 Ry
     Harris-Foulkes estimate   =     -95.09411005 Ry
     estimated scf accuracy    <       0.00000350 Ry

     iteration #  8     ecut=    40.00 Ry     beta=0.70
     Davidson diagonalization with overlap
     ethr =  3.89E-08,  avg # of iterations =  1.0

     total cpu time spent up to now is      212.2 secs

     total energy              =     -95.09410802 Ry
     Harris-Foulkes estimate   =     -95.09410932 Ry
     estimated scf accuracy    <       0.00000189 Ry

     iteration #  9     ecut=    40.00 Ry     beta=0.70
     Davidson diagonalization with overlap
     ethr =  2.10E-08,  avg # of iterations =  2.0

     total cpu time spent up to now is      214.9 secs

     total energy              =     -95.09410846 Ry
     Harris-Foulkes estimate   =     -95.09410847 Ry
     estimated scf accuracy    <          3.8E-09 Ry

     iteration # 10     ecut=    40.00 Ry     beta=0.70
     Davidson diagonalization with overlap
     ethr =  4.18E-11,  avg # of iterations =  2.4

     total cpu time spent up to now is      217.7 secs

     total energy              =     -95.09410846 Ry
     Harris-Foulkes estimate   =     -95.09410847 Ry
     estimated scf accuracy    <       0.00000001 Ry

     iteration # 11     ecut=    40.00 Ry     beta=0.70
     Davidson diagonalization with overlap
     ethr =  4.18E-11,  avg # of iterations =  2.0

     total cpu time spent up to now is      220.4 secs

     total energy              =     -95.09410846 Ry
     Harris-Foulkes estimate   =     -95.09410846 Ry
     estimated scf accuracy    <          1.3E-09 Ry

     iteration # 12     ecut=    40.00 Ry     beta=0.70
     Davidson diagonalization with overlap
     ethr =  1.45E-11,  avg # of iterations =  1.0

     total cpu time spent up to now is      222.6 secs

     total energy              =     -95.09410846 Ry
     Harris-Foulkes estimate   =     -95.09410846 Ry
     estimated scf accuracy    <          2.6E-10 Ry

     iteration # 13     ecut=    40.00 Ry     beta=0.70
     Davidson diagonalization with overlap
     ethr =  2.89E-12,  avg # of iterations =  2.0

     total cpu time spent up to now is      225.3 secs

     End of self-consistent calculation

     Number of k-points >= 100: set verbosity='high' to print the bands.

     the Fermi energy is     3.4449 ev

!    total energy              =     -95.09410846 Ry
     Harris-Foulkes estimate   =     -95.09410846 Ry
     estimated scf accuracy    <          1.1E-11 Ry

     The total energy is the sum of the following terms:

     one-electron contribution =     -79.83428259 Ry
     hartree contribution      =      40.95148821 Ry
     xc contribution           =     -14.32122820 Ry
     ewald contribution        =     -41.89005046 Ry
     smearing contrib. (-TS)   =      -0.00003541 Ry

     convergence has been achieved in  13 iterations

     Forces acting on atoms (cartesian axes, Ry/au):

     atom    1 type  1   force =     0.00000000    0.00000000    0.00000000

     Total force =     0.000000     Total SCF correction =     0.000000


     Computing stress (Cartesian axis) and pressure

          total   stress  (Ry/bohr**3)                   (kbar)     P=   50.33
   0.00034213   0.00000000  -0.00000000         50.33      0.00     -0.00
   0.00000000   0.00034213   0.00000000          0.00     50.33      0.00
  -0.00000000   0.00000000   0.00034213         -0.00      0.00     50.33


     bfgs converged in   6 scf cycles and   5 bfgs steps
     (criteria: energy <  1.0E-04 Ry, force <  1.0E-03Ry/Bohr, cell <  5.0E-01kbar)

     End of BFGS Geometry Optimization

     Final enthalpy =     -95.0349000199 Ry
Begin final coordinates
     new unit-cell volume =    174.19723 a.u.^3 (    25.81337 Ang^3 )
     density =      1.47892 g/cm^3

CELL_PARAMETERS (alat=  8.00000000)
  -0.554090148   0.000000000   0.554090148
  -0.000000000   0.554090148   0.554090148
  -0.554090148   0.554090148  -0.000000000

ATOMIC_POSITIONS (crystal)
Na       0.000000000   0.000000000   0.000000000
End final coordinates



     A final scf calculation at the relaxed structure.
     The G-vectors are recalculated for the final unit cell
     Results may differ from those at the preceding step.

     Parallelization info
     --------------------
     sticks:   dense  smooth     PW     G-vecs:    dense   smooth      PW
     Min         214     108     37                 4215     1489     309
     Max         215     109     38                 4218     1491     312
     Sum         859     433    151                16865     5961    1243



     bravais-lattice index     =            2
     lattice parameter (alat)  =       8.0000  a.u.
     unit-cell volume          =     174.1972 (a.u.)^3
     number of atoms/cell      =            1
     number of atomic types    =            1
     number of electrons       =         9.00
     number of Kohn-Sham states=            9
     kinetic-energy cutoff     =      40.0000  Ry
     charge density cutoff     =     320.0000  Ry
     convergence threshold     =      1.0E-10
     mixing beta               =       0.7000
     number of iterations used =            8  plain     mixing
     Exchange-correlation      = SLA  PW   PBE  PBE ( 1  4  3  4 0 0)

     celldm(1)=   8.000000  celldm(2)=   0.000000  celldm(3)=   0.000000
     celldm(4)=   0.000000  celldm(5)=   0.000000  celldm(6)=   0.000000

     crystal axes: (cart. coord. in units of alat)
               a(1) = (  -0.554090   0.000000   0.554090 )  
               a(2) = (  -0.000000   0.554090   0.554090 )  
               a(3) = (  -0.554090   0.554090  -0.000000 )  

     reciprocal axes: (cart. coord. in units 2 pi/alat)
               b(1) = ( -0.902380 -0.902380  0.902380 )  
               b(2) = (  0.902380  0.902380  0.902380 )  
               b(3) = ( -0.902380  0.902380 -0.902380 )  


     PseudoPot. # 1 for Na read from file:
     /home/s1333534/quantum_espresso/qe-6.1/pseudo/Na_pbe_v1.uspp.F.UPF
     MD5 check sum: 76a99c7e9422403d3e93cbc85ab7bccb
     Pseudo is Ultrasoft, Zval =  9.0
     Generated by new atomic code, or converted to UPF format
     Using radial grid of  819 points,  5 beta functions with: 
                l(1) =   0
                l(2) =   0
                l(3) =   1
                l(4) =   1
                l(5) =   2
     Q(r) pseudized with  8 coefficients,  rinner =    1.250   1.250   1.250
                                                       1.250   1.250

     atomic species   valence    mass     pseudopotential
        Na             9.00    22.99000     Na( 1.00)

     48 Sym. Ops., with inversion, found



   Cartesian axes

     site n.     atom                  positions (alat units)
         1           Na  tau(   1) = (  -0.0000000   0.0000000   0.0000000  )

     number of k points=   770  Marzari-Vanderbilt smearing, width (Ry)=  0.0200

     Number of k-points >= 100: set verbosity='high' to print them.

     Dense  grid:    16865 G-vectors     FFT dimensions: (  36,  36,  36)

     Smooth grid:     5961 G-vectors     FFT dimensions: (  25,  25,  25)

     Estimated max dynamical RAM per process >      22.45MB

     Estimated total allocated dynamical RAM >      89.78MB

     Initial potential from superposition of free atoms

     starting charge    8.99371, renormalised to    9.00000
     Starting wfc are    5 randomized atomic wfcs +    4 random wfc

     Writing output data file na.fcc.save

     total cpu time spent up to now is      228.4 secs

     per-process dynamical memory:    38.7 Mb

     Self-consistent Calculation

     iteration #  1     ecut=    40.00 Ry     beta=0.70
     Davidson diagonalization with overlap
     c_bands:  1 eigenvalues not converged
     c_bands:  1 eigenvalues not converged
     ethr =  1.00E-06,  avg # of iterations = 10.5

     total cpu time spent up to now is      237.3 secs

     total energy              =     -95.09583678 Ry
     Harris-Foulkes estimate   =     -95.09627941 Ry
     estimated scf accuracy    <       0.00126961 Ry

     iteration #  2     ecut=    40.00 Ry     beta=0.70
     Davidson diagonalization with overlap
     ethr =  1.41E-05,  avg # of iterations =  2.0

     total cpu time spent up to now is      240.3 secs

     total energy              =     -95.09600458 Ry
     Harris-Foulkes estimate   =     -95.09604292 Ry
     estimated scf accuracy    <       0.00014591 Ry

     iteration #  3     ecut=    40.00 Ry     beta=0.70
     Davidson diagonalization with overlap
     ethr =  1.62E-06,  avg # of iterations =  2.0

     total cpu time spent up to now is      243.4 secs

     total energy              =     -95.09602200 Ry
     Harris-Foulkes estimate   =     -95.09602334 Ry
     estimated scf accuracy    <       0.00000863 Ry

     iteration #  4     ecut=    40.00 Ry     beta=0.70
     Davidson diagonalization with overlap
     ethr =  9.59E-08,  avg # of iterations =  1.0

     total cpu time spent up to now is      246.0 secs

     total energy              =     -95.09602277 Ry
     Harris-Foulkes estimate   =     -95.09602270 Ry
     estimated scf accuracy    <       0.00000001 Ry

     iteration #  5     ecut=    40.00 Ry     beta=0.70
     Davidson diagonalization with overlap
     ethr =  1.15E-10,  avg # of iterations =  3.0

     total cpu time spent up to now is      249.6 secs

     total energy              =     -95.09602280 Ry
     Harris-Foulkes estimate   =     -95.09602280 Ry
     estimated scf accuracy    <          1.4E-09 Ry

     iteration #  6     ecut=    40.00 Ry     beta=0.70
     Davidson diagonalization with overlap
     ethr =  1.57E-11,  avg # of iterations =  1.6

     total cpu time spent up to now is      252.4 secs

     End of self-consistent calculation

     Number of k-points >= 100: set verbosity='high' to print the bands.

     the Fermi energy is     3.4464 ev

!    total energy              =     -95.09602280 Ry
     Harris-Foulkes estimate   =     -95.09602280 Ry
     estimated scf accuracy    <          4.6E-11 Ry

     The total energy is the sum of the following terms:

     one-electron contribution =     -79.83445743 Ry
     hartree contribution      =      40.94947070 Ry
     xc contribution           =     -14.32095019 Ry
     ewald contribution        =     -41.89005046 Ry
     smearing contrib. (-TS)   =      -0.00003543 Ry

     convergence has been achieved in   6 iterations

     Forces acting on atoms (cartesian axes, Ry/au):

     atom    1 type  1   force =     0.00000000    0.00000000    0.00000000

     Total force =     0.000000     Total SCF correction =     0.000000


     Computing stress (Cartesian axis) and pressure

          total   stress  (Ry/bohr**3)                   (kbar)     P=   50.77
   0.00034515   0.00000000   0.00000000         50.77      0.00      0.00
   0.00000000   0.00034515  -0.00000000          0.00     50.77     -0.00
   0.00000000  -0.00000000   0.00034515          0.00     -0.00     50.77


     Writing output data file na.fcc.save

     init_run     :      2.41s CPU      2.54s WALL (       2 calls)
     electrons    :    228.85s CPU    238.83s WALL (       7 calls)
     update_pot   :      0.59s CPU      0.60s WALL (       5 calls)
     forces       :      1.17s CPU      1.19s WALL (       7 calls)
     stress       :      6.09s CPU      6.12s WALL (       7 calls)

     Called by init_run:
     wfcinit      :      1.80s CPU      1.92s WALL (       2 calls)
     potinit      :      0.06s CPU      0.06s WALL (       2 calls)

     Called by electrons:
     c_bands      :    190.78s CPU    199.33s WALL (      86 calls)
     sum_band     :     36.64s CPU     38.04s WALL (      86 calls)
     v_of_rho     :      0.71s CPU      0.72s WALL (      92 calls)
     newd         :      0.71s CPU      0.73s WALL (      92 calls)
     mix_rho      :      0.06s CPU      0.06s WALL (      86 calls)

     Called by c_bands:
     init_us_2    :      9.61s CPU      8.96s WALL (  144760 calls)
     cegterg      :    181.35s CPU    190.06s WALL (   66220 calls)

     Called by sum_band:
     sum_band:bec :      0.16s CPU      0.19s WALL (   66220 calls)
     addusdens    :      0.84s CPU      0.85s WALL (      86 calls)

     Called by *egterg:
     h_psi        :    141.72s CPU    148.23s WALL (  199716 calls)
     s_psi        :      2.20s CPU      1.88s WALL (  199716 calls)
     g_psi        :      1.10s CPU      1.07s WALL (  131956 calls)
     cdiaghg      :     24.86s CPU     25.68s WALL (  193556 calls)

     Called by h_psi:
     h_psi:pot    :    141.22s CPU    147.43s WALL (  199716 calls)
     h_psi:calbec :      3.49s CPU      3.27s WALL (  199716 calls)
     vloc_psi     :    135.49s CPU    141.53s WALL (  199716 calls)
     add_vuspsi   :      1.94s CPU      2.15s WALL (  199716 calls)

     General routines
     calbec       :      4.55s CPU      4.62s WALL (  292886 calls)
     fft          :      0.32s CPU      0.33s WALL (    1509 calls)
     ffts         :      0.02s CPU      0.02s WALL (     178 calls)
     fftw         :    151.91s CPU    146.90s WALL ( 3539712 calls)
     interpolate  :      0.06s CPU      0.06s WALL (     178 calls)
     davcio       :      0.01s CPU      0.02s WALL (    1540 calls)

     Parallel routines
     fft_scatter  :     22.41s CPU     28.21s WALL ( 3541399 calls)

     PWSCF        :  4m 3.92s CPU     4m14.34s WALL


   This run was terminated on:  11:18:15  20Dec2017            

=------------------------------------------------------------------------------=
   JOB DONE.
=------------------------------------------------------------------------------=
