
     Program PWSCF v.6.1 (svn rev. 13369) starts on 20Dec2017 at 10:42:10 

     This program is part of the open-source Quantum ESPRESSO suite
     for quantum simulation of materials; please cite
         "P. Giannozzi et al., J. Phys.:Condens. Matter 21 395502 (2009);
          URL http://www.quantum-espresso.org", 
     in publications or presentations arising from this work. More details at
     http://www.quantum-espresso.org/quote

     Parallel version (MPI), running on     4 processors
     R & G space division:  proc/nbgrp/npool/nimage =       4
     Waiting for input...
     Reading input from standard input

     Current dimensions of program PWSCF are:
     Max number of different atomic species (ntypx) = 10
     Max number of k-points (npk) =  40000
     Max angular momentum in pseudopotentials (lmaxx) =  3

     Subspace diagonalization in iterative solution of the eigenvalue problem:
     a serial algorithm will be used


     Parallelization info
     --------------------
     sticks:   dense  smooth     PW     G-vecs:    dense   smooth      PW
     Min         175      90     30                 3084     1095     234
     Max         176      91     31                 3086     1096     238
     Sum         703     361    121                12339     4381     941



     bravais-lattice index     =            2
     lattice parameter (alat)  =       8.0000  a.u.
     unit-cell volume          =     128.0000 (a.u.)^3
     number of atoms/cell      =            1
     number of atomic types    =            1
     number of electrons       =         9.00
     number of Kohn-Sham states=            9
     kinetic-energy cutoff     =      40.0000  Ry
     charge density cutoff     =     320.0000  Ry
     convergence threshold     =      1.0E-08
     mixing beta               =       0.7000
     number of iterations used =            8  plain     mixing
     Exchange-correlation      = SLA  PW   PBE  PBE ( 1  4  3  4 0 0)
     nstep                     =           50


     celldm(1)=   8.000000  celldm(2)=   0.000000  celldm(3)=   0.000000
     celldm(4)=   0.000000  celldm(5)=   0.000000  celldm(6)=   0.000000

     crystal axes: (cart. coord. in units of alat)
               a(1) = (  -0.500000   0.000000   0.500000 )  
               a(2) = (   0.000000   0.500000   0.500000 )  
               a(3) = (  -0.500000   0.500000   0.000000 )  

     reciprocal axes: (cart. coord. in units 2 pi/alat)
               b(1) = ( -1.000000 -1.000000  1.000000 )  
               b(2) = (  1.000000  1.000000  1.000000 )  
               b(3) = ( -1.000000  1.000000 -1.000000 )  


     PseudoPot. # 1 for Na read from file:
     /home/s1333534/quantum_espresso/qe-6.1/pseudo/Na_pbe_v1.uspp.F.UPF
     MD5 check sum: 76a99c7e9422403d3e93cbc85ab7bccb
     Pseudo is Ultrasoft, Zval =  9.0
     Generated by new atomic code, or converted to UPF format
     Using radial grid of  819 points,  5 beta functions with: 
                l(1) =   0
                l(2) =   0
                l(3) =   1
                l(4) =   1
                l(5) =   2
     Q(r) pseudized with  8 coefficients,  rinner =    1.250   1.250   1.250
                                                       1.250   1.250

     atomic species   valence    mass     pseudopotential
        Na             9.00    22.99000     Na( 1.00)

     48 Sym. Ops., with inversion, found



   Cartesian axes

     site n.     atom                  positions (alat units)
         1           Na  tau(   1) = (   0.0000000   0.0000000   0.0000000  )

     number of k points=   770  Marzari-Vanderbilt smearing, width (Ry)=  0.0200

     Number of k-points >= 100: set verbosity='high' to print them.

     Dense  grid:    12339 G-vectors     FFT dimensions: (  36,  36,  36)

     Smooth grid:     4381 G-vectors     FFT dimensions: (  24,  24,  24)

     Estimated max dynamical RAM per process >      16.64MB

     Estimated total allocated dynamical RAM >      66.55MB

     Initial potential from superposition of free atoms

     starting charge    8.99371, renormalised to    9.00000
     Starting wfc are    5 randomized atomic wfcs +    4 random wfc

     total cpu time spent up to now is        1.4 secs

     per-process dynamical memory:    24.8 Mb

     Self-consistent Calculation

     iteration #  1     ecut=    40.00 Ry     beta=0.70
     Davidson diagonalization with overlap
     ethr =  1.00E-02,  avg # of iterations =  5.1

     Threshold (ethr) on eigenvalues was too large:
     Diagonalizing with lowered threshold

     Davidson diagonalization with overlap
     ethr =  2.47E-05,  avg # of iterations =  2.4

     total cpu time spent up to now is        8.4 secs

     total energy              =     -95.06263719 Ry
     Harris-Foulkes estimate   =     -95.06346383 Ry
     estimated scf accuracy    <       0.00221907 Ry

     iteration #  2     ecut=    40.00 Ry     beta=0.70
     Davidson diagonalization with overlap
     ethr =  2.47E-05,  avg # of iterations =  2.0

     total cpu time spent up to now is       11.0 secs

     total energy              =     -95.06293327 Ry
     Harris-Foulkes estimate   =     -95.06299962 Ry
     estimated scf accuracy    <       0.00025023 Ry

     iteration #  3     ecut=    40.00 Ry     beta=0.70
     Davidson diagonalization with overlap
     ethr =  2.78E-06,  avg # of iterations =  2.1

     total cpu time spent up to now is       13.6 secs

     total energy              =     -95.06296602 Ry
     Harris-Foulkes estimate   =     -95.06296754 Ry
     estimated scf accuracy    <       0.00001446 Ry

     iteration #  4     ecut=    40.00 Ry     beta=0.70
     Davidson diagonalization with overlap
     ethr =  1.61E-07,  avg # of iterations =  1.0

     total cpu time spent up to now is       15.9 secs

     total energy              =     -95.06296732 Ry
     Harris-Foulkes estimate   =     -95.06296725 Ry
     estimated scf accuracy    <       0.00000002 Ry

     iteration #  5     ecut=    40.00 Ry     beta=0.70
     Davidson diagonalization with overlap
     ethr =  2.20E-10,  avg # of iterations =  3.0

     total cpu time spent up to now is       19.1 secs

     End of self-consistent calculation

     Number of k-points >= 100: set verbosity='high' to print the bands.

     the Fermi energy is     5.7098 ev

!    total energy              =     -95.06296737 Ry
     Harris-Foulkes estimate   =     -95.06296737 Ry
     estimated scf accuracy    <          2.7E-09 Ry

     The total energy is the sum of the following terms:

     one-electron contribution =     -72.01868817 Ry
     hartree contribution      =      37.75480527 Ry
     xc contribution           =     -14.37732448 Ry
     ewald contribution        =     -46.42172850 Ry
     smearing contrib. (-TS)   =      -0.00003149 Ry

     convergence has been achieved in   5 iterations

     Forces acting on atoms (cartesian axes, Ry/au):

     atom    1 type  1   force =     0.00000000    0.00000000    0.00000000

     Total force =     0.000000     Total SCF correction =     0.000000


     Computing stress (Cartesian axis) and pressure

          total   stress  (Ry/bohr**3)                   (kbar)     P=  175.59
   0.00119366   0.00000000   0.00000000        175.59      0.00      0.00
   0.00000000   0.00119366  -0.00000000          0.00    175.59     -0.00
   0.00000000  -0.00000000   0.00119366          0.00     -0.00    175.59


     BFGS Geometry Optimization

     number of scf cycles    =   1
     number of bfgs steps    =   0

     enthalpy new            =     -95.0716686348 Ry

     new trust radius        =       0.0713692820 bohr
     new conv_thr            =       0.0000000100 Ry

     new unit-cell volume =    140.49780 a.u.^3 (    20.81963 Ang^3 )
     density =      1.83364 g/cm^3

CELL_PARAMETERS (alat=  8.00000000)
  -0.515770532  -0.000000000   0.515770532
   0.000000000   0.515770532   0.515770532
  -0.515770532   0.515770532  -0.000000000

ATOMIC_POSITIONS (crystal)
Na       0.000000000   0.000000000   0.000000000



     Writing output data file na.fcc.save
     NEW-OLD atomic charge density approx. for the potential
     extrapolated charge    9.80002, renormalised to    9.00000

     total cpu time spent up to now is       21.0 secs

     per-process dynamical memory:    31.2 Mb

     Self-consistent Calculation

     iteration #  1     ecut=    40.00 Ry     beta=0.70
     Davidson diagonalization with overlap
     ethr =  1.00E-06,  avg # of iterations =  4.6

     total cpu time spent up to now is       25.7 secs

     total energy              =     -94.51031874 Ry
     Harris-Foulkes estimate   =     -89.82602380 Ry
     estimated scf accuracy    <       0.31830381 Ry

     iteration #  2     ecut=    40.00 Ry     beta=0.70
     Davidson diagonalization with overlap
     ethr =  3.54E-03,  avg # of iterations =  2.9

     total cpu time spent up to now is       29.1 secs

     total energy              =     -95.10301193 Ry
     Harris-Foulkes estimate   =     -95.33361369 Ry
     estimated scf accuracy    <       0.52154585 Ry

     iteration #  3     ecut=    40.00 Ry     beta=0.70
     Davidson diagonalization with overlap
     ethr =  3.54E-03,  avg # of iterations =  1.0

     total cpu time spent up to now is       31.4 secs

     total energy              =     -95.08804390 Ry
     Harris-Foulkes estimate   =     -95.13145525 Ry
     estimated scf accuracy    <       0.11979960 Ry

     iteration #  4     ecut=    40.00 Ry     beta=0.70
     Davidson diagonalization with overlap
     ethr =  1.33E-03,  avg # of iterations =  1.0

     total cpu time spent up to now is       33.6 secs

     total energy              =     -95.08707864 Ry
     Harris-Foulkes estimate   =     -95.09344511 Ry
     estimated scf accuracy    <       0.03765185 Ry

     iteration #  5     ecut=    40.00 Ry     beta=0.70
     Davidson diagonalization with overlap
     ethr =  4.18E-04,  avg # of iterations =  1.0

     total cpu time spent up to now is       35.8 secs

     total energy              =     -95.08104526 Ry
     Harris-Foulkes estimate   =     -95.08755747 Ry
     estimated scf accuracy    <       0.02530535 Ry

     iteration #  6     ecut=    40.00 Ry     beta=0.70
     Davidson diagonalization with overlap
     ethr =  2.81E-04,  avg # of iterations =  1.0

     total cpu time spent up to now is       38.0 secs

     total energy              =     -95.07336373 Ry
     Harris-Foulkes estimate   =     -95.08150033 Ry
     estimated scf accuracy    <       0.01270079 Ry

     iteration #  7     ecut=    40.00 Ry     beta=0.70
     Davidson diagonalization with overlap
     ethr =  1.41E-04,  avg # of iterations =  2.0

     total cpu time spent up to now is       40.7 secs

     total energy              =     -95.07557618 Ry
     Harris-Foulkes estimate   =     -95.07560332 Ry
     estimated scf accuracy    <       0.00014190 Ry

     iteration #  8     ecut=    40.00 Ry     beta=0.70
     Davidson diagonalization with overlap
     ethr =  1.58E-06,  avg # of iterations =  2.4

     total cpu time spent up to now is       43.5 secs

     total energy              =     -95.07551630 Ry
     Harris-Foulkes estimate   =     -95.07558105 Ry
     estimated scf accuracy    <       0.00008181 Ry

     iteration #  9     ecut=    40.00 Ry     beta=0.70
     Davidson diagonalization with overlap
     ethr =  9.09E-07,  avg # of iterations =  2.0

     total cpu time spent up to now is       46.3 secs

     total energy              =     -95.07556199 Ry
     Harris-Foulkes estimate   =     -95.07556062 Ry
     estimated scf accuracy    <       0.00004515 Ry

     iteration # 10     ecut=    40.00 Ry     beta=0.70
     Davidson diagonalization with overlap
     ethr =  5.02E-07,  avg # of iterations =  1.0

     total cpu time spent up to now is       48.5 secs

     total energy              =     -95.07553533 Ry
     Harris-Foulkes estimate   =     -95.07556204 Ry
     estimated scf accuracy    <       0.00004597 Ry

     iteration # 11     ecut=    40.00 Ry     beta=0.70
     Davidson diagonalization with overlap
     ethr =  5.02E-07,  avg # of iterations =  2.0

     total cpu time spent up to now is       51.2 secs

     total energy              =     -95.07554379 Ry
     Harris-Foulkes estimate   =     -95.07554374 Ry
     estimated scf accuracy    <       0.00000002 Ry

     iteration # 12     ecut=    40.00 Ry     beta=0.70
     Davidson diagonalization with overlap
     ethr =  1.86E-10,  avg # of iterations =  2.4

     total cpu time spent up to now is       54.1 secs

     total energy              =     -95.07554369 Ry
     Harris-Foulkes estimate   =     -95.07554382 Ry
     estimated scf accuracy    <       0.00000025 Ry

     iteration # 13     ecut=    40.00 Ry     beta=0.70
     Davidson diagonalization with overlap
     ethr =  1.86E-10,  avg # of iterations =  3.0

     total cpu time spent up to now is       57.3 secs

     End of self-consistent calculation

     Number of k-points >= 100: set verbosity='high' to print the bands.

     the Fermi energy is     4.9421 ev

!    total energy              =     -95.07554374 Ry
     Harris-Foulkes estimate   =     -95.07554374 Ry
     estimated scf accuracy    <          7.2E-09 Ry

     The total energy is the sum of the following terms:

     one-electron contribution =     -74.45583219 Ry
     hartree contribution      =      38.74141092 Ry
     xc contribution           =     -14.35878272 Ry
     ewald contribution        =     -45.00230779 Ry
     smearing contrib. (-TS)   =      -0.00003195 Ry

     convergence has been achieved in  13 iterations

     Forces acting on atoms (cartesian axes, Ry/au):

     atom    1 type  1   force =     0.00000000    0.00000000    0.00000000

     Total force =     0.000000     Total SCF correction =     0.000000


     Computing stress (Cartesian axis) and pressure

          total   stress  (Ry/bohr**3)                   (kbar)     P=  122.77
   0.00083454   0.00000000   0.00000000        122.77      0.00      0.00
   0.00000000   0.00083454  -0.00000000          0.00    122.77     -0.00
  -0.00000000  -0.00000000   0.00083454         -0.00     -0.00    122.77


     number of scf cycles    =   2
     number of bfgs steps    =   1

     enthalpy old            =     -95.0716686348 Ry
     enthalpy new            =     -95.0850945875 Ry

     CASE: enthalpy_new < enthalpy_old

     new trust radius        =       0.0797346833 bohr
     new conv_thr            =            1.0E-10 Ry

     new unit-cell volume =    155.15661 a.u.^3 (    22.99184 Ang^3 )
     density =      1.66041 g/cm^3

CELL_PARAMETERS (alat=  8.00000000)
  -0.533118118  -0.000000000   0.533118118
   0.000000000   0.533118118   0.533118118
  -0.533118118   0.533118118  -0.000000000

ATOMIC_POSITIONS (crystal)
Na       0.000000000   0.000000000   0.000000000



     Writing output data file na.fcc.save
     NEW-OLD atomic charge density approx. for the potential
     extrapolated charge    9.84970, renormalised to    9.00000

     total cpu time spent up to now is       59.1 secs

     per-process dynamical memory:    31.2 Mb

     Self-consistent Calculation

     iteration #  1     ecut=    40.00 Ry     beta=0.70
     Davidson diagonalization with overlap
     ethr =  1.00E-06,  avg # of iterations =  4.7

     total cpu time spent up to now is       63.9 secs

     total energy              =     -94.41512922 Ry
     Harris-Foulkes estimate   =     -89.31105261 Ry
     estimated scf accuracy    <       0.37825188 Ry

     iteration #  2     ecut=    40.00 Ry     beta=0.70
     Davidson diagonalization with overlap
     ethr =  4.20E-03,  avg # of iterations =  3.0

     total cpu time spent up to now is       67.3 secs

     total energy              =     -95.11974153 Ry
     Harris-Foulkes estimate   =     -95.39267879 Ry
     estimated scf accuracy    <       0.61606821 Ry

     iteration #  3     ecut=    40.00 Ry     beta=0.70
     Davidson diagonalization with overlap
     ethr =  4.20E-03,  avg # of iterations =  1.0

     total cpu time spent up to now is       69.5 secs

     total energy              =     -95.10036007 Ry
     Harris-Foulkes estimate   =     -95.15286728 Ry
     estimated scf accuracy    <       0.14303068 Ry

     iteration #  4     ecut=    40.00 Ry     beta=0.70
     Davidson diagonalization with overlap
     ethr =  1.59E-03,  avg # of iterations =  1.0

     total cpu time spent up to now is       71.7 secs

     total energy              =     -95.09837984 Ry
     Harris-Foulkes estimate   =     -95.10687130 Ry
     estimated scf accuracy    <       0.04442450 Ry

     iteration #  5     ecut=    40.00 Ry     beta=0.70
     Davidson diagonalization with overlap
     ethr =  4.94E-04,  avg # of iterations =  1.0

     total cpu time spent up to now is       73.9 secs

     total energy              =     -95.09000180 Ry
     Harris-Foulkes estimate   =     -95.09902619 Ry
     estimated scf accuracy    <       0.02781800 Ry

     iteration #  6     ecut=    40.00 Ry     beta=0.70
     Davidson diagonalization with overlap
     ethr =  3.09E-04,  avg # of iterations =  1.0

     total cpu time spent up to now is       76.1 secs

     total energy              =     -95.08341468 Ry
     Harris-Foulkes estimate   =     -95.09079721 Ry
     estimated scf accuracy    <       0.01094571 Ry

     iteration #  7     ecut=    40.00 Ry     beta=0.70
     Davidson diagonalization with overlap
     ethr =  1.22E-04,  avg # of iterations =  2.0

     total cpu time spent up to now is       78.8 secs

     total energy              =     -95.08568205 Ry
     Harris-Foulkes estimate   =     -95.08568276 Ry
     estimated scf accuracy    <       0.00001941 Ry

     iteration #  8     ecut=    40.00 Ry     beta=0.70
     Davidson diagonalization with overlap
     ethr =  2.16E-07,  avg # of iterations =  2.8

     total cpu time spent up to now is       82.0 secs

     total energy              =     -95.08567819 Ry
     Harris-Foulkes estimate   =     -95.08569272 Ry
     estimated scf accuracy    <       0.00004923 Ry

     iteration #  9     ecut=    40.00 Ry     beta=0.70
     Davidson diagonalization with overlap
     ethr =  2.16E-07,  avg # of iterations =  1.0

     total cpu time spent up to now is       84.2 secs

     total energy              =     -95.08568110 Ry
     Harris-Foulkes estimate   =     -95.08567996 Ry
     estimated scf accuracy    <       0.00000284 Ry

     iteration # 10     ecut=    40.00 Ry     beta=0.70
     Davidson diagonalization with overlap
     ethr =  3.15E-08,  avg # of iterations =  1.3

     total cpu time spent up to now is       86.6 secs

     total energy              =     -95.08567754 Ry
     Harris-Foulkes estimate   =     -95.08568124 Ry
     estimated scf accuracy    <       0.00000453 Ry

     iteration # 11     ecut=    40.00 Ry     beta=0.70
     Davidson diagonalization with overlap
     ethr =  3.15E-08,  avg # of iterations =  2.0

     total cpu time spent up to now is       89.3 secs

     total energy              =     -95.08567919 Ry
     Harris-Foulkes estimate   =     -95.08567945 Ry
     estimated scf accuracy    <       0.00000086 Ry

     iteration # 12     ecut=    40.00 Ry     beta=0.70
     Davidson diagonalization with overlap
     ethr =  9.58E-09,  avg # of iterations =  1.0

     total cpu time spent up to now is       91.6 secs

     total energy              =     -95.08567903 Ry
     Harris-Foulkes estimate   =     -95.08567922 Ry
     estimated scf accuracy    <       0.00000035 Ry

     iteration # 13     ecut=    40.00 Ry     beta=0.70
     Davidson diagonalization with overlap
     ethr =  3.90E-09,  avg # of iterations =  2.0

     total cpu time spent up to now is       94.1 secs

     total energy              =     -95.08567908 Ry
     Harris-Foulkes estimate   =     -95.08567908 Ry
     estimated scf accuracy    <       0.00000002 Ry

     iteration # 14     ecut=    40.00 Ry     beta=0.70
     Davidson diagonalization with overlap
     ethr =  1.69E-10,  avg # of iterations =  1.1

     total cpu time spent up to now is       96.3 secs

     total energy              =     -95.08567907 Ry
     Harris-Foulkes estimate   =     -95.08567908 Ry
     estimated scf accuracy    <       0.00000002 Ry

     iteration # 15     ecut=    40.00 Ry     beta=0.70
     Davidson diagonalization with overlap
     ethr =  1.69E-10,  avg # of iterations =  2.0

     total cpu time spent up to now is       99.1 secs

     End of self-consistent calculation

     Number of k-points >= 100: set verbosity='high' to print the bands.

     the Fermi energy is     4.2068 ev

!    total energy              =     -95.08567907 Ry
     Harris-Foulkes estimate   =     -95.08567907 Ry
     estimated scf accuracy    <          9.6E-11 Ry

     The total energy is the sum of the following terms:

     one-electron contribution =     -76.98062754 Ry
     hartree contribution      =      39.77354220 Ry
     xc contribution           =     -14.34062129 Ry
     ewald contribution        =     -43.53793927 Ry
     smearing contrib. (-TS)   =      -0.00003317 Ry

     convergence has been achieved in  15 iterations

     Forces acting on atoms (cartesian axes, Ry/au):

     atom    1 type  1   force =     0.00000000    0.00000000    0.00000000

     Total force =     0.000000     Total SCF correction =     0.000000


     Computing stress (Cartesian axis) and pressure

          total   stress  (Ry/bohr**3)                   (kbar)     P=   82.72
   0.00056231  -0.00000000  -0.00000000         82.72     -0.00     -0.00
   0.00000000   0.00056231  -0.00000000          0.00     82.72     -0.00
  -0.00000000  -0.00000000   0.00056231         -0.00     -0.00     82.72


     number of scf cycles    =   3
     number of bfgs steps    =   2

     enthalpy old            =     -95.0850945875 Ry
     enthalpy new            =     -95.0962264070 Ry

     CASE: enthalpy_new < enthalpy_old

     new trust radius        =       0.1215967565 bohr
     new conv_thr            =            1.0E-10 Ry

     new unit-cell volume =    179.00307 a.u.^3 (    26.52552 Ang^3 )
     density =      1.43921 g/cm^3

CELL_PARAMETERS (alat=  8.00000000)
  -0.559139497  -0.000000000   0.559139497
   0.000000000   0.559139497   0.559139497
  -0.559139497   0.559139497  -0.000000000

ATOMIC_POSITIONS (crystal)
Na       0.000000000   0.000000000   0.000000000



     Writing output data file na.fcc.save
     NEW-OLD atomic charge density approx. for the potential
     extrapolated charge   10.19813, renormalised to    9.00000

     total cpu time spent up to now is      100.9 secs

     per-process dynamical memory:    31.2 Mb

     Self-consistent Calculation

     iteration #  1     ecut=    40.00 Ry     beta=0.70
     Davidson diagonalization with overlap
     ethr =  1.00E-06,  avg # of iterations =  5.1

     total cpu time spent up to now is      105.9 secs

     total energy              =     -93.35054428 Ry
     Harris-Foulkes estimate   =     -86.59607626 Ry
     estimated scf accuracy    <       1.00854682 Ry

     iteration #  2     ecut=    40.00 Ry     beta=0.70
     Davidson diagonalization with overlap
     ethr =  1.00E-02,  avg # of iterations =  3.0

     total cpu time spent up to now is      109.2 secs

     total energy              =     -95.20965052 Ry
     Harris-Foulkes estimate   =     -95.91085706 Ry
     estimated scf accuracy    <       1.55603477 Ry

     iteration #  3     ecut=    40.00 Ry     beta=0.70
     Davidson diagonalization with overlap
     ethr =  1.00E-02,  avg # of iterations =  1.0

     total cpu time spent up to now is      111.4 secs

     total energy              =     -95.13248829 Ry
     Harris-Foulkes estimate   =     -95.28561992 Ry
     estimated scf accuracy    <       0.38590140 Ry

     iteration #  4     ecut=    40.00 Ry     beta=0.70
     Davidson diagonalization with overlap
     ethr =  4.29E-03,  avg # of iterations =  1.0

     total cpu time spent up to now is      113.6 secs

     total energy              =     -95.12525828 Ry
     Harris-Foulkes estimate   =     -95.15055623 Ry
     estimated scf accuracy    <       0.11236757 Ry

     iteration #  5     ecut=    40.00 Ry     beta=0.70
     Davidson diagonalization with overlap
     ethr =  1.25E-03,  avg # of iterations =  1.0

     total cpu time spent up to now is      115.9 secs

     total energy              =     -95.10059462 Ry
     Harris-Foulkes estimate   =     -95.12717821 Ry
     estimated scf accuracy    <       0.06370348 Ry

     iteration #  6     ecut=    40.00 Ry     beta=0.70
     Davidson diagonalization with overlap
     ethr =  7.08E-04,  avg # of iterations =  1.0

     total cpu time spent up to now is      118.1 secs

     total energy              =     -95.09162063 Ry
     Harris-Foulkes estimate   =     -95.10362984 Ry
     estimated scf accuracy    <       0.01690485 Ry

     iteration #  7     ecut=    40.00 Ry     beta=0.70
     Davidson diagonalization with overlap
     ethr =  1.88E-04,  avg # of iterations =  2.1

     total cpu time spent up to now is      120.8 secs

     total energy              =     -95.09564897 Ry
     Harris-Foulkes estimate   =     -95.09566859 Ry
     estimated scf accuracy    <       0.00003306 Ry

     iteration #  8     ecut=    40.00 Ry     beta=0.70
     Davidson diagonalization with overlap
     ethr =  3.67E-07,  avg # of iterations =  3.5

     total cpu time spent up to now is      124.3 secs

     total energy              =     -95.09566992 Ry
     Harris-Foulkes estimate   =     -95.09565685 Ry
     estimated scf accuracy    <       0.00000228 Ry

     iteration #  9     ecut=    40.00 Ry     beta=0.70
     Davidson diagonalization with overlap
     ethr =  2.53E-08,  avg # of iterations =  3.0

     total cpu time spent up to now is      127.5 secs

     total energy              =     -95.09565783 Ry
     Harris-Foulkes estimate   =     -95.09568177 Ry
     estimated scf accuracy    <       0.00005244 Ry

     iteration # 10     ecut=    40.00 Ry     beta=0.70
     Davidson diagonalization with overlap
     ethr =  2.53E-08,  avg # of iterations =  2.3

     total cpu time spent up to now is      130.4 secs

     total energy              =     -95.09565548 Ry
     Harris-Foulkes estimate   =     -95.09566131 Ry
     estimated scf accuracy    <       0.00000957 Ry

     iteration # 11     ecut=    40.00 Ry     beta=0.70
     Davidson diagonalization with overlap
     ethr =  2.53E-08,  avg # of iterations =  2.0

     total cpu time spent up to now is      133.2 secs

     total energy              =     -95.09565680 Ry
     Harris-Foulkes estimate   =     -95.09565693 Ry
     estimated scf accuracy    <       0.00000025 Ry

     iteration # 12     ecut=    40.00 Ry     beta=0.70
     Davidson diagonalization with overlap
     ethr =  2.81E-09,  avg # of iterations =  1.7

     total cpu time spent up to now is      135.6 secs

     total energy              =     -95.09565681 Ry
     Harris-Foulkes estimate   =     -95.09565682 Ry
     estimated scf accuracy    <       0.00000002 Ry

     iteration # 13     ecut=    40.00 Ry     beta=0.70
     Davidson diagonalization with overlap
     ethr =  2.03E-10,  avg # of iterations =  2.0

     total cpu time spent up to now is      138.3 secs

     total energy              =     -95.09565682 Ry
     Harris-Foulkes estimate   =     -95.09565682 Ry
     estimated scf accuracy    <          3.1E-10 Ry

     iteration # 14     ecut=    40.00 Ry     beta=0.70
     Davidson diagonalization with overlap
     ethr =  3.48E-12,  avg # of iterations =  1.0

     total cpu time spent up to now is      140.5 secs

     total energy              =     -95.09565682 Ry
     Harris-Foulkes estimate   =     -95.09565682 Ry
     estimated scf accuracy    <          3.7E-10 Ry

     iteration # 15     ecut=    40.00 Ry     beta=0.70
     Davidson diagonalization with overlap
     ethr =  3.48E-12,  avg # of iterations =  2.0

     total cpu time spent up to now is      143.1 secs

     End of self-consistent calculation

     Number of k-points >= 100: set verbosity='high' to print the bands.

     the Fermi energy is     3.2794 ev

!    total energy              =     -95.09565682 Ry
     Harris-Foulkes estimate   =     -95.09565682 Ry
     estimated scf accuracy    <          2.0E-13 Ry

     The total energy is the sum of the following terms:

     one-electron contribution =     -80.49125308 Ry
     hartree contribution      =      41.22431650 Ry
     xc contribution           =     -14.31692478 Ry
     ewald contribution        =     -41.51175939 Ry
     smearing contrib. (-TS)   =      -0.00003606 Ry

     convergence has been achieved in  15 iterations

     Forces acting on atoms (cartesian axes, Ry/au):

     atom    1 type  1   force =     0.00000000    0.00000000    0.00000000

     Total force =     0.000000     Total SCF correction =     0.000000


     Computing stress (Cartesian axis) and pressure

          total   stress  (Ry/bohr**3)                   (kbar)     P=   44.54
   0.00030280   0.00000000  -0.00000000         44.54      0.00     -0.00
  -0.00000000   0.00030280   0.00000000         -0.00     44.54      0.00
  -0.00000000   0.00000000   0.00030280         -0.00      0.00     44.54


     number of scf cycles    =   4
     number of bfgs steps    =   3

     enthalpy old            =     -95.0962264070 Ry
     enthalpy new            =     -95.1078251997 Ry

     CASE: enthalpy_new < enthalpy_old

     new trust radius        =       0.1867934374 bohr
     new conv_thr            =            1.0E-10 Ry

     new unit-cell volume =    219.16805 a.u.^3 (    32.47735 Ang^3 )
     density =      1.17546 g/cm^3

CELL_PARAMETERS (alat=  8.00000000)
  -0.598171564  -0.000000000   0.598171564
   0.000000000   0.598171564   0.598171564
  -0.598171564   0.598171564  -0.000000000

ATOMIC_POSITIONS (crystal)
Na       0.000000000   0.000000000   0.000000000



     Writing output data file na.fcc.save
     NEW-OLD atomic charge density approx. for the potential
     extrapolated charge   10.64820, renormalised to    9.00000

     total cpu time spent up to now is      144.9 secs

     per-process dynamical memory:    31.2 Mb

     Self-consistent Calculation

     iteration #  1     ecut=    40.00 Ry     beta=0.70
     Davidson diagonalization with overlap
     ethr =  1.00E-06,  avg # of iterations =  5.7

     total cpu time spent up to now is      150.4 secs

     total energy              =     -89.47740118 Ry
     Harris-Foulkes estimate   =     -82.88508296 Ry
     estimated scf accuracy    <       3.50151437 Ry

     iteration #  2     ecut=    40.00 Ry     beta=0.70
     Davidson diagonalization with overlap
     ethr =  1.00E-02,  avg # of iterations =  3.0

     total cpu time spent up to now is      154.1 secs

     total energy              =     -95.59703275 Ry
     Harris-Foulkes estimate   =     -97.80010293 Ry
     estimated scf accuracy    <       4.67229447 Ry

     iteration #  3     ecut=    40.00 Ry     beta=0.70
     Davidson diagonalization with overlap
     ethr =  1.00E-02,  avg # of iterations =  2.0

     total cpu time spent up to now is      156.9 secs

     total energy              =     -95.21499528 Ry
     Harris-Foulkes estimate   =     -95.78997449 Ry
     estimated scf accuracy    <       1.26024007 Ry

     iteration #  4     ecut=    40.00 Ry     beta=0.70
     Davidson diagonalization with overlap
     ethr =  1.00E-02,  avg # of iterations =  1.0

     total cpu time spent up to now is      159.1 secs

     total energy              =     -95.17574851 Ry
     Harris-Foulkes estimate   =     -95.27404247 Ry
     estimated scf accuracy    <       0.33018691 Ry

     iteration #  5     ecut=    40.00 Ry     beta=0.70
     Davidson diagonalization with overlap
     ethr =  3.67E-03,  avg # of iterations =  1.0

     total cpu time spent up to now is      161.3 secs

     total energy              =     -95.12152088 Ry
     Harris-Foulkes estimate   =     -95.18308975 Ry
     estimated scf accuracy    <       0.15508649 Ry

     iteration #  6     ecut=    40.00 Ry     beta=0.70
     Davidson diagonalization with overlap
     ethr =  1.72E-03,  avg # of iterations =  1.1

     total cpu time spent up to now is      163.6 secs

     total energy              =     -95.09717142 Ry
     Harris-Foulkes estimate   =     -95.12759624 Ry
     estimated scf accuracy    <       0.04912646 Ry

     iteration #  7     ecut=    40.00 Ry     beta=0.70
     Davidson diagonalization with overlap
     ethr =  5.46E-04,  avg # of iterations =  2.3

     total cpu time spent up to now is      166.3 secs

     total energy              =     -95.10551009 Ry
     Harris-Foulkes estimate   =     -95.10394046 Ry
     estimated scf accuracy    <       0.00200887 Ry

     iteration #  8     ecut=    40.00 Ry     beta=0.70
     Davidson diagonalization with overlap
     ethr =  2.23E-05,  avg # of iterations =  3.1

     total cpu time spent up to now is      169.1 secs

     total energy              =     -95.10318139 Ry
     Harris-Foulkes estimate   =     -95.10570863 Ry
     estimated scf accuracy    <       0.00547298 Ry

     iteration #  9     ecut=    40.00 Ry     beta=0.70
     Davidson diagonalization with overlap
     ethr =  2.23E-05,  avg # of iterations =  2.0

     total cpu time spent up to now is      171.8 secs

     total energy              =     -95.10318316 Ry
     Harris-Foulkes estimate   =     -95.10352637 Ry
     estimated scf accuracy    <       0.00112804 Ry

     iteration # 10     ecut=    40.00 Ry     beta=0.70
     Davidson diagonalization with overlap
     ethr =  1.25E-05,  avg # of iterations =  1.0

     total cpu time spent up to now is      174.0 secs

     total energy              =     -95.10283123 Ry
     Harris-Foulkes estimate   =     -95.10321028 Ry
     estimated scf accuracy    <       0.00049875 Ry

     iteration # 11     ecut=    40.00 Ry     beta=0.70
     Davidson diagonalization with overlap
     ethr =  5.54E-06,  avg # of iterations =  2.1

     total cpu time spent up to now is      176.7 secs

     total energy              =     -95.10296619 Ry
     Harris-Foulkes estimate   =     -95.10296957 Ry
     estimated scf accuracy    <       0.00000876 Ry

     iteration # 12     ecut=    40.00 Ry     beta=0.70
     Davidson diagonalization with overlap
     ethr =  9.73E-08,  avg # of iterations =  1.1

     total cpu time spent up to now is      179.0 secs

     total energy              =     -95.10296546 Ry
     Harris-Foulkes estimate   =     -95.10296674 Ry
     estimated scf accuracy    <       0.00000270 Ry

     iteration # 13     ecut=    40.00 Ry     beta=0.70
     Davidson diagonalization with overlap
     ethr =  3.00E-08,  avg # of iterations =  1.2

     total cpu time spent up to now is      181.2 secs

     total energy              =     -95.10296556 Ry
     Harris-Foulkes estimate   =     -95.10296570 Ry
     estimated scf accuracy    <       0.00000034 Ry

     iteration # 14     ecut=    40.00 Ry     beta=0.70
     Davidson diagonalization with overlap
     ethr =  3.78E-09,  avg # of iterations =  1.7

     total cpu time spent up to now is      183.6 secs

     total energy              =     -95.10296560 Ry
     Harris-Foulkes estimate   =     -95.10296560 Ry
     estimated scf accuracy    <       0.00000001 Ry

     iteration # 15     ecut=    40.00 Ry     beta=0.70
     Davidson diagonalization with overlap
     ethr =  1.56E-10,  avg # of iterations =  1.6

     total cpu time spent up to now is      186.0 secs

     total energy              =     -95.10296559 Ry
     Harris-Foulkes estimate   =     -95.10296560 Ry
     estimated scf accuracy    <          7.6E-09 Ry

     iteration # 16     ecut=    40.00 Ry     beta=0.70
     Davidson diagonalization with overlap
     ethr =  8.39E-11,  avg # of iterations =  2.0

     total cpu time spent up to now is      188.7 secs

     total energy              =     -95.10296560 Ry
     Harris-Foulkes estimate   =     -95.10296560 Ry
     estimated scf accuracy    <          2.2E-09 Ry

     iteration # 17     ecut=    40.00 Ry     beta=0.70
     Davidson diagonalization with overlap
     ethr =  2.40E-11,  avg # of iterations =  2.0

     total cpu time spent up to now is      191.4 secs

     End of self-consistent calculation

     Number of k-points >= 100: set verbosity='high' to print the bands.

     the Fermi energy is     2.1921 ev

!    total energy              =     -95.10296560 Ry
     Harris-Foulkes estimate   =     -95.10296560 Ry
     estimated scf accuracy    <          7.0E-11 Ry

     The total energy is the sum of the following terms:

     one-electron contribution =     -85.21277047 Ry
     hartree contribution      =      43.19965894 Ry
     xc contribution           =     -14.28679019 Ry
     ewald contribution        =     -38.80302183 Ry
     smearing contrib. (-TS)   =      -0.00004205 Ry

     convergence has been achieved in  17 iterations

     Forces acting on atoms (cartesian axes, Ry/au):

     atom    1 type  1   force =     0.00000000    0.00000000    0.00000000

     Total force =     0.000000     Total SCF correction =     0.000000


     Computing stress (Cartesian axis) and pressure

          total   stress  (Ry/bohr**3)                   (kbar)     P=   11.87
   0.00008071   0.00000000   0.00000000         11.87      0.00      0.00
   0.00000000   0.00008071  -0.00000000          0.00     11.87     -0.00
   0.00000000  -0.00000000   0.00008071          0.00     -0.00     11.87


     number of scf cycles    =   5
     number of bfgs steps    =   4

     enthalpy old            =     -95.1078251997 Ry
     enthalpy new            =     -95.1178643403 Ry

     CASE: enthalpy_new < enthalpy_old

     new trust radius        =       0.1638916015 bohr
     new conv_thr            =            1.0E-10 Ry

     new unit-cell volume =    257.61433 a.u.^3 (    38.17450 Ang^3 )
     density =      1.00003 g/cm^3

CELL_PARAMETERS (alat=  8.00000000)
  -0.631281920  -0.000000000   0.631281920
   0.000000000   0.631281920   0.631281920
  -0.631281920   0.631281920  -0.000000000

ATOMIC_POSITIONS (crystal)
Na       0.000000000   0.000000000   0.000000000



     Writing output data file na.fcc.save
     NEW-OLD atomic charge density approx. for the potential
     extrapolated charge   10.34222, renormalised to    9.00000

     total cpu time spent up to now is      193.3 secs

     per-process dynamical memory:    31.2 Mb

     Self-consistent Calculation

     iteration #  1     ecut=    40.00 Ry     beta=0.70
     Davidson diagonalization with overlap
     ethr =  1.00E-06,  avg # of iterations =  5.6

     total cpu time spent up to now is      198.6 secs

     total energy              =     -92.29603847 Ry
     Harris-Foulkes estimate   =     -84.54616029 Ry
     estimated scf accuracy    <       1.65950897 Ry

     iteration #  2     ecut=    40.00 Ry     beta=0.70
     Davidson diagonalization with overlap
     ethr =  1.00E-02,  avg # of iterations =  3.0

     total cpu time spent up to now is      202.2 secs

     total energy              =     -95.30791669 Ry
     Harris-Foulkes estimate   =     -96.40556565 Ry
     estimated scf accuracy    <       2.38035877 Ry

     iteration #  3     ecut=    40.00 Ry     beta=0.70
     Davidson diagonalization with overlap
     ethr =  1.00E-02,  avg # of iterations =  2.0

     total cpu time spent up to now is      204.7 secs

     total energy              =     -95.15994778 Ry
     Harris-Foulkes estimate   =     -95.41783570 Ry
     estimated scf accuracy    <       0.60682713 Ry

     iteration #  4     ecut=    40.00 Ry     beta=0.70
     Davidson diagonalization with overlap
     ethr =  6.74E-03,  avg # of iterations =  1.0

     total cpu time spent up to now is      206.9 secs

     total energy              =     -95.13138644 Ry
     Harris-Foulkes estimate   =     -95.18752235 Ry
     estimated scf accuracy    <       0.16963950 Ry

     iteration #  5     ecut=    40.00 Ry     beta=0.70
     Davidson diagonalization with overlap
     ethr =  1.88E-03,  avg # of iterations =  1.0

     total cpu time spent up to now is      209.1 secs

     total energy              =     -95.10493607 Ry
     Harris-Foulkes estimate   =     -95.13645434 Ry
     estimated scf accuracy    <       0.06818353 Ry

     iteration #  6     ecut=    40.00 Ry     beta=0.70
     Davidson diagonalization with overlap
     ethr =  7.58E-04,  avg # of iterations =  1.1

     total cpu time spent up to now is      211.3 secs

     total energy              =     -95.10164767 Ry
     Harris-Foulkes estimate   =     -95.10914271 Ry
     estimated scf accuracy    <       0.01421625 Ry

     iteration #  7     ecut=    40.00 Ry     beta=0.70
     Davidson diagonalization with overlap
     ethr =  1.58E-04,  avg # of iterations =  1.8

     total cpu time spent up to now is      213.8 secs

     total energy              =     -95.10264075 Ry
     Harris-Foulkes estimate   =     -95.10304418 Ry
     estimated scf accuracy    <       0.00164353 Ry

     iteration #  8     ecut=    40.00 Ry     beta=0.70
     Davidson diagonalization with overlap
     ethr =  1.83E-05,  avg # of iterations =  2.7

     total cpu time spent up to now is      216.5 secs

     total energy              =     -95.10253523 Ry
     Harris-Foulkes estimate   =     -95.10269812 Ry
     estimated scf accuracy    <       0.00089907 Ry

     iteration #  9     ecut=    40.00 Ry     beta=0.70
     Davidson diagonalization with overlap
     ethr =  9.99E-06,  avg # of iterations =  1.1

     total cpu time spent up to now is      218.7 secs

     total energy              =     -95.10208729 Ry
     Harris-Foulkes estimate   =     -95.10254319 Ry
     estimated scf accuracy    <       0.00058065 Ry

     iteration # 10     ecut=    40.00 Ry     beta=0.70
     Davidson diagonalization with overlap
     ethr =  6.45E-06,  avg # of iterations =  2.1

     total cpu time spent up to now is      221.4 secs

     total energy              =     -95.10225471 Ry
     Harris-Foulkes estimate   =     -95.10227581 Ry
     estimated scf accuracy    <       0.00002995 Ry

     iteration # 11     ecut=    40.00 Ry     beta=0.70
     Davidson diagonalization with overlap
     ethr =  3.33E-07,  avg # of iterations =  2.1

     total cpu time spent up to now is      224.2 secs

     total energy              =     -95.10226144 Ry
     Harris-Foulkes estimate   =     -95.10226146 Ry
     estimated scf accuracy    <       0.00000006 Ry

     iteration # 12     ecut=    40.00 Ry     beta=0.70
     Davidson diagonalization with overlap
     ethr =  6.38E-10,  avg # of iterations =  2.0

     total cpu time spent up to now is      226.9 secs

     total energy              =     -95.10226145 Ry
     Harris-Foulkes estimate   =     -95.10226145 Ry
     estimated scf accuracy    <       0.00000002 Ry

     iteration # 13     ecut=    40.00 Ry     beta=0.70
     Davidson diagonalization with overlap
     ethr =  1.86E-10,  avg # of iterations =  1.0

     total cpu time spent up to now is      229.1 secs

     total energy              =     -95.10226145 Ry
     Harris-Foulkes estimate   =     -95.10226145 Ry
     estimated scf accuracy    <       0.00000001 Ry

     iteration # 14     ecut=    40.00 Ry     beta=0.70
     Davidson diagonalization with overlap
     ethr =  1.22E-10,  avg # of iterations =  1.0

     total cpu time spent up to now is      231.3 secs

     total energy              =     -95.10226145 Ry
     Harris-Foulkes estimate   =     -95.10226145 Ry
     estimated scf accuracy    <          6.2E-10 Ry

     iteration # 15     ecut=    40.00 Ry     beta=0.70
     Davidson diagonalization with overlap
     ethr =  6.92E-12,  avg # of iterations =  1.0

     total cpu time spent up to now is      233.5 secs

     total energy              =     -95.10226145 Ry
     Harris-Foulkes estimate   =     -95.10226145 Ry
     estimated scf accuracy    <          2.0E-10 Ry

     iteration # 16     ecut=    40.00 Ry     beta=0.70
     Davidson diagonalization with overlap
     ethr =  2.26E-12,  avg # of iterations =  1.6

     total cpu time spent up to now is      235.8 secs

     total energy              =     -95.10226145 Ry
     Harris-Foulkes estimate   =     -95.10226145 Ry
     estimated scf accuracy    <          2.5E-10 Ry

     iteration # 17     ecut=    40.00 Ry     beta=0.70
     Davidson diagonalization with overlap
     ethr =  2.26E-12,  avg # of iterations =  1.6

     total cpu time spent up to now is      238.2 secs

     End of self-consistent calculation

     Number of k-points >= 100: set verbosity='high' to print the bands.

     the Fermi energy is     1.4797 ev

!    total energy              =     -95.10226145 Ry
     Harris-Foulkes estimate   =     -95.10226145 Ry
     estimated scf accuracy    <          1.1E-12 Ry

     The total energy is the sum of the following terms:

     one-electron contribution =     -88.76748769 Ry
     hartree contribution      =      44.69521949 Ry
     xc contribution           =     -14.26211795 Ry
     ewald contribution        =     -36.76782705 Ry
     smearing contrib. (-TS)   =      -0.00004826 Ry

     convergence has been achieved in  17 iterations

     Forces acting on atoms (cartesian axes, Ry/au):

     atom    1 type  1   force =     0.00000000    0.00000000    0.00000000

     Total force =     0.000000     Total SCF correction =     0.000000


     Computing stress (Cartesian axis) and pressure

          total   stress  (Ry/bohr**3)                   (kbar)     P=  -19.18
  -0.00013035  -0.00000000   0.00000000        -19.18     -0.00      0.00
  -0.00000000  -0.00013035  -0.00000000         -0.00    -19.18     -0.00
   0.00000000  -0.00000000  -0.00013035          0.00     -0.00    -19.18


     number of scf cycles    =   6
     number of bfgs steps    =   5

     enthalpy old            =     -95.1178643403 Ry
     enthalpy new            =     -95.1197737148 Ry

     CASE: enthalpy_new < enthalpy_old

     new trust radius        =       0.0536146994 bohr
     new conv_thr            =            1.0E-10 Ry

     new unit-cell volume =    244.92068 a.u.^3 (    36.29350 Ang^3 )
     density =      1.05186 g/cm^3

CELL_PARAMETERS (alat=  8.00000000)
  -0.620738240  -0.000000000   0.620738240
   0.000000000   0.620738240   0.620738240
  -0.620738240   0.620738240  -0.000000000

ATOMIC_POSITIONS (crystal)
Na       0.000000000   0.000000000   0.000000000



     Writing output data file na.fcc.save
     NEW-OLD atomic charge density approx. for the potential
     extrapolated charge    8.53388, renormalised to    9.00000

     total cpu time spent up to now is      240.0 secs

     per-process dynamical memory:    31.2 Mb

     Self-consistent Calculation

     iteration #  1     ecut=    40.00 Ry     beta=0.70
     Davidson diagonalization with overlap
     ethr =  1.00E-06,  avg # of iterations =  4.6

     total cpu time spent up to now is      244.7 secs

     total energy              =     -94.98207335 Ry
     Harris-Foulkes estimate   =     -98.68839708 Ry
     estimated scf accuracy    <       0.06906494 Ry

     iteration #  2     ecut=    40.00 Ry     beta=0.70
     Davidson diagonalization with overlap
     ethr =  7.67E-04,  avg # of iterations =  2.3

     total cpu time spent up to now is      248.0 secs

     total energy              =     -95.10352516 Ry
     Harris-Foulkes estimate   =     -95.15280080 Ry
     estimated scf accuracy    <       0.11086198 Ry

     iteration #  3     ecut=    40.00 Ry     beta=0.70
     Davidson diagonalization with overlap
     ethr =  7.67E-04,  avg # of iterations =  2.0

     total cpu time spent up to now is      250.6 secs

     total energy              =     -95.10364873 Ry
     Harris-Foulkes estimate   =     -95.11181561 Ry
     estimated scf accuracy    <       0.01865229 Ry

     iteration #  4     ecut=    40.00 Ry     beta=0.70
     Davidson diagonalization with overlap
     ethr =  2.07E-04,  avg # of iterations =  1.0

     total cpu time spent up to now is      252.8 secs

     total energy              =     -95.10487434 Ry
     Harris-Foulkes estimate   =     -95.10494407 Ry
     estimated scf accuracy    <       0.00350059 Ry

     iteration #  5     ecut=    40.00 Ry     beta=0.70
     Davidson diagonalization with overlap
     ethr =  3.89E-05,  avg # of iterations =  1.0

     total cpu time spent up to now is      255.0 secs

     total energy              =     -95.10325526 Ry
     Harris-Foulkes estimate   =     -95.10490938 Ry
     estimated scf accuracy    <       0.00337815 Ry

     iteration #  6     ecut=    40.00 Ry     beta=0.70
     Davidson diagonalization with overlap
     ethr =  3.75E-05,  avg # of iterations =  1.4

     total cpu time spent up to now is      257.3 secs

     total energy              =     -95.10332842 Ry
     Harris-Foulkes estimate   =     -95.10357892 Ry
     estimated scf accuracy    <       0.00039624 Ry

     iteration #  7     ecut=    40.00 Ry     beta=0.70
     Davidson diagonalization with overlap
     ethr =  4.40E-06,  avg # of iterations =  2.4

     total cpu time spent up to now is      260.1 secs

     total energy              =     -95.10340219 Ry
     Harris-Foulkes estimate   =     -95.10340449 Ry
     estimated scf accuracy    <       0.00000288 Ry

     iteration #  8     ecut=    40.00 Ry     beta=0.70
     Davidson diagonalization with overlap
     ethr =  3.20E-08,  avg # of iterations =  2.1

     total cpu time spent up to now is      262.9 secs

     total energy              =     -95.10340227 Ry
     Harris-Foulkes estimate   =     -95.10340517 Ry
     estimated scf accuracy    <       0.00000477 Ry

     iteration #  9     ecut=    40.00 Ry     beta=0.70
     Davidson diagonalization with overlap
     ethr =  3.20E-08,  avg # of iterations =  2.0

     total cpu time spent up to now is      265.7 secs

     total energy              =     -95.10340322 Ry
     Harris-Foulkes estimate   =     -95.10340322 Ry
     estimated scf accuracy    <       0.00000025 Ry

     iteration # 10     ecut=    40.00 Ry     beta=0.70
     Davidson diagonalization with overlap
     ethr =  2.79E-09,  avg # of iterations =  1.0

     total cpu time spent up to now is      267.9 secs

     total energy              =     -95.10340322 Ry
     Harris-Foulkes estimate   =     -95.10340322 Ry
     estimated scf accuracy    <       0.00000025 Ry

     iteration # 11     ecut=    40.00 Ry     beta=0.70
     Davidson diagonalization with overlap
     ethr =  2.77E-09,  avg # of iterations =  1.0

     total cpu time spent up to now is      270.1 secs

     total energy              =     -95.10340322 Ry
     Harris-Foulkes estimate   =     -95.10340322 Ry
     estimated scf accuracy    <       0.00000024 Ry

     iteration # 12     ecut=    40.00 Ry     beta=0.70
     Davidson diagonalization with overlap
     ethr =  2.65E-09,  avg # of iterations =  1.0

     total cpu time spent up to now is      272.3 secs

     total energy              =     -95.10340323 Ry
     Harris-Foulkes estimate   =     -95.10340322 Ry
     estimated scf accuracy    <       0.00000024 Ry

     iteration # 13     ecut=    40.00 Ry     beta=0.70
     Davidson diagonalization with overlap
     ethr =  2.63E-09,  avg # of iterations =  1.0

     total cpu time spent up to now is      274.5 secs

     total energy              =     -95.10340317 Ry
     Harris-Foulkes estimate   =     -95.10340323 Ry
     estimated scf accuracy    <       0.00000028 Ry

     iteration # 14     ecut=    40.00 Ry     beta=0.70
     Davidson diagonalization with overlap
     ethr =  2.63E-09,  avg # of iterations =  1.6

     total cpu time spent up to now is      276.8 secs

     total energy              =     -95.10340318 Ry
     Harris-Foulkes estimate   =     -95.10340318 Ry
     estimated scf accuracy    <          1.1E-09 Ry

     iteration # 15     ecut=    40.00 Ry     beta=0.70
     Davidson diagonalization with overlap
     ethr =  1.20E-11,  avg # of iterations =  2.0

     total cpu time spent up to now is      279.6 secs

     total energy              =     -95.10340318 Ry
     Harris-Foulkes estimate   =     -95.10340318 Ry
     estimated scf accuracy    <          1.4E-10 Ry

     iteration # 16     ecut=    40.00 Ry     beta=0.70
     Davidson diagonalization with overlap
     ethr =  1.60E-12,  avg # of iterations =  1.7

     total cpu time spent up to now is      282.0 secs

     End of self-consistent calculation

     Number of k-points >= 100: set verbosity='high' to print the bands.

     the Fermi energy is     1.6894 ev

!    total energy              =     -95.10340318 Ry
     Harris-Foulkes estimate   =     -95.10340318 Ry
     estimated scf accuracy    <          5.7E-12 Ry

     The total energy is the sum of the following terms:

     one-electron contribution =     -87.67768198 Ry
     hartree contribution      =      44.23688725 Ry
     xc contribution           =     -14.27020770 Ry
     ewald contribution        =     -37.39235457 Ry
     smearing contrib. (-TS)   =      -0.00004618 Ry

     convergence has been achieved in  16 iterations

     Forces acting on atoms (cartesian axes, Ry/au):

     atom    1 type  1   force =     0.00000000    0.00000000    0.00000000

     Total force =     0.000000     Total SCF correction =     0.000000


     Computing stress (Cartesian axis) and pressure

          total   stress  (Ry/bohr**3)                   (kbar)     P=   -7.56
  -0.00005137  -0.00000000  -0.00000000         -7.56     -0.00     -0.00
  -0.00000000  -0.00005137  -0.00000000         -0.00     -7.56     -0.00
  -0.00000000  -0.00000000  -0.00005137         -0.00     -0.00     -7.56


     number of scf cycles    =   7
     number of bfgs steps    =   6

     enthalpy old            =     -95.1197737148 Ry
     enthalpy new            =     -95.1200525496 Ry

     CASE: enthalpy_new < enthalpy_old

     new trust radius        =       0.0108839111 bohr
     new conv_thr            =            1.0E-10 Ry

     new unit-cell volume =    247.48456 a.u.^3 (    36.67343 Ang^3 )
     density =      1.04097 g/cm^3

CELL_PARAMETERS (alat=  8.00000000)
  -0.622896734  -0.000000000   0.622896734
   0.000000000   0.622896734   0.622896734
  -0.622896734   0.622896734  -0.000000000

ATOMIC_POSITIONS (crystal)
Na       0.000000000   0.000000000   0.000000000



     Writing output data file na.fcc.save
     NEW-OLD atomic charge density approx. for the potential
     extrapolated charge    9.09317, renormalised to    9.00000

     total cpu time spent up to now is      283.8 secs

     per-process dynamical memory:    31.2 Mb

     Self-consistent Calculation

     iteration #  1     ecut=    40.00 Ry     beta=0.70
     Davidson diagonalization with overlap
     ethr =  1.00E-06,  avg # of iterations =  3.3

     total cpu time spent up to now is      287.6 secs

     total energy              =     -95.09733250 Ry
     Harris-Foulkes estimate   =     -94.37609330 Ry
     estimated scf accuracy    <       0.00330288 Ry

     iteration #  2     ecut=    40.00 Ry     beta=0.70
     Davidson diagonalization with overlap
     ethr =  3.67E-05,  avg # of iterations =  2.6

     total cpu time spent up to now is      291.0 secs

     total energy              =     -95.10338371 Ry
     Harris-Foulkes estimate   =     -95.10577542 Ry
     estimated scf accuracy    <       0.00541692 Ry

     iteration #  3     ecut=    40.00 Ry     beta=0.70
     Davidson diagonalization with overlap
     ethr =  3.67E-05,  avg # of iterations =  1.6

     total cpu time spent up to now is      293.4 secs

     total energy              =     -95.10339433 Ry
     Harris-Foulkes estimate   =     -95.10373563 Ry
     estimated scf accuracy    <       0.00106318 Ry

     iteration #  4     ecut=    40.00 Ry     beta=0.70
     Davidson diagonalization with overlap
     ethr =  1.18E-05,  avg # of iterations =  1.0

     total cpu time spent up to now is      295.6 secs

     total energy              =     -95.10325523 Ry
     Harris-Foulkes estimate   =     -95.10343345 Ry
     estimated scf accuracy    <       0.00038970 Ry

     iteration #  5     ecut=    40.00 Ry     beta=0.70
     Davidson diagonalization with overlap
     ethr =  4.33E-06,  avg # of iterations =  1.0

     total cpu time spent up to now is      297.8 secs

     total energy              =     -95.10326837 Ry
     Harris-Foulkes estimate   =     -95.10328324 Ry
     estimated scf accuracy    <       0.00006842 Ry

     iteration #  6     ecut=    40.00 Ry     beta=0.70
     Davidson diagonalization with overlap
     ethr =  7.60E-07,  avg # of iterations =  1.0

     total cpu time spent up to now is      300.0 secs

     total energy              =     -95.10326775 Ry
     Harris-Foulkes estimate   =     -95.10327003 Ry
     estimated scf accuracy    <       0.00003803 Ry

     iteration #  7     ecut=    40.00 Ry     beta=0.70
     Davidson diagonalization with overlap
     ethr =  4.23E-07,  avg # of iterations =  1.0

     total cpu time spent up to now is      302.2 secs

     total energy              =     -95.10324559 Ry
     Harris-Foulkes estimate   =     -95.10326780 Ry
     estimated scf accuracy    <       0.00003375 Ry

     iteration #  8     ecut=    40.00 Ry     beta=0.70
     Davidson diagonalization with overlap
     ethr =  3.75E-07,  avg # of iterations =  2.0

     total cpu time spent up to now is      305.0 secs

     total energy              =     -95.10325214 Ry
     Harris-Foulkes estimate   =     -95.10325219 Ry
     estimated scf accuracy    <       0.00000007 Ry

     iteration #  9     ecut=    40.00 Ry     beta=0.70
     Davidson diagonalization with overlap
     ethr =  7.98E-10,  avg # of iterations =  2.0

     total cpu time spent up to now is      307.7 secs

     total energy              =     -95.10325218 Ry
     Harris-Foulkes estimate   =     -95.10325218 Ry
     estimated scf accuracy    <       0.00000004 Ry

     iteration # 10     ecut=    40.00 Ry     beta=0.70
     Davidson diagonalization with overlap
     ethr =  3.95E-10,  avg # of iterations =  1.0

     total cpu time spent up to now is      309.9 secs

     total energy              =     -95.10325216 Ry
     Harris-Foulkes estimate   =     -95.10325218 Ry
     estimated scf accuracy    <       0.00000003 Ry

     iteration # 11     ecut=    40.00 Ry     beta=0.70
     Davidson diagonalization with overlap
     ethr =  3.51E-10,  avg # of iterations =  1.0

     total cpu time spent up to now is      312.1 secs

     total energy              =     -95.10325216 Ry
     Harris-Foulkes estimate   =     -95.10325216 Ry
     estimated scf accuracy    <          3.5E-09 Ry

     iteration # 12     ecut=    40.00 Ry     beta=0.70
     Davidson diagonalization with overlap
     ethr =  3.89E-11,  avg # of iterations =  2.0

     total cpu time spent up to now is      314.8 secs

     total energy              =     -95.10325216 Ry
     Harris-Foulkes estimate   =     -95.10325216 Ry
     estimated scf accuracy    <          1.1E-10 Ry

     iteration # 13     ecut=    40.00 Ry     beta=0.70
     Davidson diagonalization with overlap
     ethr =  1.20E-12,  avg # of iterations =  1.0

     total cpu time spent up to now is      317.0 secs

     End of self-consistent calculation

     Number of k-points >= 100: set verbosity='high' to print the bands.

     the Fermi energy is     1.6452 ev

!    total energy              =     -95.10325216 Ry
     Harris-Foulkes estimate   =     -95.10325216 Ry
     estimated scf accuracy    <          3.9E-11 Ry

     The total energy is the sum of the following terms:

     one-electron contribution =     -87.90395316 Ry
     hartree contribution      =      44.33211283 Ry
     xc contribution           =     -14.26858454 Ry
     ewald contribution        =     -37.26278070 Ry
     smearing contrib. (-TS)   =      -0.00004660 Ry

     convergence has been achieved in  13 iterations

     Forces acting on atoms (cartesian axes, Ry/au):

     atom    1 type  1   force =     0.00000000    0.00000000    0.00000000

     Total force =     0.000000     Total SCF correction =     0.000000


     Computing stress (Cartesian axis) and pressure

          total   stress  (Ry/bohr**3)                   (kbar)     P=   -9.73
  -0.00006613  -0.00000000  -0.00000000         -9.73     -0.00     -0.00
  -0.00000000  -0.00006613  -0.00000000         -0.00     -9.73     -0.00
  -0.00000000  -0.00000000  -0.00006613         -0.00     -0.00     -9.73


     bfgs converged in   8 scf cycles and   7 bfgs steps
     (criteria: energy <  1.0E-04 Ry, force <  1.0E-03Ry/Bohr, cell <  5.0E-01kbar)

     End of BFGS Geometry Optimization

     Final enthalpy =     -95.1200758245 Ry
Begin final coordinates
     new unit-cell volume =    247.48456 a.u.^3 (    36.67343 Ang^3 )
     density =      1.04097 g/cm^3

CELL_PARAMETERS (alat=  8.00000000)
  -0.622896734  -0.000000000   0.622896734
   0.000000000   0.622896734   0.622896734
  -0.622896734   0.622896734  -0.000000000

ATOMIC_POSITIONS (crystal)
Na       0.000000000   0.000000000   0.000000000
End final coordinates



     A final scf calculation at the relaxed structure.
     The G-vectors are recalculated for the final unit cell
     Results may differ from those at the preceding step.

     Parallelization info
     --------------------
     sticks:   dense  smooth     PW     G-vecs:    dense   smooth      PW
     Min         274     136     46                 5993     2097     409
     Max         275     137     47                 5994     2099     411
     Sum        1099     547    187                23973     8393    1639



     bravais-lattice index     =            2
     lattice parameter (alat)  =       8.0000  a.u.
     unit-cell volume          =     247.4846 (a.u.)^3
     number of atoms/cell      =            1
     number of atomic types    =            1
     number of electrons       =         9.00
     number of Kohn-Sham states=            9
     kinetic-energy cutoff     =      40.0000  Ry
     charge density cutoff     =     320.0000  Ry
     convergence threshold     =      1.0E-10
     mixing beta               =       0.7000
     number of iterations used =            8  plain     mixing
     Exchange-correlation      = SLA  PW   PBE  PBE ( 1  4  3  4 0 0)

     celldm(1)=   8.000000  celldm(2)=   0.000000  celldm(3)=   0.000000
     celldm(4)=   0.000000  celldm(5)=   0.000000  celldm(6)=   0.000000

     crystal axes: (cart. coord. in units of alat)
               a(1) = (  -0.622897  -0.000000   0.622897 )  
               a(2) = (   0.000000   0.622897   0.622897 )  
               a(3) = (  -0.622897   0.622897  -0.000000 )  

     reciprocal axes: (cart. coord. in units 2 pi/alat)
               b(1) = ( -0.802701 -0.802701  0.802701 )  
               b(2) = (  0.802701  0.802701  0.802701 )  
               b(3) = ( -0.802701  0.802701 -0.802701 )  


     PseudoPot. # 1 for Na read from file:
     /home/s1333534/quantum_espresso/qe-6.1/pseudo/Na_pbe_v1.uspp.F.UPF
     MD5 check sum: 76a99c7e9422403d3e93cbc85ab7bccb
     Pseudo is Ultrasoft, Zval =  9.0
     Generated by new atomic code, or converted to UPF format
     Using radial grid of  819 points,  5 beta functions with: 
                l(1) =   0
                l(2) =   0
                l(3) =   1
                l(4) =   1
                l(5) =   2
     Q(r) pseudized with  8 coefficients,  rinner =    1.250   1.250   1.250
                                                       1.250   1.250

     atomic species   valence    mass     pseudopotential
        Na             9.00    22.99000     Na( 1.00)

     48 Sym. Ops., with inversion, found



   Cartesian axes

     site n.     atom                  positions (alat units)
         1           Na  tau(   1) = (   0.0000000   0.0000000   0.0000000  )

     number of k points=   770  Marzari-Vanderbilt smearing, width (Ry)=  0.0200

     Number of k-points >= 100: set verbosity='high' to print them.

     Dense  grid:    23973 G-vectors     FFT dimensions: (  45,  45,  45)

     Smooth grid:     8393 G-vectors     FFT dimensions: (  30,  30,  30)

     Estimated max dynamical RAM per process >      32.38MB

     Estimated total allocated dynamical RAM >     129.50MB

     Initial potential from superposition of free atoms

     starting charge    8.99371, renormalised to    9.00000
     Starting wfc are    5 randomized atomic wfcs +    4 random wfc

     Writing output data file na.fcc.save

     total cpu time spent up to now is      321.1 secs

     per-process dynamical memory:    49.0 Mb

     Self-consistent Calculation

     iteration #  1     ecut=    40.00 Ry     beta=0.70
     Davidson diagonalization with overlap
     c_bands:  1 eigenvalues not converged
     c_bands:  1 eigenvalues not converged
     c_bands:  1 eigenvalues not converged
     c_bands:  1 eigenvalues not converged
     c_bands:  1 eigenvalues not converged
     c_bands:  1 eigenvalues not converged
     c_bands:  1 eigenvalues not converged
     c_bands:  1 eigenvalues not converged
     c_bands:  1 eigenvalues not converged
     c_bands:  1 eigenvalues not converged
     c_bands:  1 eigenvalues not converged
     c_bands:  1 eigenvalues not converged
     c_bands:  1 eigenvalues not converged
     c_bands:  1 eigenvalues not converged
     c_bands:  1 eigenvalues not converged
     c_bands:  1 eigenvalues not converged
     c_bands:  1 eigenvalues not converged
     ethr =  1.00E-06,  avg # of iterations = 11.4

     total cpu time spent up to now is      337.4 secs

     total energy              =     -95.10646163 Ry
     Harris-Foulkes estimate   =     -95.10667075 Ry
     estimated scf accuracy    <       0.00088712 Ry

     iteration #  2     ecut=    40.00 Ry     beta=0.70
     Davidson diagonalization with overlap
     ethr =  9.86E-06,  avg # of iterations =  2.0

     total cpu time spent up to now is      343.1 secs

     total energy              =     -95.10656350 Ry
     Harris-Foulkes estimate   =     -95.10658605 Ry
     estimated scf accuracy    <       0.00009926 Ry

     iteration #  3     ecut=    40.00 Ry     beta=0.70
     Davidson diagonalization with overlap
     ethr =  1.10E-06,  avg # of iterations =  2.0

     total cpu time spent up to now is      348.9 secs

     total energy              =     -95.10657466 Ry
     Harris-Foulkes estimate   =     -95.10657587 Ry
     estimated scf accuracy    <       0.00000619 Ry

     iteration #  4     ecut=    40.00 Ry     beta=0.70
     Davidson diagonalization with overlap
     ethr =  6.87E-08,  avg # of iterations =  1.0

     total cpu time spent up to now is      353.9 secs

     total energy              =     -95.10657524 Ry
     Harris-Foulkes estimate   =     -95.10657520 Ry
     estimated scf accuracy    <          9.0E-09 Ry

     iteration #  5     ecut=    40.00 Ry     beta=0.70
     Davidson diagonalization with overlap
     ethr =  1.00E-10,  avg # of iterations =  3.0

     total cpu time spent up to now is      360.8 secs

     total energy              =     -95.10657528 Ry
     Harris-Foulkes estimate   =     -95.10657527 Ry
     estimated scf accuracy    <          1.7E-09 Ry

     iteration #  6     ecut=    40.00 Ry     beta=0.70
     Davidson diagonalization with overlap
     ethr =  1.85E-11,  avg # of iterations =  1.6

     total cpu time spent up to now is      366.0 secs

     End of self-consistent calculation

     Number of k-points >= 100: set verbosity='high' to print the bands.

     the Fermi energy is     1.6488 ev

!    total energy              =     -95.10657528 Ry
     Harris-Foulkes estimate   =     -95.10657528 Ry
     estimated scf accuracy    <          4.0E-11 Ry

     The total energy is the sum of the following terms:

     one-electron contribution =     -87.91084432 Ry
     hartree contribution      =      44.33700079 Ry
     xc contribution           =     -14.26990462 Ry
     ewald contribution        =     -37.26278049 Ry
     smearing contrib. (-TS)   =      -0.00004664 Ry

     convergence has been achieved in   6 iterations

     Forces acting on atoms (cartesian axes, Ry/au):

     atom    1 type  1   force =     0.00000000    0.00000000    0.00000000

     Total force =     0.000000     Total SCF correction =     0.000000


     Computing stress (Cartesian axis) and pressure

          total   stress  (Ry/bohr**3)                   (kbar)     P=   -1.93
  -0.00001315  -0.00000000   0.00000000         -1.93     -0.00      0.00
  -0.00000000  -0.00001315  -0.00000000         -0.00     -1.93     -0.00
   0.00000000  -0.00000000  -0.00001315          0.00     -0.00     -1.93


     Writing output data file na.fcc.save

     init_run     :      3.31s CPU      3.54s WALL (       2 calls)
     electrons    :    333.81s CPU    347.67s WALL (       9 calls)
     update_pot   :      0.84s CPU      0.85s WALL (       7 calls)
     forces       :      1.52s CPU      1.57s WALL (       9 calls)
     stress       :      8.16s CPU      8.20s WALL (       9 calls)

     Called by init_run:
     wfcinit      :      2.67s CPU      2.85s WALL (       2 calls)
     potinit      :      0.07s CPU      0.07s WALL (       2 calls)

     Called by electrons:
     c_bands      :    278.39s CPU    290.38s WALL (     118 calls)
     sum_band     :     53.32s CPU     55.14s WALL (     118 calls)
     v_of_rho     :      1.05s CPU      1.07s WALL (     126 calls)
     newd         :      1.03s CPU      1.08s WALL (     126 calls)
     mix_rho      :      0.08s CPU      0.09s WALL (     118 calls)

     Called by c_bands:
     init_us_2    :     13.38s CPU     12.41s WALL (  197120 calls)
     cegterg      :    265.30s CPU    277.49s WALL (   90860 calls)

     Called by sum_band:
     sum_band:bec :      0.20s CPU      0.26s WALL (   90860 calls)
     addusdens    :      1.18s CPU      1.19s WALL (     118 calls)

     Called by *egterg:
     h_psi        :    210.61s CPU    219.94s WALL (  274081 calls)
     s_psi        :      3.18s CPU      2.71s WALL (  274081 calls)
     g_psi        :      1.50s CPU      1.51s WALL (  181681 calls)
     cdiaghg      :     33.97s CPU     34.97s WALL (  266381 calls)

     Called by h_psi:
     h_psi:pot    :    209.89s CPU    218.83s WALL (  274081 calls)
     h_psi:calbec :      4.89s CPU      4.45s WALL (  274081 calls)
     vloc_psi     :    201.99s CPU    210.77s WALL (  274081 calls)
     add_vuspsi   :      2.58s CPU      2.94s WALL (  274081 calls)

     General routines
     calbec       :      6.53s CPU      6.47s WALL (  399591 calls)
     fft          :      0.48s CPU      0.50s WALL (    2063 calls)
     ffts         :      0.02s CPU      0.02s WALL (     244 calls)
     fftw         :    224.92s CPU    218.63s WALL ( 4848812 calls)
     interpolate  :      0.08s CPU      0.09s WALL (     244 calls)
     davcio       :      0.01s CPU      0.03s WALL (    1540 calls)

     Parallel routines
     fft_scatter  :     30.86s CPU     39.88s WALL ( 4851119 calls)

     PWSCF        :  5m53.79s CPU     6m 8.43s WALL


   This run was terminated on:  10:48:18  20Dec2017            

=------------------------------------------------------------------------------=
   JOB DONE.
=------------------------------------------------------------------------------=
