
     Program PWSCF v.6.1 (svn rev. 13369) starts on 21Dec2017 at 12:15:11 

     This program is part of the open-source Quantum ESPRESSO suite
     for quantum simulation of materials; please cite
         "P. Giannozzi et al., J. Phys.:Condens. Matter 21 395502 (2009);
          URL http://www.quantum-espresso.org", 
     in publications or presentations arising from this work. More details at
     http://www.quantum-espresso.org/quote

     Parallel version (MPI), running on     4 processors
     R & G space division:  proc/nbgrp/npool/nimage =       4
     Waiting for input...
     Reading input from standard input

     Current dimensions of program PWSCF are:
     Max number of different atomic species (ntypx) = 10
     Max number of k-points (npk) =  40000
     Max angular momentum in pseudopotentials (lmaxx) =  3

     Subspace diagonalization in iterative solution of the eigenvalue problem:
     a serial algorithm will be used


     Parallelization info
     --------------------
     sticks:   dense  smooth     PW     G-vecs:    dense   smooth      PW
     Min         297     148     49                 6733     2394     451
     Max         298     150     50                 6734     2395     453
     Sum        1189     595    199                26933     9577    1807



     bravais-lattice index     =            2
     lattice parameter (alat)  =      10.3743  a.u.
     unit-cell volume          =     279.1332 (a.u.)^3
     number of atoms/cell      =            1
     number of atomic types    =            1
     number of electrons       =         9.00
     number of Kohn-Sham states=            9
     kinetic-energy cutoff     =      40.0000  Ry
     charge density cutoff     =     320.0000  Ry
     convergence threshold     =      1.0E-08
     mixing beta               =       0.7000
     number of iterations used =            8  plain     mixing
     Exchange-correlation      = SLA  PW   PBE  PBE ( 1  4  3  4 0 0)

     celldm(1)=  10.374260  celldm(2)=   0.000000  celldm(3)=   0.000000
     celldm(4)=   0.000000  celldm(5)=   0.000000  celldm(6)=   0.000000

     crystal axes: (cart. coord. in units of alat)
               a(1) = (  -0.500000   0.000000   0.500000 )  
               a(2) = (   0.000000   0.500000   0.500000 )  
               a(3) = (  -0.500000   0.500000   0.000000 )  

     reciprocal axes: (cart. coord. in units 2 pi/alat)
               b(1) = ( -1.000000 -1.000000  1.000000 )  
               b(2) = (  1.000000  1.000000  1.000000 )  
               b(3) = ( -1.000000  1.000000 -1.000000 )  


     PseudoPot. # 1 for Na read from file:
     /home/s1333534/quantum_espresso/qe-6.1/pseudo/Na_pbe_v1.uspp.F.UPF
     MD5 check sum: 76a99c7e9422403d3e93cbc85ab7bccb
     Pseudo is Ultrasoft, Zval =  9.0
     Generated by new atomic code, or converted to UPF format
     Using radial grid of  819 points,  5 beta functions with: 
                l(1) =   0
                l(2) =   0
                l(3) =   1
                l(4) =   1
                l(5) =   2
     Q(r) pseudized with  8 coefficients,  rinner =    1.250   1.250   1.250
                                                       1.250   1.250

     atomic species   valence    mass     pseudopotential
        Na             9.00    22.99000     Na( 1.00)

     48 Sym. Ops., with inversion, found



   Cartesian axes

     site n.     atom                  positions (alat units)
         1           Na  tau(   1) = (   0.0000000   0.0000000   0.0000000  )

     number of k points=   280  Marzari-Vanderbilt smearing, width (Ry)=  0.0200

     Number of k-points >= 100: set verbosity='high' to print them.

     Dense  grid:    26933 G-vectors     FFT dimensions: (  45,  45,  45)

     Smooth grid:     9577 G-vectors     FFT dimensions: (  30,  30,  30)

     Estimated max dynamical RAM per process >      16.26MB

     Estimated total allocated dynamical RAM >      65.04MB

     Initial potential from superposition of free atoms

     starting charge    8.99371, renormalised to    9.00000
     Starting wfc are    5 randomized atomic wfcs +    4 random wfc

     total cpu time spent up to now is        1.1 secs

     per-process dynamical memory:    21.8 Mb

     Self-consistent Calculation

     iteration #  1     ecut=    40.00 Ry     beta=0.70
     Davidson diagonalization with overlap
     ethr =  1.00E-02,  avg # of iterations =  5.5

     Threshold (ethr) on eigenvalues was too large:
     Diagonalizing with lowered threshold

     Davidson diagonalization with overlap
     ethr =  9.68E-06,  avg # of iterations =  4.4

     total cpu time spent up to now is        7.5 secs

     total energy              =     -95.10573807 Ry
     Harris-Foulkes estimate   =     -95.10588275 Ry
     estimated scf accuracy    <       0.00087077 Ry

     iteration #  2     ecut=    40.00 Ry     beta=0.70
     Davidson diagonalization with overlap
     ethr =  9.68E-06,  avg # of iterations =  1.8

     total cpu time spent up to now is        9.5 secs

     total energy              =     -95.10582771 Ry
     Harris-Foulkes estimate   =     -95.10584512 Ry
     estimated scf accuracy    <       0.00009408 Ry

     iteration #  3     ecut=    40.00 Ry     beta=0.70
     Davidson diagonalization with overlap
     ethr =  1.05E-06,  avg # of iterations =  2.0

     total cpu time spent up to now is       11.7 secs

     total energy              =     -95.10584019 Ry
     Harris-Foulkes estimate   =     -95.10584088 Ry
     estimated scf accuracy    <       0.00000550 Ry

     iteration #  4     ecut=    40.00 Ry     beta=0.70
     Davidson diagonalization with overlap
     ethr =  6.11E-08,  avg # of iterations =  1.0

     total cpu time spent up to now is       13.6 secs

     total energy              =     -95.10584074 Ry
     Harris-Foulkes estimate   =     -95.10584069 Ry
     estimated scf accuracy    <       0.00000002 Ry

     iteration #  5     ecut=    40.00 Ry     beta=0.70
     Davidson diagonalization with overlap
     ethr =  2.04E-10,  avg # of iterations =  3.0

     total cpu time spent up to now is       16.2 secs

     End of self-consistent calculation

     Number of k-points >= 100: set verbosity='high' to print the bands.

     the Fermi energy is     1.1739 ev

!    total energy              =     -95.10584077 Ry
     Harris-Foulkes estimate   =     -95.10584076 Ry
     estimated scf accuracy    <          1.5E-09 Ry

     The total energy is the sum of the following terms:

     one-electron contribution =     -90.48848706 Ry
     hartree contribution      =      45.43529380 Ry
     xc contribution           =     -14.25495513 Ry
     ewald contribution        =     -35.79761993 Ry
     smearing contrib. (-TS)   =      -0.00007246 Ry

     convergence has been achieved in   5 iterations


     Computing stress (Cartesian axis) and pressure

          total   stress  (Ry/bohr**3)                   (kbar)     P=   -9.24
  -0.00006284  -0.00000000  -0.00000000         -9.24     -0.00     -0.00
  -0.00000000  -0.00006284   0.00000000         -0.00     -9.24      0.00
  -0.00000000   0.00000000  -0.00006284         -0.00      0.00     -9.24


     Writing output data file na.fcc.save

     init_run     :      0.91s CPU      1.03s WALL (       1 calls)
     electrons    :     14.44s CPU     15.07s WALL (       1 calls)
     stress       :      0.68s CPU      0.68s WALL (       1 calls)

     Called by init_run:
     wfcinit      :      0.70s CPU      0.76s WALL (       1 calls)
     potinit      :      0.03s CPU      0.03s WALL (       1 calls)

     Called by electrons:
     c_bands      :     11.97s CPU     12.48s WALL (       6 calls)
     sum_band     :      2.28s CPU      2.38s WALL (       6 calls)
     v_of_rho     :      0.11s CPU      0.13s WALL (       6 calls)
     newd         :      0.10s CPU      0.11s WALL (       6 calls)
     mix_rho      :      0.01s CPU      0.01s WALL (       6 calls)

     Called by c_bands:
     init_us_2    :      0.50s CPU      0.49s WALL (    3920 calls)
     cegterg      :     11.49s CPU     11.99s WALL (    1680 calls)

     Called by sum_band:
     sum_band:bec :      0.00s CPU      0.01s WALL (    1680 calls)
     addusdens    :      0.12s CPU      0.13s WALL (       6 calls)

     Called by *egterg:
     h_psi        :      9.97s CPU     10.44s WALL (    6938 calls)
     s_psi        :      0.12s CPU      0.11s WALL (    6938 calls)
     g_psi        :      0.05s CPU      0.06s WALL (    4978 calls)
     cdiaghg      :      1.03s CPU      1.08s WALL (    6378 calls)

     Called by h_psi:
     h_psi:pot    :      9.94s CPU     10.39s WALL (    6938 calls)
     h_psi:calbec :      0.23s CPU      0.19s WALL (    6938 calls)
     vloc_psi     :      9.61s CPU     10.06s WALL (    6938 calls)
     add_vuspsi   :      0.08s CPU      0.12s WALL (    6938 calls)

     General routines
     calbec       :      0.34s CPU      0.28s WALL (    8898 calls)
     fft          :      0.05s CPU      0.09s WALL (     101 calls)
     ffts         :      0.00s CPU      0.00s WALL (      12 calls)
     fftw         :     10.11s CPU     10.33s WALL (  100332 calls)
     interpolate  :      0.01s CPU      0.01s WALL (      12 calls)
     davcio       :      0.00s CPU      0.01s WALL (     280 calls)

     Parallel routines
     fft_scatter  :      1.27s CPU      1.83s WALL (  100445 calls)

     PWSCF        :    16.34s CPU        17.21s WALL


   This run was terminated on:  12:15:28  21Dec2017            

=------------------------------------------------------------------------------=
   JOB DONE.
=------------------------------------------------------------------------------=
