
     Program PHONON v.6.1 (svn rev. 13369) starts on 12Feb2018 at 14:17:11 

     This program is part of the open-source Quantum ESPRESSO suite
     for quantum simulation of materials; please cite
         "P. Giannozzi et al., J. Phys.:Condens. Matter 21 395502 (2009);
          URL http://www.quantum-espresso.org", 
     in publications or presentations arising from this work. More details at
     http://www.quantum-espresso.org/quote

     Parallel version (MPI), running on    64 processors
     K-points division:     npool     =       4
     R & G space division:  proc/nbgrp/npool/nimage =      16

     Reading data from directory:
     ./na.fcc.save

   Info: using nr1, nr2, nr3 values from input

   Info: using nr1, nr2, nr3 values from input

     IMPORTANT: XC functional enforced from input :
     Exchange-correlation      = SLA  PW   PBE  PBE ( 1  4  3  4 0 0)
     Any further DFT definition will be discarded
     Please, verify this is what you really want


     Parallelization info
     --------------------
     sticks:   dense  smooth     PW     G-vecs:    dense   smooth      PW
     Min          64      31     10                 1346      475      90
     Max          65      32     11                 1349      478      94
     Sum        1027     511    163                21547     7631    1459



     Dynamical matrices for ( 6, 6, 6)  uniform grid of q-points
     (  16q-points):
       N         xq(1)         xq(2)         xq(3) 
       1   0.000000000   0.000000000   0.000000000
       2  -0.166666667   0.166666667  -0.166666667
       3  -0.333333333   0.333333333  -0.333333333
       4   0.500000000  -0.500000000   0.500000000
       5   0.000000000   0.333333333   0.000000000
       6  -0.166666667   0.500000000  -0.166666667
       7   0.666666667  -0.333333333   0.666666667
       8   0.500000000  -0.166666667   0.500000000
       9   0.333333333   0.000000000   0.333333333
      10   0.000000000   0.666666667   0.000000000
      11   0.833333333  -0.166666667   0.833333333
      12   0.666666667  -0.000000000   0.666666667
      13   0.000000000  -1.000000000   0.000000000
      14   0.666666667  -0.333333333   1.000000000
      15   0.500000000  -0.166666667   0.833333333
      16  -0.333333333  -1.000000000   0.000000000

     Calculation of q =    0.0000000   0.0000000   0.0000000

                                                                                

     bravais-lattice index     =            2
     lattice parameter (alat)  =       9.6000  a.u.
     unit-cell volume          =     221.1840 (a.u.)^3
     number of atoms/cell      =            1
     number of atomic types    =            1
     kinetic-energy cut-off    =      40.0000  Ry
     charge density cut-off    =     320.0000  Ry
     convergence threshold     =      1.0E-16
     beta                      =       0.7000
     number of iterations used =            4
     Exchange-correlation      = SLA  PW   PBE  PBE ( 1  4  3  4 0 0)


     celldm(1)=    9.60000  celldm(2)=    0.00000  celldm(3)=    0.00000
     celldm(4)=    0.00000  celldm(5)=    0.00000  celldm(6)=    0.00000

     crystal axes: (cart. coord. in units of alat)
               a(1) = ( -0.5000  0.0000  0.5000 )  
               a(2) = (  0.0000  0.5000  0.5000 )  
               a(3) = ( -0.5000  0.5000  0.0000 )  

     reciprocal axes: (cart. coord. in units 2 pi/alat)
               b(1) = ( -1.0000 -1.0000  1.0000 )  
               b(2) = (  1.0000  1.0000  1.0000 )  
               b(3) = ( -1.0000  1.0000 -1.0000 )  


     Atoms inside the unit cell: 

     Cartesian axes

     site n.  atom      mass           positions (alat units)
        1     Na  22.9900   tau(    1) = (    0.00000    0.00000    0.00000  )

     Computing dynamical matrix for 
                    q = (   0.0000000   0.0000000   0.0000000 )

     49 Sym.Ops. (with q -> -q+G )


     G cutoff =  747.0208  (   1347 G-vectors)     FFT grid: ( 40, 40, 40)
     G cutoff =  373.5104  (    476 G-vectors)  smooth grid: ( 27, 27, 27)

     number of k points=   770  Marzari-Vanderbilt smearing, width (Ry)=  0.0200

     PseudoPot. # 1 for Na read from file:
     /home/s1333534/quantum_espresso/qe-6.1/pseudo/Na_pbe_v1.uspp.F.UPF
     MD5 check sum: 76a99c7e9422403d3e93cbc85ab7bccb
     Pseudo is Ultrasoft, Zval =  9.0
     Generated by new atomic code, or converted to UPF format
     Using radial grid of  819 points,  5 beta functions with: 
                l(1) =   0
                l(2) =   0
                l(3) =   1
                l(4) =   1
                l(5) =   2
     Q(r) pseudized with  8 coefficients,  rinner =    1.250   1.250   1.250
                                                       1.250   1.250

     Mode symmetry, O_h (m-3m)  point group:


     Atomic displacements:
     There are   1 irreducible representations

     Representation     1      3 modes -T_1u G_15  G_4-  To be done



     Alpha used in Ewald sum =   2.8000
     PHONON       :     7.43s CPU         7.94s WALL



     Representation #  1 modes #   1  2  3

     Self-consistent Calculation

     Pert. #  1: Fermi energy shift (Ry) =     1.7233E-24    -1.5673E-37
     Pert. #  2: Fermi energy shift (Ry) =    -1.7233E-24     1.5673E-37
     Pert. #  3: Fermi energy shift (Ry) =    -8.6165E-26     3.7616E-37

      iter #   1 total cpu time :    17.4 secs   av.it.:   5.4
      thresh= 1.000E-02 alpha_mix =  0.700 |ddv_scf|^2 =  1.076E-06

     Pert. #  1: Fermi energy shift (Ry) =    -5.6007E-26     2.4489E-40
     Pert. #  2: Fermi energy shift (Ry) =    -5.3853E-26     4.2857E-40
     Pert. #  3: Fermi energy shift (Ry) =     6.6778E-26    -4.8979E-40

      iter #   2 total cpu time :    28.5 secs   av.it.:   8.4
      thresh= 1.037E-04 alpha_mix =  0.700 |ddv_scf|^2 =  2.028E-08

     Pert. #  1: Fermi energy shift (Ry) =     2.5849E-26    -1.5306E-40
     Pert. #  2: Fermi energy shift (Ry) =     3.0158E-26    -1.4923E-40
     Pert. #  3: Fermi energy shift (Ry) =     8.6165E-27    -3.0612E-41

      iter #   3 total cpu time :    40.2 secs   av.it.:   8.6
      thresh= 1.424E-05 alpha_mix =  0.700 |ddv_scf|^2 =  3.528E-10

     Pert. #  1: Fermi energy shift (Ry) =     3.8774E-26     3.8265E-42
     Pert. #  2: Fermi energy shift (Ry) =     1.0771E-26     3.2525E-41
     Pert. #  3: Fermi energy shift (Ry) =    -3.2312E-26    -5.7397E-41

      iter #   4 total cpu time :    50.9 secs   av.it.:   8.0
      thresh= 1.878E-06 alpha_mix =  0.700 |ddv_scf|^2 =  1.259E-12

     Pert. #  1: Fermi energy shift (Ry) =     2.1541E-26    -4.7831E-43
     Pert. #  2: Fermi energy shift (Ry) =     0.0000E+00     0.0000E+00
     Pert. #  3: Fermi energy shift (Ry) =     2.5849E-26    -1.4349E-42

      iter #   5 total cpu time :    62.3 secs   av.it.:   8.5
      thresh= 1.122E-07 alpha_mix =  0.700 |ddv_scf|^2 =  2.936E-15

     Pert. #  1: Fermi energy shift (Ry) =    -8.6165E-27     8.6694E-43
     Pert. #  2: Fermi energy shift (Ry) =     1.0771E-26     1.1958E-43
     Pert. #  3: Fermi energy shift (Ry) =    -6.4623E-27    -2.9894E-43

      iter #   6 total cpu time :    73.2 secs   av.it.:   8.1
      thresh= 5.419E-09 alpha_mix =  0.700 |ddv_scf|^2 =  5.868E-17

     End of self-consistent calculation

     Convergence has been achieved 

     Number of q in the star =    1
     List of q in the star:
          1   0.000000000   0.000000000   0.000000000

     Diagonalizing the dynamical matrix

     q = (    0.000000000   0.000000000   0.000000000 ) 

 **************************************************************************
     freq (    1) =      -0.369606 [THz] =     -12.328745 [cm-1]
     freq (    2) =      -0.369606 [THz] =     -12.328745 [cm-1]
     freq (    3) =      -0.369606 [THz] =     -12.328745 [cm-1]
 **************************************************************************

     Mode symmetry, O_h (m-3m)  point group:

     freq (  1 -  3) =        -12.3  [cm-1]   --> T_1u G_15  G_4- I  

     Calculation of q =   -0.1666667   0.1666667  -0.1666667

   Info: using nr1, nr2, nr3 values from input

   Info: using nr1, nr2, nr3 values from input

     Parallelization info
     --------------------
     sticks:   dense  smooth     PW     G-vecs:    dense   smooth      PW
     Min          64      31     11                 1346      475     101
     Max          65      32     12                 1349      478     103
     Sum        1027     511    187                21547     7631    1639



     bravais-lattice index     =            2
     lattice parameter (alat)  =       9.6000  a.u.
     unit-cell volume          =     221.1840 (a.u.)^3
     number of atoms/cell      =            1
     number of atomic types    =            1
     number of electrons       =         9.00
     number of Kohn-Sham states=            9
     kinetic-energy cutoff     =      40.0000  Ry
     charge density cutoff     =     320.0000  Ry
     Exchange-correlation      = SLA  PW   PBE  PBE ( 1  4  3  4 0 0)

     celldm(1)=   9.600000  celldm(2)=   0.000000  celldm(3)=   0.000000
     celldm(4)=   0.000000  celldm(5)=   0.000000  celldm(6)=   0.000000

     crystal axes: (cart. coord. in units of alat)
               a(1) = (  -0.500000   0.000000   0.500000 )  
               a(2) = (   0.000000   0.500000   0.500000 )  
               a(3) = (  -0.500000   0.500000   0.000000 )  

     reciprocal axes: (cart. coord. in units 2 pi/alat)
               b(1) = ( -1.000000 -1.000000  1.000000 )  
               b(2) = (  1.000000  1.000000  1.000000 )  
               b(3) = ( -1.000000  1.000000 -1.000000 )  


     PseudoPot. # 1 for Na read from file:
     /home/s1333534/quantum_espresso/qe-6.1/pseudo/Na_pbe_v1.uspp.F.UPF
     MD5 check sum: 76a99c7e9422403d3e93cbc85ab7bccb
     Pseudo is Ultrasoft, Zval =  9.0
     Generated by new atomic code, or converted to UPF format
     Using radial grid of  819 points,  5 beta functions with: 
                l(1) =   0
                l(2) =   0
                l(3) =   1
                l(4) =   1
                l(5) =   2
     Q(r) pseudized with  8 coefficients,  rinner =    1.250   1.250   1.250
                                                       1.250   1.250

     atomic species   valence    mass     pseudopotential
        Na             9.00    22.99000     Na( 1.00)

     48 Sym. Ops., with inversion, found



   Cartesian axes

     site n.     atom                  positions (alat units)
         1           Na  tau(   1) = (   0.0000000   0.0000000   0.0000000  )

     number of k points= 11480  Marzari-Vanderbilt smearing, width (Ry)=  0.0200

     Number of k-points >= 100: set verbosity='high' to print them.

     Dense  grid:    21547 G-vectors     FFT dimensions: (  40,  40,  40)

     Smooth grid:     7631 G-vectors     FFT dimensions: (  27,  27,  27)

     Estimated max dynamical RAM per process >       0.74MB

     Estimated total allocated dynamical RAM >      47.34MB

     The potential is recalculated from file :
     ./_ph0/na.fcc.save/charge-density.dat

     Starting wfc are    5 atomic +    4 random wfc

     Band Structure Calculation
     Davidson diagonalization with overlap

     ethr =  1.11E-10,  avg # of iterations = 19.0

     total cpu time spent up to now is      174.2 secs

     End of band structure calculation

     Number of k-points >= 100: set verbosity='high' to print the bands.

     the Fermi energy is     2.1510 ev

     Writing output data file na.fcc.save

                                                                                

     bravais-lattice index     =            2
     lattice parameter (alat)  =       9.6000  a.u.
     unit-cell volume          =     221.1840 (a.u.)^3
     number of atoms/cell      =            1
     number of atomic types    =            1
     kinetic-energy cut-off    =      40.0000  Ry
     charge density cut-off    =     320.0000  Ry
     convergence threshold     =      1.0E-16
     beta                      =       0.7000
     number of iterations used =            4
     Exchange-correlation      = SLA  PW   PBE  PBE ( 1  4  3  4 0 0)


     celldm(1)=    9.60000  celldm(2)=    0.00000  celldm(3)=    0.00000
     celldm(4)=    0.00000  celldm(5)=    0.00000  celldm(6)=    0.00000

     crystal axes: (cart. coord. in units of alat)
               a(1) = ( -0.5000  0.0000  0.5000 )  
               a(2) = (  0.0000  0.5000  0.5000 )  
               a(3) = ( -0.5000  0.5000  0.0000 )  

     reciprocal axes: (cart. coord. in units 2 pi/alat)
               b(1) = ( -1.0000 -1.0000  1.0000 )  
               b(2) = (  1.0000  1.0000  1.0000 )  
               b(3) = ( -1.0000  1.0000 -1.0000 )  


     Atoms inside the unit cell: 

     Cartesian axes

     site n.  atom      mass           positions (alat units)
        1     Na  22.9900   tau(    1) = (    0.00000    0.00000    0.00000  )

     Computing dynamical matrix for 
                    q = (  -0.1666667   0.1666667  -0.1666667 )

      6 Sym.Ops. (no q -> -q+G )


     G cutoff =  747.0208  (   1347 G-vectors)     FFT grid: ( 40, 40, 40)
     G cutoff =  373.5104  (    476 G-vectors)  smooth grid: ( 27, 27, 27)

     number of k points= 11480  Marzari-Vanderbilt smearing, width (Ry)=  0.0200

     PseudoPot. # 1 for Na read from file:
     /home/s1333534/quantum_espresso/qe-6.1/pseudo/Na_pbe_v1.uspp.F.UPF
     MD5 check sum: 76a99c7e9422403d3e93cbc85ab7bccb
     Pseudo is Ultrasoft, Zval =  9.0
     Generated by new atomic code, or converted to UPF format
     Using radial grid of  819 points,  5 beta functions with: 
                l(1) =   0
                l(2) =   0
                l(3) =   1
                l(4) =   1
                l(5) =   2
     Q(r) pseudized with  8 coefficients,  rinner =    1.250   1.250   1.250
                                                       1.250   1.250

     Mode symmetry, C_3v (3m)   point group:


     Atomic displacements:
     There are   2 irreducible representations

     Representation     1      1 modes -A_1  L_1  To be done

     Representation     2      2 modes -E    L_3  To be done



     Alpha used in Ewald sum =   2.8000
     PHONON       :  4m32.76s CPU     4m49.86s WALL



     Representation #  1 mode #   1

     Self-consistent Calculation

      iter #   1 total cpu time :   312.1 secs   av.it.:   5.7
      thresh= 1.000E-02 alpha_mix =  0.700 |ddv_scf|^2 =  2.980E-02

      iter #   2 total cpu time :   333.0 secs   av.it.:   6.5
      thresh= 1.000E-02 alpha_mix =  0.700 |ddv_scf|^2 =  4.697E+00

      iter #   3 total cpu time :   355.8 secs   av.it.:   6.5
      thresh= 1.000E-02 alpha_mix =  0.700 |ddv_scf|^2 =  1.873E-07

      iter #   4 total cpu time :   381.7 secs   av.it.:   8.3
      thresh= 4.328E-05 alpha_mix =  0.700 |ddv_scf|^2 =  4.994E-08

      iter #   5 total cpu time :   406.4 secs   av.it.:   7.5
      thresh= 2.235E-05 alpha_mix =  0.700 |ddv_scf|^2 =  3.911E-09

      iter #   6 total cpu time :   429.6 secs   av.it.:   7.5
      thresh= 6.254E-06 alpha_mix =  0.700 |ddv_scf|^2 =  1.226E-08

      iter #   7 total cpu time :   445.3 secs   av.it.:   4.3
      thresh= 1.107E-05 alpha_mix =  0.700 |ddv_scf|^2 =  9.047E-10

      iter #   8 total cpu time :   467.7 secs   av.it.:   7.2
      thresh= 3.008E-06 alpha_mix =  0.700 |ddv_scf|^2 =  3.212E-11

      iter #   9 total cpu time :   492.3 secs   av.it.:   7.3
      thresh= 5.668E-07 alpha_mix =  0.700 |ddv_scf|^2 =  1.297E-12

      iter #  10 total cpu time :   515.0 secs   av.it.:   7.3
      thresh= 1.139E-07 alpha_mix =  0.700 |ddv_scf|^2 =  1.303E-13

      iter #  11 total cpu time :   537.4 secs   av.it.:   7.2
      thresh= 3.610E-08 alpha_mix =  0.700 |ddv_scf|^2 =  5.751E-16

      iter #  12 total cpu time :   561.8 secs   av.it.:   7.8
      thresh= 2.398E-09 alpha_mix =  0.700 |ddv_scf|^2 =  3.312E-16

      iter #  13 total cpu time :   584.9 secs   av.it.:   7.0
      thresh= 1.820E-09 alpha_mix =  0.700 |ddv_scf|^2 =  7.093E-15

      iter #  14 total cpu time :   604.1 secs   av.it.:   5.8
      thresh= 8.422E-09 alpha_mix =  0.700 |ddv_scf|^2 =  3.587E-18

     End of self-consistent calculation

     Convergence has been achieved 


     Representation #  2 modes #   2  3

     Self-consistent Calculation

      iter #   1 total cpu time :   647.3 secs   av.it.:   5.5
      thresh= 1.000E-02 alpha_mix =  0.700 |ddv_scf|^2 =  2.461E-06

      iter #   2 total cpu time :   700.2 secs   av.it.:   8.5
      thresh= 1.569E-04 alpha_mix =  0.700 |ddv_scf|^2 =  4.532E-08

      iter #   3 total cpu time :   752.9 secs   av.it.:   8.6
      thresh= 2.129E-05 alpha_mix =  0.700 |ddv_scf|^2 =  9.130E-10

      iter #   4 total cpu time :   804.3 secs   av.it.:   8.4
      thresh= 3.022E-06 alpha_mix =  0.700 |ddv_scf|^2 =  3.215E-12

      iter #   5 total cpu time :   855.7 secs   av.it.:   8.6
      thresh= 1.793E-07 alpha_mix =  0.700 |ddv_scf|^2 =  6.522E-15

      iter #   6 total cpu time :   904.9 secs   av.it.:   8.2
      thresh= 8.076E-09 alpha_mix =  0.700 |ddv_scf|^2 =  1.759E-16

      iter #   7 total cpu time :   956.1 secs   av.it.:   8.6
      thresh= 1.326E-09 alpha_mix =  0.700 |ddv_scf|^2 =  1.638E-19

     End of self-consistent calculation

     Convergence has been achieved 

     Number of q in the star =    8
     List of q in the star:
          1  -0.166666667   0.166666667  -0.166666667
          2   0.166666667   0.166666667   0.166666667
          3  -0.166666667  -0.166666667  -0.166666667
          4   0.166666667  -0.166666667   0.166666667
          5   0.166666667  -0.166666667  -0.166666667
          6   0.166666667   0.166666667  -0.166666667
          7  -0.166666667  -0.166666667   0.166666667
          8  -0.166666667   0.166666667   0.166666667

     Diagonalizing the dynamical matrix

     q = (   -0.166666667   0.166666667  -0.166666667 ) 

 **************************************************************************
     freq (    1) =       0.912302 [THz] =      30.431115 [cm-1]
     freq (    2) =       0.912302 [THz] =      30.431115 [cm-1]
     freq (    3) =       2.371001 [THz] =      79.088094 [cm-1]
 **************************************************************************

     Mode symmetry, C_3v (3m)   point group:

     freq (  1 -  2) =         30.4  [cm-1]   --> E    L_3           
     freq (  3 -  3) =         79.1  [cm-1]   --> A_1  L_1           

     Calculation of q =   -0.3333333   0.3333333  -0.3333333

   Info: using nr1, nr2, nr3 values from input

   Info: using nr1, nr2, nr3 values from input

     Parallelization info
     --------------------
     sticks:   dense  smooth     PW     G-vecs:    dense   smooth      PW
     Min          64      31     11                 1346      475     103
     Max          65      32     12                 1349      478     106
     Sum        1027     511    187                21547     7631    1687



     bravais-lattice index     =            2
     lattice parameter (alat)  =       9.6000  a.u.
     unit-cell volume          =     221.1840 (a.u.)^3
     number of atoms/cell      =            1
     number of atomic types    =            1
     number of electrons       =         9.00
     number of Kohn-Sham states=            9
     kinetic-energy cutoff     =      40.0000  Ry
     charge density cutoff     =     320.0000  Ry
     Exchange-correlation      = SLA  PW   PBE  PBE ( 1  4  3  4 0 0)

     celldm(1)=   9.600000  celldm(2)=   0.000000  celldm(3)=   0.000000
     celldm(4)=   0.000000  celldm(5)=   0.000000  celldm(6)=   0.000000

     crystal axes: (cart. coord. in units of alat)
               a(1) = (  -0.500000   0.000000   0.500000 )  
               a(2) = (   0.000000   0.500000   0.500000 )  
               a(3) = (  -0.500000   0.500000   0.000000 )  

     reciprocal axes: (cart. coord. in units 2 pi/alat)
               b(1) = ( -1.000000 -1.000000  1.000000 )  
               b(2) = (  1.000000  1.000000  1.000000 )  
               b(3) = ( -1.000000  1.000000 -1.000000 )  


     PseudoPot. # 1 for Na read from file:
     /home/s1333534/quantum_espresso/qe-6.1/pseudo/Na_pbe_v1.uspp.F.UPF
     MD5 check sum: 76a99c7e9422403d3e93cbc85ab7bccb
     Pseudo is Ultrasoft, Zval =  9.0
     Generated by new atomic code, or converted to UPF format
     Using radial grid of  819 points,  5 beta functions with: 
                l(1) =   0
                l(2) =   0
                l(3) =   1
                l(4) =   1
                l(5) =   2
     Q(r) pseudized with  8 coefficients,  rinner =    1.250   1.250   1.250
                                                       1.250   1.250

     atomic species   valence    mass     pseudopotential
        Na             9.00    22.99000     Na( 1.00)

     48 Sym. Ops., with inversion, found



   Cartesian axes

     site n.     atom                  positions (alat units)
         1           Na  tau(   1) = (   0.0000000   0.0000000   0.0000000  )

     number of k points= 11480  Marzari-Vanderbilt smearing, width (Ry)=  0.0200

     Number of k-points >= 100: set verbosity='high' to print them.

     Dense  grid:    21547 G-vectors     FFT dimensions: (  40,  40,  40)

     Smooth grid:     7631 G-vectors     FFT dimensions: (  27,  27,  27)

     Estimated max dynamical RAM per process >       0.74MB

     Estimated total allocated dynamical RAM >      47.34MB

     The potential is recalculated from file :
     ./_ph0/na.fcc.save/charge-density.dat

     Starting wfc are    5 atomic +    4 random wfc

     Band Structure Calculation
     Davidson diagonalization with overlap

     ethr =  1.11E-10,  avg # of iterations = 19.0

     total cpu time spent up to now is      380.2 secs

     End of band structure calculation

     Number of k-points >= 100: set verbosity='high' to print the bands.

     the Fermi energy is     2.1510 ev

     Writing output data file na.fcc.save

                                                                                

     bravais-lattice index     =            2
     lattice parameter (alat)  =       9.6000  a.u.
     unit-cell volume          =     221.1840 (a.u.)^3
     number of atoms/cell      =            1
     number of atomic types    =            1
     kinetic-energy cut-off    =      40.0000  Ry
     charge density cut-off    =     320.0000  Ry
     convergence threshold     =      1.0E-16
     beta                      =       0.7000
     number of iterations used =            4
     Exchange-correlation      = SLA  PW   PBE  PBE ( 1  4  3  4 0 0)


     celldm(1)=    9.60000  celldm(2)=    0.00000  celldm(3)=    0.00000
     celldm(4)=    0.00000  celldm(5)=    0.00000  celldm(6)=    0.00000

     crystal axes: (cart. coord. in units of alat)
               a(1) = ( -0.5000  0.0000  0.5000 )  
               a(2) = (  0.0000  0.5000  0.5000 )  
               a(3) = ( -0.5000  0.5000  0.0000 )  

     reciprocal axes: (cart. coord. in units 2 pi/alat)
               b(1) = ( -1.0000 -1.0000  1.0000 )  
               b(2) = (  1.0000  1.0000  1.0000 )  
               b(3) = ( -1.0000  1.0000 -1.0000 )  


     Atoms inside the unit cell: 

     Cartesian axes

     site n.  atom      mass           positions (alat units)
        1     Na  22.9900   tau(    1) = (    0.00000    0.00000    0.00000  )

     Computing dynamical matrix for 
                    q = (  -0.3333333   0.3333333  -0.3333333 )

      6 Sym.Ops. (no q -> -q+G )


     G cutoff =  747.0208  (   1347 G-vectors)     FFT grid: ( 40, 40, 40)
     G cutoff =  373.5104  (    476 G-vectors)  smooth grid: ( 27, 27, 27)

     number of k points= 11480  Marzari-Vanderbilt smearing, width (Ry)=  0.0200

     PseudoPot. # 1 for Na read from file:
     /home/s1333534/quantum_espresso/qe-6.1/pseudo/Na_pbe_v1.uspp.F.UPF
     MD5 check sum: 76a99c7e9422403d3e93cbc85ab7bccb
     Pseudo is Ultrasoft, Zval =  9.0
     Generated by new atomic code, or converted to UPF format
     Using radial grid of  819 points,  5 beta functions with: 
                l(1) =   0
                l(2) =   0
                l(3) =   1
                l(4) =   1
                l(5) =   2
     Q(r) pseudized with  8 coefficients,  rinner =    1.250   1.250   1.250
                                                       1.250   1.250

     Mode symmetry, C_3v (3m)   point group:


     Atomic displacements:
     There are   2 irreducible representations

     Representation     1      1 modes -A_1  L_1  To be done

     Representation     2      2 modes -E    L_3  To be done



     Alpha used in Ewald sum =   2.8000
     PHONON       : 17m59.72s CPU    19m32.58s WALL



     Representation #  1 mode #   1

     Self-consistent Calculation

      iter #   1 total cpu time :  1194.9 secs   av.it.:   5.7
      thresh= 1.000E-02 alpha_mix =  0.700 |ddv_scf|^2 =  5.040E-04

      iter #   2 total cpu time :  1217.0 secs   av.it.:   6.8
      thresh= 2.245E-03 alpha_mix =  0.700 |ddv_scf|^2 =  3.170E-03

      iter #   3 total cpu time :  1236.9 secs   av.it.:   5.8
      thresh= 5.630E-03 alpha_mix =  0.700 |ddv_scf|^2 =  5.601E-07

      iter #   4 total cpu time :  1261.3 secs   av.it.:   7.8
      thresh= 7.484E-05 alpha_mix =  0.700 |ddv_scf|^2 =  8.615E-09

      iter #   5 total cpu time :  1286.4 secs   av.it.:   8.3
      thresh= 9.282E-06 alpha_mix =  0.700 |ddv_scf|^2 =  3.785E-10

      iter #   6 total cpu time :  1311.8 secs   av.it.:   8.2
      thresh= 1.945E-06 alpha_mix =  0.700 |ddv_scf|^2 =  1.880E-11

      iter #   7 total cpu time :  1336.7 secs   av.it.:   7.8
      thresh= 4.336E-07 alpha_mix =  0.700 |ddv_scf|^2 =  5.538E-13

      iter #   8 total cpu time :  1361.4 secs   av.it.:   8.1
      thresh= 7.441E-08 alpha_mix =  0.700 |ddv_scf|^2 =  4.198E-15

      iter #   9 total cpu time :  1385.0 secs   av.it.:   7.7
      thresh= 6.479E-09 alpha_mix =  0.700 |ddv_scf|^2 =  1.848E-14

      iter #  10 total cpu time :  1405.6 secs   av.it.:   6.1
      thresh= 1.359E-08 alpha_mix =  0.700 |ddv_scf|^2 =  2.488E-16

      iter #  11 total cpu time :  1430.4 secs   av.it.:   7.7
      thresh= 1.577E-09 alpha_mix =  0.700 |ddv_scf|^2 =  4.752E-17

     End of self-consistent calculation

     Convergence has been achieved 


     Representation #  2 modes #   2  3

     Self-consistent Calculation

      iter #   1 total cpu time :  1474.6 secs   av.it.:   5.6
      thresh= 1.000E-02 alpha_mix =  0.700 |ddv_scf|^2 =  2.539E-06

      iter #   2 total cpu time :  1526.2 secs   av.it.:   8.5
      thresh= 1.594E-04 alpha_mix =  0.700 |ddv_scf|^2 =  4.489E-08

      iter #   3 total cpu time :  1577.1 secs   av.it.:   8.7
      thresh= 2.119E-05 alpha_mix =  0.700 |ddv_scf|^2 =  1.131E-09

      iter #   4 total cpu time :  1628.3 secs   av.it.:   8.4
      thresh= 3.363E-06 alpha_mix =  0.700 |ddv_scf|^2 =  3.914E-12

      iter #   5 total cpu time :  1679.9 secs   av.it.:   8.7
      thresh= 1.978E-07 alpha_mix =  0.700 |ddv_scf|^2 =  6.686E-15

      iter #   6 total cpu time :  1729.0 secs   av.it.:   8.1
      thresh= 8.177E-09 alpha_mix =  0.700 |ddv_scf|^2 =  2.480E-16

      iter #   7 total cpu time :  1780.2 secs   av.it.:   8.6
      thresh= 1.575E-09 alpha_mix =  0.700 |ddv_scf|^2 =  2.756E-19

     End of self-consistent calculation

     Convergence has been achieved 

     Number of q in the star =    8
     List of q in the star:
          1  -0.333333333   0.333333333  -0.333333333
          2   0.333333333   0.333333333   0.333333333
          3  -0.333333333  -0.333333333  -0.333333333
          4   0.333333333  -0.333333333   0.333333333
          5   0.333333333  -0.333333333  -0.333333333
          6   0.333333333   0.333333333  -0.333333333
          7  -0.333333333  -0.333333333   0.333333333
          8  -0.333333333   0.333333333   0.333333333

     Diagonalizing the dynamical matrix

     q = (   -0.333333333   0.333333333  -0.333333333 ) 

 **************************************************************************
     freq (    1) =       1.578254 [THz] =      52.644870 [cm-1]
     freq (    2) =       1.578254 [THz] =      52.644870 [cm-1]
     freq (    3) =       4.062758 [THz] =     135.519004 [cm-1]
 **************************************************************************

     Mode symmetry, C_3v (3m)   point group:

     freq (  1 -  2) =         52.6  [cm-1]   --> E    L_3           
     freq (  3 -  3) =        135.5  [cm-1]   --> A_1  L_1           

     Calculation of q =    0.5000000  -0.5000000   0.5000000

   Info: using nr1, nr2, nr3 values from input

   Info: using nr1, nr2, nr3 values from input

     Parallelization info
     --------------------
     sticks:   dense  smooth     PW     G-vecs:    dense   smooth      PW
     Min          64      31     12                 1346      475     113
     Max          65      32     13                 1349      478     116
     Sum        1027     511    199                21547     7631    1837



     bravais-lattice index     =            2
     lattice parameter (alat)  =       9.6000  a.u.
     unit-cell volume          =     221.1840 (a.u.)^3
     number of atoms/cell      =            1
     number of atomic types    =            1
     number of electrons       =         9.00
     number of Kohn-Sham states=            9
     kinetic-energy cutoff     =      40.0000  Ry
     charge density cutoff     =     320.0000  Ry
     Exchange-correlation      = SLA  PW   PBE  PBE ( 1  4  3  4 0 0)

     celldm(1)=   9.600000  celldm(2)=   0.000000  celldm(3)=   0.000000
     celldm(4)=   0.000000  celldm(5)=   0.000000  celldm(6)=   0.000000

     crystal axes: (cart. coord. in units of alat)
               a(1) = (  -0.500000   0.000000   0.500000 )  
               a(2) = (   0.000000   0.500000   0.500000 )  
               a(3) = (  -0.500000   0.500000   0.000000 )  

     reciprocal axes: (cart. coord. in units 2 pi/alat)
               b(1) = ( -1.000000 -1.000000  1.000000 )  
               b(2) = (  1.000000  1.000000  1.000000 )  
               b(3) = ( -1.000000  1.000000 -1.000000 )  


     PseudoPot. # 1 for Na read from file:
     /home/s1333534/quantum_espresso/qe-6.1/pseudo/Na_pbe_v1.uspp.F.UPF
     MD5 check sum: 76a99c7e9422403d3e93cbc85ab7bccb
     Pseudo is Ultrasoft, Zval =  9.0
     Generated by new atomic code, or converted to UPF format
     Using radial grid of  819 points,  5 beta functions with: 
                l(1) =   0
                l(2) =   0
                l(3) =   1
                l(4) =   1
                l(5) =   2
     Q(r) pseudized with  8 coefficients,  rinner =    1.250   1.250   1.250
                                                       1.250   1.250

     atomic species   valence    mass     pseudopotential
        Na             9.00    22.99000     Na( 1.00)

     48 Sym. Ops., with inversion, found



   Cartesian axes

     site n.     atom                  positions (alat units)
         1           Na  tau(   1) = (   0.0000000   0.0000000   0.0000000  )

     number of k points=  5740  Marzari-Vanderbilt smearing, width (Ry)=  0.0200

     Number of k-points >= 100: set verbosity='high' to print them.

     Dense  grid:    21547 G-vectors     FFT dimensions: (  40,  40,  40)

     Smooth grid:     7631 G-vectors     FFT dimensions: (  27,  27,  27)

     Estimated max dynamical RAM per process >       0.74MB

     Estimated total allocated dynamical RAM >      47.34MB

     The potential is recalculated from file :
     ./_ph0/na.fcc.save/charge-density.dat

     Starting wfc are    5 atomic +    4 random wfc

     Band Structure Calculation
     Davidson diagonalization with overlap

     ethr =  1.11E-10,  avg # of iterations = 19.0

     total cpu time spent up to now is      502.7 secs

     End of band structure calculation

     Number of k-points >= 100: set verbosity='high' to print the bands.

     the Fermi energy is     2.1510 ev

     Writing output data file na.fcc.save

                                                                                

     bravais-lattice index     =            2
     lattice parameter (alat)  =       9.6000  a.u.
     unit-cell volume          =     221.1840 (a.u.)^3
     number of atoms/cell      =            1
     number of atomic types    =            1
     kinetic-energy cut-off    =      40.0000  Ry
     charge density cut-off    =     320.0000  Ry
     convergence threshold     =      1.0E-16
     beta                      =       0.7000
     number of iterations used =            4
     Exchange-correlation      = SLA  PW   PBE  PBE ( 1  4  3  4 0 0)


     celldm(1)=    9.60000  celldm(2)=    0.00000  celldm(3)=    0.00000
     celldm(4)=    0.00000  celldm(5)=    0.00000  celldm(6)=    0.00000

     crystal axes: (cart. coord. in units of alat)
               a(1) = ( -0.5000  0.0000  0.5000 )  
               a(2) = (  0.0000  0.5000  0.5000 )  
               a(3) = ( -0.5000  0.5000  0.0000 )  

     reciprocal axes: (cart. coord. in units 2 pi/alat)
               b(1) = ( -1.0000 -1.0000  1.0000 )  
               b(2) = (  1.0000  1.0000  1.0000 )  
               b(3) = ( -1.0000  1.0000 -1.0000 )  


     Atoms inside the unit cell: 

     Cartesian axes

     site n.  atom      mass           positions (alat units)
        1     Na  22.9900   tau(    1) = (    0.00000    0.00000    0.00000  )

     Computing dynamical matrix for 
                    q = (   0.5000000  -0.5000000   0.5000000 )

     13 Sym.Ops. (with q -> -q+G )


     G cutoff =  747.0208  (   1347 G-vectors)     FFT grid: ( 40, 40, 40)
     G cutoff =  373.5104  (    476 G-vectors)  smooth grid: ( 27, 27, 27)

     number of k points=  5740  Marzari-Vanderbilt smearing, width (Ry)=  0.0200

     PseudoPot. # 1 for Na read from file:
     /home/s1333534/quantum_espresso/qe-6.1/pseudo/Na_pbe_v1.uspp.F.UPF
     MD5 check sum: 76a99c7e9422403d3e93cbc85ab7bccb
     Pseudo is Ultrasoft, Zval =  9.0
     Generated by new atomic code, or converted to UPF format
     Using radial grid of  819 points,  5 beta functions with: 
                l(1) =   0
                l(2) =   0
                l(3) =   1
                l(4) =   1
                l(5) =   2
     Q(r) pseudized with  8 coefficients,  rinner =    1.250   1.250   1.250
                                                       1.250   1.250

     Mode symmetry, D_3d (-3m)  point group:


     Atomic displacements:
     There are   2 irreducible representations

     Representation     1      1 modes -A_2u L_2'  To be done

     Representation     2      2 modes -E_u  L_3'  To be done



     Alpha used in Ewald sum =   2.8000
     PHONON       : 28m59.59s CPU    31m31.82s WALL



     Representation #  1 mode #   1

     Self-consistent Calculation

      iter #   1 total cpu time :  1903.5 secs   av.it.:   5.7
      thresh= 1.000E-02 alpha_mix =  0.700 |ddv_scf|^2 =  1.016E-04

      iter #   2 total cpu time :  1915.4 secs   av.it.:   6.9
      thresh= 1.008E-03 alpha_mix =  0.700 |ddv_scf|^2 =  6.139E-05

      iter #   3 total cpu time :  1927.0 secs   av.it.:   6.7
      thresh= 7.835E-04 alpha_mix =  0.700 |ddv_scf|^2 =  7.348E-08

      iter #   4 total cpu time :  1939.9 secs   av.it.:   7.9
      thresh= 2.711E-05 alpha_mix =  0.700 |ddv_scf|^2 =  2.863E-10

      iter #   5 total cpu time :  1951.8 secs   av.it.:   7.0
      thresh= 1.692E-06 alpha_mix =  0.700 |ddv_scf|^2 =  6.263E-12

      iter #   6 total cpu time :  1963.0 secs   av.it.:   6.7
      thresh= 2.503E-07 alpha_mix =  0.700 |ddv_scf|^2 =  1.600E-14

      iter #   7 total cpu time :  1975.0 secs   av.it.:   7.5
      thresh= 1.265E-08 alpha_mix =  0.700 |ddv_scf|^2 =  2.899E-17

     End of self-consistent calculation

     Convergence has been achieved 


     Representation #  2 modes #   2  3

     Self-consistent Calculation

      iter #   1 total cpu time :  1996.8 secs   av.it.:   5.4
      thresh= 1.000E-02 alpha_mix =  0.700 |ddv_scf|^2 =  2.576E-06

      iter #   2 total cpu time :  2023.5 secs   av.it.:   8.4
      thresh= 1.605E-04 alpha_mix =  0.700 |ddv_scf|^2 =  4.475E-08

      iter #   3 total cpu time :  2049.8 secs   av.it.:   8.6
      thresh= 2.115E-05 alpha_mix =  0.700 |ddv_scf|^2 =  1.220E-09

      iter #   4 total cpu time :  2074.9 secs   av.it.:   7.9
      thresh= 3.493E-06 alpha_mix =  0.700 |ddv_scf|^2 =  4.241E-12

      iter #   5 total cpu time :  2100.8 secs   av.it.:   8.3
      thresh= 2.059E-07 alpha_mix =  0.700 |ddv_scf|^2 =  6.869E-15

      iter #   6 total cpu time :  2126.4 secs   av.it.:   7.8
      thresh= 8.288E-09 alpha_mix =  0.700 |ddv_scf|^2 =  2.763E-16

      iter #   7 total cpu time :  2153.0 secs   av.it.:   8.3
      thresh= 1.662E-09 alpha_mix =  0.700 |ddv_scf|^2 =  2.732E-19

     End of self-consistent calculation

     Convergence has been achieved 

     Number of q in the star =    4
     List of q in the star:
          1   0.500000000  -0.500000000   0.500000000
          2   0.500000000   0.500000000   0.500000000
          3  -0.500000000   0.500000000   0.500000000
          4   0.500000000   0.500000000  -0.500000000

     Diagonalizing the dynamical matrix

     q = (    0.500000000  -0.500000000   0.500000000 ) 

 **************************************************************************
     freq (    1) =       1.843617 [THz] =      61.496458 [cm-1]
     freq (    2) =       1.843617 [THz] =      61.496458 [cm-1]
     freq (    3) =       4.680175 [THz] =     156.113842 [cm-1]
 **************************************************************************

     Mode symmetry, D_3d (-3m)  point group:

     freq (  1 -  2) =         61.5  [cm-1]   --> E_u  L_3'          
     freq (  3 -  3) =        156.1  [cm-1]   --> A_2u L_2'          

     Calculation of q =    0.0000000   0.3333333   0.0000000

   Info: using nr1, nr2, nr3 values from input

   Info: using nr1, nr2, nr3 values from input

     Parallelization info
     --------------------
     sticks:   dense  smooth     PW     G-vecs:    dense   smooth      PW
     Min          64      31     11                 1346      475     101
     Max          65      32     12                 1349      478     103
     Sum        1027     511    187                21547     7631    1639



     bravais-lattice index     =            2
     lattice parameter (alat)  =       9.6000  a.u.
     unit-cell volume          =     221.1840 (a.u.)^3
     number of atoms/cell      =            1
     number of atomic types    =            1
     number of electrons       =         9.00
     number of Kohn-Sham states=            9
     kinetic-energy cutoff     =      40.0000  Ry
     charge density cutoff     =     320.0000  Ry
     Exchange-correlation      = SLA  PW   PBE  PBE ( 1  4  3  4 0 0)

     celldm(1)=   9.600000  celldm(2)=   0.000000  celldm(3)=   0.000000
     celldm(4)=   0.000000  celldm(5)=   0.000000  celldm(6)=   0.000000

     crystal axes: (cart. coord. in units of alat)
               a(1) = (  -0.500000   0.000000   0.500000 )  
               a(2) = (   0.000000   0.500000   0.500000 )  
               a(3) = (  -0.500000   0.500000   0.000000 )  

     reciprocal axes: (cart. coord. in units 2 pi/alat)
               b(1) = ( -1.000000 -1.000000  1.000000 )  
               b(2) = (  1.000000  1.000000  1.000000 )  
               b(3) = ( -1.000000  1.000000 -1.000000 )  


     PseudoPot. # 1 for Na read from file:
     /home/s1333534/quantum_espresso/qe-6.1/pseudo/Na_pbe_v1.uspp.F.UPF
     MD5 check sum: 76a99c7e9422403d3e93cbc85ab7bccb
     Pseudo is Ultrasoft, Zval =  9.0
     Generated by new atomic code, or converted to UPF format
     Using radial grid of  819 points,  5 beta functions with: 
                l(1) =   0
                l(2) =   0
                l(3) =   1
                l(4) =   1
                l(5) =   2
     Q(r) pseudized with  8 coefficients,  rinner =    1.250   1.250   1.250
                                                       1.250   1.250

     atomic species   valence    mass     pseudopotential
        Na             9.00    22.99000     Na( 1.00)

     48 Sym. Ops., with inversion, found



   Cartesian axes

     site n.     atom                  positions (alat units)
         1           Na  tau(   1) = (   0.0000000   0.0000000   0.0000000  )

     number of k points=  8400  Marzari-Vanderbilt smearing, width (Ry)=  0.0200

     Number of k-points >= 100: set verbosity='high' to print them.

     Dense  grid:    21547 G-vectors     FFT dimensions: (  40,  40,  40)

     Smooth grid:     7631 G-vectors     FFT dimensions: (  27,  27,  27)

     Estimated max dynamical RAM per process >       0.74MB

     Estimated total allocated dynamical RAM >      47.34MB

     The potential is recalculated from file :
     ./_ph0/na.fcc.save/charge-density.dat

     Starting wfc are    5 atomic +    4 random wfc

     Band Structure Calculation
     Davidson diagonalization with overlap

     ethr =  1.11E-10,  avg # of iterations = 19.0

     total cpu time spent up to now is      644.5 secs

     End of band structure calculation

     Number of k-points >= 100: set verbosity='high' to print the bands.

     the Fermi energy is     2.1510 ev

     Writing output data file na.fcc.save

                                                                                

     bravais-lattice index     =            2
     lattice parameter (alat)  =       9.6000  a.u.
     unit-cell volume          =     221.1840 (a.u.)^3
     number of atoms/cell      =            1
     number of atomic types    =            1
     kinetic-energy cut-off    =      40.0000  Ry
     charge density cut-off    =     320.0000  Ry
     convergence threshold     =      1.0E-16
     beta                      =       0.7000
     number of iterations used =            4
     Exchange-correlation      = SLA  PW   PBE  PBE ( 1  4  3  4 0 0)


     celldm(1)=    9.60000  celldm(2)=    0.00000  celldm(3)=    0.00000
     celldm(4)=    0.00000  celldm(5)=    0.00000  celldm(6)=    0.00000

     crystal axes: (cart. coord. in units of alat)
               a(1) = ( -0.5000  0.0000  0.5000 )  
               a(2) = (  0.0000  0.5000  0.5000 )  
               a(3) = ( -0.5000  0.5000  0.0000 )  

     reciprocal axes: (cart. coord. in units 2 pi/alat)
               b(1) = ( -1.0000 -1.0000  1.0000 )  
               b(2) = (  1.0000  1.0000  1.0000 )  
               b(3) = ( -1.0000  1.0000 -1.0000 )  


     Atoms inside the unit cell: 

     Cartesian axes

     site n.  atom      mass           positions (alat units)
        1     Na  22.9900   tau(    1) = (    0.00000    0.00000    0.00000  )

     Computing dynamical matrix for 
                    q = (   0.0000000   0.3333333   0.0000000 )

      8 Sym.Ops. (no q -> -q+G )


     G cutoff =  747.0208  (   1347 G-vectors)     FFT grid: ( 40, 40, 40)
     G cutoff =  373.5104  (    476 G-vectors)  smooth grid: ( 27, 27, 27)

     number of k points=  8400  Marzari-Vanderbilt smearing, width (Ry)=  0.0200

     PseudoPot. # 1 for Na read from file:
     /home/s1333534/quantum_espresso/qe-6.1/pseudo/Na_pbe_v1.uspp.F.UPF
     MD5 check sum: 76a99c7e9422403d3e93cbc85ab7bccb
     Pseudo is Ultrasoft, Zval =  9.0
     Generated by new atomic code, or converted to UPF format
     Using radial grid of  819 points,  5 beta functions with: 
                l(1) =   0
                l(2) =   0
                l(3) =   1
                l(4) =   1
                l(5) =   2
     Q(r) pseudized with  8 coefficients,  rinner =    1.250   1.250   1.250
                                                       1.250   1.250

     Mode symmetry, C_4v (4mm)  point group:


     Atomic displacements:
     There are   2 irreducible representations

     Representation     1      1 modes -A_1  G_1 D_1  To be done

     Representation     2      2 modes -E    G_5 D_5  To be done



     Alpha used in Ewald sum =   2.8000
     PHONON       : 35m27.75s CPU    38m29.84s WALL



     Representation #  1 mode #   1

     Self-consistent Calculation

      iter #   1 total cpu time :  2326.1 secs   av.it.:   5.7
      thresh= 1.000E-02 alpha_mix =  0.700 |ddv_scf|^2 =  1.275E-02

      iter #   2 total cpu time :  2341.1 secs   av.it.:   6.3
      thresh= 1.000E-02 alpha_mix =  0.700 |ddv_scf|^2 =  1.090E+00

      iter #   3 total cpu time :  2356.8 secs   av.it.:   6.2
      thresh= 1.000E-02 alpha_mix =  0.700 |ddv_scf|^2 =  1.816E-06

      iter #   4 total cpu time :  2373.6 secs   av.it.:   7.5
      thresh= 1.348E-04 alpha_mix =  0.700 |ddv_scf|^2 =  5.561E-08

      iter #   5 total cpu time :  2392.1 secs   av.it.:   7.6
      thresh= 2.358E-05 alpha_mix =  0.700 |ddv_scf|^2 =  1.579E-09

      iter #   6 total cpu time :  2409.2 secs   av.it.:   7.7
      thresh= 3.974E-06 alpha_mix =  0.700 |ddv_scf|^2 =  5.786E-09

      iter #   7 total cpu time :  2421.8 secs   av.it.:   4.8
      thresh= 7.606E-06 alpha_mix =  0.700 |ddv_scf|^2 =  9.289E-10

      iter #   8 total cpu time :  2437.8 secs   av.it.:   6.9
      thresh= 3.048E-06 alpha_mix =  0.700 |ddv_scf|^2 =  4.332E-11

      iter #   9 total cpu time :  2453.5 secs   av.it.:   6.8
      thresh= 6.582E-07 alpha_mix =  0.700 |ddv_scf|^2 =  1.572E-12

      iter #  10 total cpu time :  2469.3 secs   av.it.:   6.8
      thresh= 1.254E-07 alpha_mix =  0.700 |ddv_scf|^2 =  3.991E-14

      iter #  11 total cpu time :  2486.1 secs   av.it.:   7.5
      thresh= 1.998E-08 alpha_mix =  0.700 |ddv_scf|^2 =  3.768E-16

      iter #  12 total cpu time :  2503.6 secs   av.it.:   7.9
      thresh= 1.941E-09 alpha_mix =  0.700 |ddv_scf|^2 =  2.190E-16

      iter #  13 total cpu time :  2520.1 secs   av.it.:   7.2
      thresh= 1.480E-09 alpha_mix =  0.700 |ddv_scf|^2 =  3.243E-15

      iter #  14 total cpu time :  2535.1 secs   av.it.:   6.3
      thresh= 5.695E-09 alpha_mix =  0.700 |ddv_scf|^2 =  2.590E-18

     End of self-consistent calculation

     Convergence has been achieved 


     Representation #  2 modes #   2  3

     Self-consistent Calculation

      iter #   1 total cpu time :  2566.7 secs   av.it.:   5.5
      thresh= 1.000E-02 alpha_mix =  0.700 |ddv_scf|^2 =  2.599E-06

      iter #   2 total cpu time :  2604.8 secs   av.it.:   8.5
      thresh= 1.612E-04 alpha_mix =  0.700 |ddv_scf|^2 =  4.372E-08

      iter #   3 total cpu time :  2642.6 secs   av.it.:   8.6
      thresh= 2.091E-05 alpha_mix =  0.700 |ddv_scf|^2 =  1.428E-09

      iter #   4 total cpu time :  2678.9 secs   av.it.:   8.4
      thresh= 3.779E-06 alpha_mix =  0.700 |ddv_scf|^2 =  4.660E-12

      iter #   5 total cpu time :  2716.6 secs   av.it.:   8.6
      thresh= 2.159E-07 alpha_mix =  0.700 |ddv_scf|^2 =  5.808E-15

      iter #   6 total cpu time :  2753.1 secs   av.it.:   7.9
      thresh= 7.621E-09 alpha_mix =  0.700 |ddv_scf|^2 =  2.532E-16

      iter #   7 total cpu time :  2790.8 secs   av.it.:   8.5
      thresh= 1.591E-09 alpha_mix =  0.700 |ddv_scf|^2 =  1.595E-19

     End of self-consistent calculation

     Convergence has been achieved 

     Number of q in the star =    6
     List of q in the star:
          1   0.000000000   0.333333333   0.000000000
          2   0.333333333   0.000000000   0.000000000
          3   0.000000000   0.000000000   0.333333333
          4   0.000000000  -0.333333333   0.000000000
          5  -0.333333333   0.000000000   0.000000000
          6   0.000000000   0.000000000  -0.333333333

     Diagonalizing the dynamical matrix

     q = (    0.000000000   0.333333333   0.000000000 ) 

 **************************************************************************
     freq (    1) =       1.604119 [THz] =      53.507665 [cm-1]
     freq (    2) =       1.604119 [THz] =      53.507665 [cm-1]
     freq (    3) =       2.177120 [THz] =      72.620901 [cm-1]
 **************************************************************************

     Mode symmetry, C_4v (4mm)  point group:

     freq (  1 -  2) =         53.5  [cm-1]   --> E    G_5 D_5       
     freq (  3 -  3) =         72.6  [cm-1]   --> A_1  G_1 D_1       

     Calculation of q =   -0.1666667   0.5000000  -0.1666667

   Info: using nr1, nr2, nr3 values from input

   Info: using nr1, nr2, nr3 values from input

     Parallelization info
     --------------------
     sticks:   dense  smooth     PW     G-vecs:    dense   smooth      PW
     Min          64      31     12                 1346      475     109
     Max          65      32     14                 1349      478     110
     Sum        1027     511    199                21547     7631    1759



     bravais-lattice index     =            2
     lattice parameter (alat)  =       9.6000  a.u.
     unit-cell volume          =     221.1840 (a.u.)^3
     number of atoms/cell      =            1
     number of atomic types    =            1
     number of electrons       =         9.00
     number of Kohn-Sham states=            9
     kinetic-energy cutoff     =      40.0000  Ry
     charge density cutoff     =     320.0000  Ry
     Exchange-correlation      = SLA  PW   PBE  PBE ( 1  4  3  4 0 0)

     celldm(1)=   9.600000  celldm(2)=   0.000000  celldm(3)=   0.000000
     celldm(4)=   0.000000  celldm(5)=   0.000000  celldm(6)=   0.000000

     crystal axes: (cart. coord. in units of alat)
               a(1) = (  -0.500000   0.000000   0.500000 )  
               a(2) = (   0.000000   0.500000   0.500000 )  
               a(3) = (  -0.500000   0.500000   0.000000 )  

     reciprocal axes: (cart. coord. in units 2 pi/alat)
               b(1) = ( -1.000000 -1.000000  1.000000 )  
               b(2) = (  1.000000  1.000000  1.000000 )  
               b(3) = ( -1.000000  1.000000 -1.000000 )  


     PseudoPot. # 1 for Na read from file:
     /home/s1333534/quantum_espresso/qe-6.1/pseudo/Na_pbe_v1.uspp.F.UPF
     MD5 check sum: 76a99c7e9422403d3e93cbc85ab7bccb
     Pseudo is Ultrasoft, Zval =  9.0
     Generated by new atomic code, or converted to UPF format
     Using radial grid of  819 points,  5 beta functions with: 
                l(1) =   0
                l(2) =   0
                l(3) =   1
                l(4) =   1
                l(5) =   2
     Q(r) pseudized with  8 coefficients,  rinner =    1.250   1.250   1.250
                                                       1.250   1.250

     atomic species   valence    mass     pseudopotential
        Na             9.00    22.99000     Na( 1.00)

     48 Sym. Ops., with inversion, found



   Cartesian axes

     site n.     atom                  positions (alat units)
         1           Na  tau(   1) = (   0.0000000   0.0000000   0.0000000  )

     number of k points= 32800  Marzari-Vanderbilt smearing, width (Ry)=  0.0200

     Number of k-points >= 100: set verbosity='high' to print them.

     Dense  grid:    21547 G-vectors     FFT dimensions: (  40,  40,  40)

     Smooth grid:     7631 G-vectors     FFT dimensions: (  27,  27,  27)

     Estimated max dynamical RAM per process >       0.74MB

     Estimated total allocated dynamical RAM >      47.34MB

     The potential is recalculated from file :
     ./_ph0/na.fcc.save/charge-density.dat

     Starting wfc are    5 atomic +    4 random wfc

     Band Structure Calculation
     Davidson diagonalization with overlap

     ethr =  1.11E-10,  avg # of iterations = 18.9

     total cpu time spent up to now is     1171.7 secs

     End of band structure calculation

     Number of k-points >= 100: set verbosity='high' to print the bands.

     the Fermi energy is     2.1510 ev

     Writing output data file na.fcc.save

                                                                                

     bravais-lattice index     =            2
     lattice parameter (alat)  =       9.6000  a.u.
     unit-cell volume          =     221.1840 (a.u.)^3
     number of atoms/cell      =            1
     number of atomic types    =            1
     kinetic-energy cut-off    =      40.0000  Ry
     charge density cut-off    =     320.0000  Ry
     convergence threshold     =      1.0E-16
     beta                      =       0.7000
     number of iterations used =            4
     Exchange-correlation      = SLA  PW   PBE  PBE ( 1  4  3  4 0 0)


     celldm(1)=    9.60000  celldm(2)=    0.00000  celldm(3)=    0.00000
     celldm(4)=    0.00000  celldm(5)=    0.00000  celldm(6)=    0.00000

     crystal axes: (cart. coord. in units of alat)
               a(1) = ( -0.5000  0.0000  0.5000 )  
               a(2) = (  0.0000  0.5000  0.5000 )  
               a(3) = ( -0.5000  0.5000  0.0000 )  

     reciprocal axes: (cart. coord. in units 2 pi/alat)
               b(1) = ( -1.0000 -1.0000  1.0000 )  
               b(2) = (  1.0000  1.0000  1.0000 )  
               b(3) = ( -1.0000  1.0000 -1.0000 )  


     Atoms inside the unit cell: 

     Cartesian axes

     site n.  atom      mass           positions (alat units)
        1     Na  22.9900   tau(    1) = (    0.00000    0.00000    0.00000  )

     Computing dynamical matrix for 
                    q = (  -0.1666667   0.5000000  -0.1666667 )

      2 Sym.Ops. (no q -> -q+G )


     G cutoff =  747.0208  (   1347 G-vectors)     FFT grid: ( 40, 40, 40)
     G cutoff =  373.5104  (    476 G-vectors)  smooth grid: ( 27, 27, 27)

     number of k points= 32800  Marzari-Vanderbilt smearing, width (Ry)=  0.0200

     PseudoPot. # 1 for Na read from file:
     /home/s1333534/quantum_espresso/qe-6.1/pseudo/Na_pbe_v1.uspp.F.UPF
     MD5 check sum: 76a99c7e9422403d3e93cbc85ab7bccb
     Pseudo is Ultrasoft, Zval =  9.0
     Generated by new atomic code, or converted to UPF format
     Using radial grid of  819 points,  5 beta functions with: 
                l(1) =   0
                l(2) =   0
                l(3) =   1
                l(4) =   1
                l(5) =   2
     Q(r) pseudized with  8 coefficients,  rinner =    1.250   1.250   1.250
                                                       1.250   1.250

     Mode symmetry, C_s (m)     point group:


     Atomic displacements:
     There are   3 irreducible representations

     Representation     1      1 modes -A'  To be done

     Representation     2      1 modes -A'  To be done

     Representation     3      1 modes -A''  To be done



     Alpha used in Ewald sum =   2.8000
     PHONON       : 52m44.96s CPU    57m 0.18s WALL



     Representation #  1 mode #   1

     Self-consistent Calculation

      iter #   1 total cpu time :  3486.8 secs   av.it.:   5.8
      thresh= 1.000E-02 alpha_mix =  0.700 |ddv_scf|^2 =  5.619E-04

      iter #   2 total cpu time :  3553.3 secs   av.it.:   6.9
      thresh= 2.370E-03 alpha_mix =  0.700 |ddv_scf|^2 =  4.488E-03

      iter #   3 total cpu time :  3611.8 secs   av.it.:   5.7
      thresh= 6.699E-03 alpha_mix =  0.700 |ddv_scf|^2 =  6.132E-07

      iter #   4 total cpu time :  3685.4 secs   av.it.:   7.8
      thresh= 7.831E-05 alpha_mix =  0.700 |ddv_scf|^2 =  4.972E-09

      iter #   5 total cpu time :  3763.2 secs   av.it.:   8.4
      thresh= 7.051E-06 alpha_mix =  0.700 |ddv_scf|^2 =  5.536E-10

      iter #   6 total cpu time :  3839.4 secs   av.it.:   8.2
      thresh= 2.353E-06 alpha_mix =  0.700 |ddv_scf|^2 =  2.155E-11

      iter #   7 total cpu time :  3914.5 secs   av.it.:   8.1
      thresh= 4.642E-07 alpha_mix =  0.700 |ddv_scf|^2 =  2.989E-11

      iter #   8 total cpu time :  3981.5 secs   av.it.:   6.8
      thresh= 5.467E-07 alpha_mix =  0.700 |ddv_scf|^2 =  4.820E-12

      iter #   9 total cpu time :  4050.9 secs   av.it.:   7.1
      thresh= 2.195E-07 alpha_mix =  0.700 |ddv_scf|^2 =  1.405E-12

      iter #  10 total cpu time :  4117.6 secs   av.it.:   6.8
      thresh= 1.185E-07 alpha_mix =  0.700 |ddv_scf|^2 =  6.972E-15

      iter #  11 total cpu time :  4196.3 secs   av.it.:   8.4
      thresh= 8.350E-09 alpha_mix =  0.700 |ddv_scf|^2 =  4.108E-16

      iter #  12 total cpu time :  4270.6 secs   av.it.:   8.0
      thresh= 2.027E-09 alpha_mix =  0.700 |ddv_scf|^2 =  3.783E-17

     End of self-consistent calculation

     Convergence has been achieved 


     Representation #  2 mode #   2

     Self-consistent Calculation

      iter #   1 total cpu time :  4339.4 secs   av.it.:   5.7
      thresh= 1.000E-02 alpha_mix =  0.700 |ddv_scf|^2 =  9.513E-05

      iter #   2 total cpu time :  4410.5 secs   av.it.:   7.4
      thresh= 9.754E-04 alpha_mix =  0.700 |ddv_scf|^2 =  6.774E-04

      iter #   3 total cpu time :  4469.7 secs   av.it.:   5.7
      thresh= 2.603E-03 alpha_mix =  0.700 |ddv_scf|^2 =  2.091E-07

      iter #   4 total cpu time :  4545.4 secs   av.it.:   8.2
      thresh= 4.573E-05 alpha_mix =  0.700 |ddv_scf|^2 =  6.287E-09

      iter #   5 total cpu time :  4621.2 secs   av.it.:   8.2
      thresh= 7.929E-06 alpha_mix =  0.700 |ddv_scf|^2 =  1.955E-10

      iter #   6 total cpu time :  4698.0 secs   av.it.:   8.3
      thresh= 1.398E-06 alpha_mix =  0.700 |ddv_scf|^2 =  1.543E-11

      iter #   7 total cpu time :  4773.3 secs   av.it.:   8.2
      thresh= 3.928E-07 alpha_mix =  0.700 |ddv_scf|^2 =  1.431E-12

      iter #   8 total cpu time :  4844.5 secs   av.it.:   7.6
      thresh= 1.196E-07 alpha_mix =  0.700 |ddv_scf|^2 =  5.871E-12

      iter #   9 total cpu time :  4905.3 secs   av.it.:   6.0
      thresh= 2.423E-07 alpha_mix =  0.700 |ddv_scf|^2 =  1.363E-14

      iter #  10 total cpu time :  4976.8 secs   av.it.:   7.5
      thresh= 1.167E-08 alpha_mix =  0.700 |ddv_scf|^2 =  5.997E-16

      iter #  11 total cpu time :  5049.0 secs   av.it.:   7.6
      thresh= 2.449E-09 alpha_mix =  0.700 |ddv_scf|^2 =  1.729E-15

      iter #  12 total cpu time :  5115.9 secs   av.it.:   6.8
      thresh= 4.158E-09 alpha_mix =  0.700 |ddv_scf|^2 =  2.820E-18

     End of self-consistent calculation

     Convergence has been achieved 


     Representation #  3 mode #   3

     Self-consistent Calculation

      iter #   1 total cpu time :  5184.1 secs   av.it.:   5.5
      thresh= 1.000E-02 alpha_mix =  0.700 |ddv_scf|^2 =  1.100E-05

      iter #   2 total cpu time :  5257.8 secs   av.it.:   7.8
      thresh= 3.317E-04 alpha_mix =  0.700 |ddv_scf|^2 =  1.703E-07

      iter #   3 total cpu time :  5332.8 secs   av.it.:   8.0
      thresh= 4.127E-05 alpha_mix =  0.700 |ddv_scf|^2 =  7.958E-09

      iter #   4 total cpu time :  5404.6 secs   av.it.:   7.6
      thresh= 8.921E-06 alpha_mix =  0.700 |ddv_scf|^2 =  2.583E-11

      iter #   5 total cpu time :  5479.0 secs   av.it.:   8.0
      thresh= 5.082E-07 alpha_mix =  0.700 |ddv_scf|^2 =  2.391E-14

      iter #   6 total cpu time :  5546.4 secs   av.it.:   7.0
      thresh= 1.546E-08 alpha_mix =  0.700 |ddv_scf|^2 =  1.391E-15

      iter #   7 total cpu time :  5619.4 secs   av.it.:   7.7
      thresh= 3.729E-09 alpha_mix =  0.700 |ddv_scf|^2 =  1.379E-18

     End of self-consistent calculation

     Convergence has been achieved 

     Number of q in the star =   24
     List of q in the star:
          1  -0.166666667   0.500000000  -0.166666667
          2   0.166666667   0.500000000   0.166666667
          3  -0.166666667   0.500000000   0.166666667
          4   0.166666667   0.500000000  -0.166666667
          5   0.500000000  -0.166666667   0.166666667
          6   0.166666667  -0.166666667   0.500000000
          7  -0.166666667  -0.500000000  -0.166666667
          8   0.166666667  -0.500000000  -0.166666667
          9  -0.166666667  -0.500000000   0.166666667
         10   0.500000000  -0.166666667  -0.166666667
         11  -0.500000000  -0.166666667   0.166666667
         12   0.500000000   0.166666667   0.166666667
         13  -0.166666667   0.166666667  -0.500000000
         14  -0.166666667  -0.166666667   0.500000000
         15   0.166666667   0.166666667   0.500000000
         16   0.166666667  -0.166666667  -0.500000000
         17  -0.500000000   0.166666667  -0.166666667
         18  -0.500000000  -0.166666667  -0.166666667
         19   0.166666667  -0.500000000   0.166666667
         20   0.500000000   0.166666667  -0.166666667
         21   0.166666667   0.166666667  -0.500000000
         22  -0.166666667  -0.166666667  -0.500000000
         23  -0.500000000   0.166666667   0.166666667
         24  -0.166666667   0.166666667   0.500000000

     Diagonalizing the dynamical matrix

     q = (   -0.166666667   0.500000000  -0.166666667 ) 

 **************************************************************************
     freq (    1) =       2.101401 [THz] =      70.095188 [cm-1]
     freq (    2) =       2.166864 [THz] =      72.278788 [cm-1]
     freq (    3) =       3.660992 [THz] =     122.117552 [cm-1]
 **************************************************************************

     Mode symmetry, C_s (m)     point group:

     freq (  1 -  1) =         70.1  [cm-1]   --> A'                 
     freq (  2 -  2) =         72.3  [cm-1]   --> A''                
     freq (  3 -  3) =        122.1  [cm-1]   --> A'                 

     Calculation of q =    0.6666667  -0.3333333   0.6666667

   Info: using nr1, nr2, nr3 values from input

   Info: using nr1, nr2, nr3 values from input

     Parallelization info
     --------------------
     sticks:   dense  smooth     PW     G-vecs:    dense   smooth      PW
     Min          64      31     12                 1346      475     118
     Max          65      32     13                 1349      478     122
     Sum        1027     511    199                21547     7631    1917



     bravais-lattice index     =            2
     lattice parameter (alat)  =       9.6000  a.u.
     unit-cell volume          =     221.1840 (a.u.)^3
     number of atoms/cell      =            1
     number of atomic types    =            1
     number of electrons       =         9.00
     number of Kohn-Sham states=            9
     kinetic-energy cutoff     =      40.0000  Ry
     charge density cutoff     =     320.0000  Ry
     Exchange-correlation      = SLA  PW   PBE  PBE ( 1  4  3  4 0 0)

     celldm(1)=   9.600000  celldm(2)=   0.000000  celldm(3)=   0.000000
     celldm(4)=   0.000000  celldm(5)=   0.000000  celldm(6)=   0.000000

     crystal axes: (cart. coord. in units of alat)
               a(1) = (  -0.500000   0.000000   0.500000 )  
               a(2) = (   0.000000   0.500000   0.500000 )  
               a(3) = (  -0.500000   0.500000   0.000000 )  

     reciprocal axes: (cart. coord. in units 2 pi/alat)
               b(1) = ( -1.000000 -1.000000  1.000000 )  
               b(2) = (  1.000000  1.000000  1.000000 )  
               b(3) = ( -1.000000  1.000000 -1.000000 )  


     PseudoPot. # 1 for Na read from file:
     /home/s1333534/quantum_espresso/qe-6.1/pseudo/Na_pbe_v1.uspp.F.UPF
     MD5 check sum: 76a99c7e9422403d3e93cbc85ab7bccb
     Pseudo is Ultrasoft, Zval =  9.0
     Generated by new atomic code, or converted to UPF format
     Using radial grid of  819 points,  5 beta functions with: 
                l(1) =   0
                l(2) =   0
                l(3) =   1
                l(4) =   1
                l(5) =   2
     Q(r) pseudized with  8 coefficients,  rinner =    1.250   1.250   1.250
                                                       1.250   1.250

     atomic species   valence    mass     pseudopotential
        Na             9.00    22.99000     Na( 1.00)

     48 Sym. Ops., with inversion, found



   Cartesian axes

     site n.     atom                  positions (alat units)
         1           Na  tau(   1) = (   0.0000000   0.0000000   0.0000000  )

     number of k points= 32800  Marzari-Vanderbilt smearing, width (Ry)=  0.0200

     Number of k-points >= 100: set verbosity='high' to print them.

     Dense  grid:    21547 G-vectors     FFT dimensions: (  40,  40,  40)

     Smooth grid:     7631 G-vectors     FFT dimensions: (  27,  27,  27)

     Estimated max dynamical RAM per process >       0.74MB

     Estimated total allocated dynamical RAM >      47.34MB

     The potential is recalculated from file :
     ./_ph0/na.fcc.save/charge-density.dat

     Starting wfc are    5 atomic +    4 random wfc

     Band Structure Calculation
     Davidson diagonalization with overlap

     ethr =  1.11E-10,  avg # of iterations = 18.9

     total cpu time spent up to now is     1775.2 secs

     End of band structure calculation

     Number of k-points >= 100: set verbosity='high' to print the bands.

     the Fermi energy is     2.1510 ev

     Writing output data file na.fcc.save

                                                                                

     bravais-lattice index     =            2
     lattice parameter (alat)  =       9.6000  a.u.
     unit-cell volume          =     221.1840 (a.u.)^3
     number of atoms/cell      =            1
     number of atomic types    =            1
     kinetic-energy cut-off    =      40.0000  Ry
     charge density cut-off    =     320.0000  Ry
     convergence threshold     =      1.0E-16
     beta                      =       0.7000
     number of iterations used =            4
     Exchange-correlation      = SLA  PW   PBE  PBE ( 1  4  3  4 0 0)


     celldm(1)=    9.60000  celldm(2)=    0.00000  celldm(3)=    0.00000
     celldm(4)=    0.00000  celldm(5)=    0.00000  celldm(6)=    0.00000

     crystal axes: (cart. coord. in units of alat)
               a(1) = ( -0.5000  0.0000  0.5000 )  
               a(2) = (  0.0000  0.5000  0.5000 )  
               a(3) = ( -0.5000  0.5000  0.0000 )  

     reciprocal axes: (cart. coord. in units 2 pi/alat)
               b(1) = ( -1.0000 -1.0000  1.0000 )  
               b(2) = (  1.0000  1.0000  1.0000 )  
               b(3) = ( -1.0000  1.0000 -1.0000 )  


     Atoms inside the unit cell: 

     Cartesian axes

     site n.  atom      mass           positions (alat units)
        1     Na  22.9900   tau(    1) = (    0.00000    0.00000    0.00000  )

     Computing dynamical matrix for 
                    q = (   0.6666667  -0.3333333   0.6666667 )

      2 Sym.Ops. (no q -> -q+G )


     G cutoff =  747.0208  (   1347 G-vectors)     FFT grid: ( 40, 40, 40)
     G cutoff =  373.5104  (    476 G-vectors)  smooth grid: ( 27, 27, 27)

     number of k points= 32800  Marzari-Vanderbilt smearing, width (Ry)=  0.0200

     PseudoPot. # 1 for Na read from file:
     /home/s1333534/quantum_espresso/qe-6.1/pseudo/Na_pbe_v1.uspp.F.UPF
     MD5 check sum: 76a99c7e9422403d3e93cbc85ab7bccb
     Pseudo is Ultrasoft, Zval =  9.0
     Generated by new atomic code, or converted to UPF format
     Using radial grid of  819 points,  5 beta functions with: 
                l(1) =   0
                l(2) =   0
                l(3) =   1
                l(4) =   1
                l(5) =   2
     Q(r) pseudized with  8 coefficients,  rinner =    1.250   1.250   1.250
                                                       1.250   1.250

     Mode symmetry, C_s (m)     point group:


     Atomic displacements:
     There are   3 irreducible representations

     Representation     1      1 modes -A'  To be done

     Representation     2      1 modes -A'  To be done

     Representation     3      1 modes -A''  To be done



     Alpha used in Ewald sum =   2.8000
     PHONON       :     1h36m CPU        1h44m WALL



     Representation #  1 mode #   1

     Self-consistent Calculation

      iter #   1 total cpu time :  6319.6 secs   av.it.:   5.8
      thresh= 1.000E-02 alpha_mix =  0.700 |ddv_scf|^2 =  6.908E-05

      iter #   2 total cpu time :  6391.8 secs   av.it.:   7.5
      thresh= 8.312E-04 alpha_mix =  0.700 |ddv_scf|^2 =  4.888E-05

      iter #   3 total cpu time :  6460.8 secs   av.it.:   7.1
      thresh= 6.992E-04 alpha_mix =  0.700 |ddv_scf|^2 =  1.180E-07

      iter #   4 total cpu time :  6537.1 secs   av.it.:   8.2
      thresh= 3.434E-05 alpha_mix =  0.700 |ddv_scf|^2 =  9.013E-09

      iter #   5 total cpu time :  6614.0 secs   av.it.:   8.2
      thresh= 9.494E-06 alpha_mix =  0.700 |ddv_scf|^2 =  5.003E-10

      iter #   6 total cpu time :  6688.6 secs   av.it.:   8.0
      thresh= 2.237E-06 alpha_mix =  0.700 |ddv_scf|^2 =  6.957E-12

      iter #   7 total cpu time :  6765.8 secs   av.it.:   8.3
      thresh= 2.638E-07 alpha_mix =  0.700 |ddv_scf|^2 =  2.973E-13

      iter #   8 total cpu time :  6843.3 secs   av.it.:   8.3
      thresh= 5.453E-08 alpha_mix =  0.700 |ddv_scf|^2 =  2.486E-14

      iter #   9 total cpu time :  6921.0 secs   av.it.:   8.3
      thresh= 1.577E-08 alpha_mix =  0.700 |ddv_scf|^2 =  1.196E-15

      iter #  10 total cpu time :  6993.4 secs   av.it.:   7.5
      thresh= 3.458E-09 alpha_mix =  0.700 |ddv_scf|^2 =  8.088E-17

     End of self-consistent calculation

     Convergence has been achieved 


     Representation #  2 mode #   2

     Self-consistent Calculation

      iter #   1 total cpu time :  7063.0 secs   av.it.:   5.7
      thresh= 1.000E-02 alpha_mix =  0.700 |ddv_scf|^2 =  3.603E-05

      iter #   2 total cpu time :  7137.7 secs   av.it.:   7.8
      thresh= 6.003E-04 alpha_mix =  0.700 |ddv_scf|^2 =  1.520E-05

      iter #   3 total cpu time :  7208.3 secs   av.it.:   7.3
      thresh= 3.898E-04 alpha_mix =  0.700 |ddv_scf|^2 =  4.474E-07

      iter #   4 total cpu time :  7281.4 secs   av.it.:   7.6
      thresh= 6.689E-05 alpha_mix =  0.700 |ddv_scf|^2 =  1.442E-08

      iter #   5 total cpu time :  7358.4 secs   av.it.:   8.2
      thresh= 1.201E-05 alpha_mix =  0.700 |ddv_scf|^2 =  3.904E-10

      iter #   6 total cpu time :  7435.0 secs   av.it.:   8.1
      thresh= 1.976E-06 alpha_mix =  0.700 |ddv_scf|^2 =  1.633E-11

      iter #   7 total cpu time :  7512.2 secs   av.it.:   8.3
      thresh= 4.040E-07 alpha_mix =  0.700 |ddv_scf|^2 =  9.929E-13

      iter #   8 total cpu time :  7590.1 secs   av.it.:   8.4
      thresh= 9.964E-08 alpha_mix =  0.700 |ddv_scf|^2 =  2.931E-14

      iter #   9 total cpu time :  7666.5 secs   av.it.:   8.2
      thresh= 1.712E-08 alpha_mix =  0.700 |ddv_scf|^2 =  5.894E-15

      iter #  10 total cpu time :  7738.5 secs   av.it.:   7.7
      thresh= 7.677E-09 alpha_mix =  0.700 |ddv_scf|^2 =  1.317E-16

      iter #  11 total cpu time :  7815.4 secs   av.it.:   8.2
      thresh= 1.148E-09 alpha_mix =  0.700 |ddv_scf|^2 =  5.030E-18

     End of self-consistent calculation

     Convergence has been achieved 


     Representation #  3 mode #   3

     Self-consistent Calculation

      iter #   1 total cpu time :  7884.7 secs   av.it.:   5.5
      thresh= 1.000E-02 alpha_mix =  0.700 |ddv_scf|^2 =  1.098E-05

      iter #   2 total cpu time :  7958.6 secs   av.it.:   7.8
      thresh= 3.314E-04 alpha_mix =  0.700 |ddv_scf|^2 =  1.718E-07

      iter #   3 total cpu time :  8035.3 secs   av.it.:   8.0
      thresh= 4.145E-05 alpha_mix =  0.700 |ddv_scf|^2 =  7.773E-09

      iter #   4 total cpu time :  8107.9 secs   av.it.:   7.6
      thresh= 8.816E-06 alpha_mix =  0.700 |ddv_scf|^2 =  2.606E-11

      iter #   5 total cpu time :  8183.6 secs   av.it.:   8.0
      thresh= 5.105E-07 alpha_mix =  0.700 |ddv_scf|^2 =  2.569E-14

      iter #   6 total cpu time :  8251.2 secs   av.it.:   6.9
      thresh= 1.603E-08 alpha_mix =  0.700 |ddv_scf|^2 =  1.485E-15

      iter #   7 total cpu time :  8324.5 secs   av.it.:   7.7
      thresh= 3.853E-09 alpha_mix =  0.700 |ddv_scf|^2 =  1.579E-18

     End of self-consistent calculation

     Convergence has been achieved 

     Number of q in the star =   24
     List of q in the star:
          1   0.666666667  -0.333333333   0.666666667
          2  -0.666666667  -0.333333333  -0.666666667
          3   0.666666667  -0.333333333  -0.666666667
          4  -0.666666667  -0.333333333   0.666666667
          5  -0.333333333   0.666666667  -0.666666667
          6  -0.666666667   0.666666667  -0.333333333
          7   0.666666667   0.333333333   0.666666667
          8  -0.666666667   0.333333333   0.666666667
          9   0.666666667   0.333333333  -0.666666667
         10  -0.333333333   0.666666667   0.666666667
         11   0.333333333   0.666666667  -0.666666667
         12  -0.333333333  -0.666666667  -0.666666667
         13   0.666666667  -0.666666667   0.333333333
         14   0.666666667   0.666666667  -0.333333333
         15  -0.666666667  -0.666666667  -0.333333333
         16  -0.666666667   0.666666667   0.333333333
         17   0.333333333  -0.666666667   0.666666667
         18   0.333333333   0.666666667   0.666666667
         19  -0.666666667   0.333333333  -0.666666667
         20  -0.333333333  -0.666666667   0.666666667
         21  -0.666666667  -0.666666667   0.333333333
         22   0.666666667   0.666666667   0.333333333
         23   0.333333333  -0.666666667  -0.666666667
         24   0.666666667  -0.666666667  -0.333333333

     Diagonalizing the dynamical matrix

     q = (    0.666666667  -0.333333333   0.666666667 ) 

 **************************************************************************
     freq (    1) =       2.275506 [THz] =      75.902723 [cm-1]
     freq (    2) =       2.688286 [THz] =      89.671567 [cm-1]
     freq (    3) =       4.497553 [THz] =     150.022219 [cm-1]
 **************************************************************************

     Mode symmetry, C_s (m)     point group:

     freq (  1 -  1) =         75.9  [cm-1]   --> A''                
     freq (  2 -  2) =         89.7  [cm-1]   --> A'                 
     freq (  3 -  3) =        150.0  [cm-1]   --> A'                 

     Calculation of q =    0.5000000  -0.1666667   0.5000000

   Info: using nr1, nr2, nr3 values from input

   Info: using nr1, nr2, nr3 values from input

     Parallelization info
     --------------------
     sticks:   dense  smooth     PW     G-vecs:    dense   smooth      PW
     Min          64      31     12                 1346      475     112
     Max          65      32     13                 1349      478     114
     Sum        1027     511    199                21547     7631    1807



     bravais-lattice index     =            2
     lattice parameter (alat)  =       9.6000  a.u.
     unit-cell volume          =     221.1840 (a.u.)^3
     number of atoms/cell      =            1
     number of atomic types    =            1
     number of electrons       =         9.00
     number of Kohn-Sham states=            9
     kinetic-energy cutoff     =      40.0000  Ry
     charge density cutoff     =     320.0000  Ry
     Exchange-correlation      = SLA  PW   PBE  PBE ( 1  4  3  4 0 0)

     celldm(1)=   9.600000  celldm(2)=   0.000000  celldm(3)=   0.000000
     celldm(4)=   0.000000  celldm(5)=   0.000000  celldm(6)=   0.000000

     crystal axes: (cart. coord. in units of alat)
               a(1) = (  -0.500000   0.000000   0.500000 )  
               a(2) = (   0.000000   0.500000   0.500000 )  
               a(3) = (  -0.500000   0.500000   0.000000 )  

     reciprocal axes: (cart. coord. in units 2 pi/alat)
               b(1) = ( -1.000000 -1.000000  1.000000 )  
               b(2) = (  1.000000  1.000000  1.000000 )  
               b(3) = ( -1.000000  1.000000 -1.000000 )  


     PseudoPot. # 1 for Na read from file:
     /home/s1333534/quantum_espresso/qe-6.1/pseudo/Na_pbe_v1.uspp.F.UPF
     MD5 check sum: 76a99c7e9422403d3e93cbc85ab7bccb
     Pseudo is Ultrasoft, Zval =  9.0
     Generated by new atomic code, or converted to UPF format
     Using radial grid of  819 points,  5 beta functions with: 
                l(1) =   0
                l(2) =   0
                l(3) =   1
                l(4) =   1
                l(5) =   2
     Q(r) pseudized with  8 coefficients,  rinner =    1.250   1.250   1.250
                                                       1.250   1.250

     atomic species   valence    mass     pseudopotential
        Na             9.00    22.99000     Na( 1.00)

     48 Sym. Ops., with inversion, found



   Cartesian axes

     site n.     atom                  positions (alat units)
         1           Na  tau(   1) = (   0.0000000   0.0000000   0.0000000  )

     number of k points= 32800  Marzari-Vanderbilt smearing, width (Ry)=  0.0200

     Number of k-points >= 100: set verbosity='high' to print them.

     Dense  grid:    21547 G-vectors     FFT dimensions: (  40,  40,  40)

     Smooth grid:     7631 G-vectors     FFT dimensions: (  27,  27,  27)

     Estimated max dynamical RAM per process >       0.74MB

     Estimated total allocated dynamical RAM >      47.34MB

     The potential is recalculated from file :
     ./_ph0/na.fcc.save/charge-density.dat

     Starting wfc are    5 atomic +    4 random wfc

     Band Structure Calculation
     Davidson diagonalization with overlap

     ethr =  1.11E-10,  avg # of iterations = 18.9

     total cpu time spent up to now is     2384.8 secs

     End of band structure calculation

     Number of k-points >= 100: set verbosity='high' to print the bands.

     the Fermi energy is     2.1510 ev

     Writing output data file na.fcc.save

                                                                                

     bravais-lattice index     =            2
     lattice parameter (alat)  =       9.6000  a.u.
     unit-cell volume          =     221.1840 (a.u.)^3
     number of atoms/cell      =            1
     number of atomic types    =            1
     kinetic-energy cut-off    =      40.0000  Ry
     charge density cut-off    =     320.0000  Ry
     convergence threshold     =      1.0E-16
     beta                      =       0.7000
     number of iterations used =            4
     Exchange-correlation      = SLA  PW   PBE  PBE ( 1  4  3  4 0 0)


     celldm(1)=    9.60000  celldm(2)=    0.00000  celldm(3)=    0.00000
     celldm(4)=    0.00000  celldm(5)=    0.00000  celldm(6)=    0.00000

     crystal axes: (cart. coord. in units of alat)
               a(1) = ( -0.5000  0.0000  0.5000 )  
               a(2) = (  0.0000  0.5000  0.5000 )  
               a(3) = ( -0.5000  0.5000  0.0000 )  

     reciprocal axes: (cart. coord. in units 2 pi/alat)
               b(1) = ( -1.0000 -1.0000  1.0000 )  
               b(2) = (  1.0000  1.0000  1.0000 )  
               b(3) = ( -1.0000  1.0000 -1.0000 )  


     Atoms inside the unit cell: 

     Cartesian axes

     site n.  atom      mass           positions (alat units)
        1     Na  22.9900   tau(    1) = (    0.00000    0.00000    0.00000  )

     Computing dynamical matrix for 
                    q = (   0.5000000  -0.1666667   0.5000000 )

      2 Sym.Ops. (no q -> -q+G )


     G cutoff =  747.0208  (   1347 G-vectors)     FFT grid: ( 40, 40, 40)
     G cutoff =  373.5104  (    476 G-vectors)  smooth grid: ( 27, 27, 27)

     number of k points= 32800  Marzari-Vanderbilt smearing, width (Ry)=  0.0200

     PseudoPot. # 1 for Na read from file:
     /home/s1333534/quantum_espresso/qe-6.1/pseudo/Na_pbe_v1.uspp.F.UPF
     MD5 check sum: 76a99c7e9422403d3e93cbc85ab7bccb
     Pseudo is Ultrasoft, Zval =  9.0
     Generated by new atomic code, or converted to UPF format
     Using radial grid of  819 points,  5 beta functions with: 
                l(1) =   0
                l(2) =   0
                l(3) =   1
                l(4) =   1
                l(5) =   2
     Q(r) pseudized with  8 coefficients,  rinner =    1.250   1.250   1.250
                                                       1.250   1.250

     Mode symmetry, C_s (m)     point group:


     Atomic displacements:
     There are   3 irreducible representations

     Representation     1      1 modes -A'  To be done

     Representation     2      1 modes -A'  To be done

     Representation     3      1 modes -A''  To be done



     Alpha used in Ewald sum =   2.8000
     PHONON       :     2h18m CPU        2h29m WALL



     Representation #  1 mode #   1

     Self-consistent Calculation

      iter #   1 total cpu time :  9031.4 secs   av.it.:   5.8
[...]

      iter #   4 total cpu time : 21953.5 secs   av.it.:   8.3
      thresh= 1.822E-05 alpha_mix =  0.700 |ddv_scf|^2 =  1.059E-09

      iter #   5 total cpu time : 22027.4 secs   av.it.:   7.7
      thresh= 3.254E-06 alpha_mix =  0.700 |ddv_scf|^2 =  3.148E-11

      iter #   6 total cpu time : 22100.6 secs   av.it.:   7.5
      thresh= 5.610E-07 alpha_mix =  0.700 |ddv_scf|^2 =  5.610E-14

      iter #   7 total cpu time : 22176.8 secs   av.it.:   8.0
      thresh= 2.369E-08 alpha_mix =  0.700 |ddv_scf|^2 =  4.176E-15

      iter #   8 total cpu time : 22253.1 secs   av.it.:   7.9
      thresh= 6.462E-09 alpha_mix =  0.700 |ddv_scf|^2 =  1.281E-17

     End of self-consistent calculation

     Convergence has been achieved 

     Number of q in the star =   24
     List of q in the star:
          1   0.500000000  -0.166666667   0.833333333
          2   0.833333333   0.166666667   0.500000000
          3   0.500000000   0.166666667   0.833333333
          4  -0.833333333  -0.166666667   0.500000000
          5  -0.833333333  -0.166666667  -0.500000000
          6  -0.500000000  -0.166666667  -0.833333333
          7   0.833333333  -0.166666667   0.500000000
          8  -0.500000000  -0.166666667   0.833333333
          9  -0.833333333   0.166666667   0.500000000
         10   0.833333333   0.166666667  -0.500000000
         11   0.833333333  -0.166666667  -0.500000000
         12   0.500000000   0.166666667  -0.833333333
         13  -0.500000000   0.166666667   0.833333333
         14  -0.500000000   0.166666667  -0.833333333
         15  -0.833333333   0.166666667  -0.500000000
         16   0.833333333  -0.500000000   0.166666667
         17   0.833333333   0.500000000  -0.166666667
         18  -0.833333333  -0.500000000  -0.166666667
         19  -0.833333333   0.500000000   0.166666667
         20   0.166666667  -0.500000000   0.833333333
         21  -0.166666667   0.500000000   0.833333333
         22   0.166666667   0.500000000  -0.833333333
         23  -0.166666667  -0.500000000  -0.833333333
         24  -0.500000000   0.833333333   0.166666667

     Diagonalizing the dynamical matrix

     q = (    0.500000000  -0.166666667   0.833333333 ) 

 **************************************************************************
     freq (    1) =       2.675420 [THz] =      89.242405 [cm-1]
     freq (    2) =       3.651136 [THz] =     121.788803 [cm-1]
     freq (    3) =       4.294224 [THz] =     143.239898 [cm-1]
 **************************************************************************

     Mode symmetry, C_2  (2)    point group:

     freq (  1 -  1) =         89.2  [cm-1]   --> B                  
     freq (  2 -  2) =        121.8  [cm-1]   --> A                  
     freq (  3 -  3) =        143.2  [cm-1]   --> B                  

     Calculation of q =   -0.3333333  -1.0000000   0.0000000

   Info: using nr1, nr2, nr3 values from input

   Info: using nr1, nr2, nr3 values from input

     Parallelization info
     --------------------
     sticks:   dense  smooth     PW     G-vecs:    dense   smooth      PW
     Min          64      31     12                 1346      475     118
     Max          65      32     13                 1349      478     122
     Sum        1027     511    199                21547     7631    1917



     bravais-lattice index     =            2
     lattice parameter (alat)  =       9.6000  a.u.
     unit-cell volume          =     221.1840 (a.u.)^3
     number of atoms/cell      =            1
     number of atomic types    =            1
     number of electrons       =         9.00
     number of Kohn-Sham states=            9
     kinetic-energy cutoff     =      40.0000  Ry
     charge density cutoff     =     320.0000  Ry
     Exchange-correlation      = SLA  PW   PBE  PBE ( 1  4  3  4 0 0)

     celldm(1)=   9.600000  celldm(2)=   0.000000  celldm(3)=   0.000000
     celldm(4)=   0.000000  celldm(5)=   0.000000  celldm(6)=   0.000000

     crystal axes: (cart. coord. in units of alat)
               a(1) = (  -0.500000   0.000000   0.500000 )  
               a(2) = (   0.000000   0.500000   0.500000 )  
               a(3) = (  -0.500000   0.500000   0.000000 )  

     reciprocal axes: (cart. coord. in units 2 pi/alat)
               b(1) = ( -1.000000 -1.000000  1.000000 )  
               b(2) = (  1.000000  1.000000  1.000000 )  
               b(3) = ( -1.000000  1.000000 -1.000000 )  


     PseudoPot. # 1 for Na read from file:
     /home/s1333534/quantum_espresso/qe-6.1/pseudo/Na_pbe_v1.uspp.F.UPF
     MD5 check sum: 76a99c7e9422403d3e93cbc85ab7bccb
     Pseudo is Ultrasoft, Zval =  9.0
     Generated by new atomic code, or converted to UPF format
     Using radial grid of  819 points,  5 beta functions with: 
                l(1) =   0
                l(2) =   0
                l(3) =   1
                l(4) =   1
                l(5) =   2
     Q(r) pseudized with  8 coefficients,  rinner =    1.250   1.250   1.250
                                                       1.250   1.250

     atomic species   valence    mass     pseudopotential
        Na             9.00    22.99000     Na( 1.00)

     48 Sym. Ops., with inversion, found



   Cartesian axes

     site n.     atom                  positions (alat units)
         1           Na  tau(   1) = (   0.0000000   0.0000000   0.0000000  )

     number of k points= 16000  Marzari-Vanderbilt smearing, width (Ry)=  0.0200

     Number of k-points >= 100: set verbosity='high' to print them.

     Dense  grid:    21547 G-vectors     FFT dimensions: (  40,  40,  40)

     Smooth grid:     7631 G-vectors     FFT dimensions: (  27,  27,  27)

     Estimated max dynamical RAM per process >       0.74MB

     Estimated total allocated dynamical RAM >      47.34MB

     The potential is recalculated from file :
     ./_ph0/na.fcc.save/charge-density.dat

     Starting wfc are    5 atomic +    4 random wfc

     Band Structure Calculation
     Davidson diagonalization with overlap

     ethr =  1.11E-10,  avg # of iterations = 18.9

     total cpu time spent up to now is     5410.5 secs

     End of band structure calculation

     Number of k-points >= 100: set verbosity='high' to print the bands.

     the Fermi energy is     2.1510 ev

     Writing output data file na.fcc.save

                                                                                

     bravais-lattice index     =            2
     lattice parameter (alat)  =       9.6000  a.u.
     unit-cell volume          =     221.1840 (a.u.)^3
     number of atoms/cell      =            1
     number of atomic types    =            1
     kinetic-energy cut-off    =      40.0000  Ry
     charge density cut-off    =     320.0000  Ry
     convergence threshold     =      1.0E-16
     beta                      =       0.7000
     number of iterations used =            4
     Exchange-correlation      = SLA  PW   PBE  PBE ( 1  4  3  4 0 0)


     celldm(1)=    9.60000  celldm(2)=    0.00000  celldm(3)=    0.00000
     celldm(4)=    0.00000  celldm(5)=    0.00000  celldm(6)=    0.00000

     crystal axes: (cart. coord. in units of alat)
               a(1) = ( -0.5000  0.0000  0.5000 )  
               a(2) = (  0.0000  0.5000  0.5000 )  
               a(3) = ( -0.5000  0.5000  0.0000 )  

     reciprocal axes: (cart. coord. in units 2 pi/alat)
               b(1) = ( -1.0000 -1.0000  1.0000 )  
               b(2) = (  1.0000  1.0000  1.0000 )  
               b(3) = ( -1.0000  1.0000 -1.0000 )  


     Atoms inside the unit cell: 

     Cartesian axes

     site n.  atom      mass           positions (alat units)
        1     Na  22.9900   tau(    1) = (    0.00000    0.00000    0.00000  )

     Computing dynamical matrix for 
                    q = (  -0.3333333  -1.0000000   0.0000000 )

      4 Sym.Ops. (no q -> -q+G )


     G cutoff =  747.0208  (   1347 G-vectors)     FFT grid: ( 40, 40, 40)
     G cutoff =  373.5104  (    476 G-vectors)  smooth grid: ( 27, 27, 27)

     number of k points= 16000  Marzari-Vanderbilt smearing, width (Ry)=  0.0200

     PseudoPot. # 1 for Na read from file:
     /home/s1333534/quantum_espresso/qe-6.1/pseudo/Na_pbe_v1.uspp.F.UPF
     MD5 check sum: 76a99c7e9422403d3e93cbc85ab7bccb
     Pseudo is Ultrasoft, Zval =  9.0
     Generated by new atomic code, or converted to UPF format
     Using radial grid of  819 points,  5 beta functions with: 
                l(1) =   0
                l(2) =   0
                l(3) =   1
                l(4) =   1
                l(5) =   2
     Q(r) pseudized with  8 coefficients,  rinner =    1.250   1.250   1.250
                                                       1.250   1.250

     Mode symmetry, C_2v (mm2)  point group:


     Atomic displacements:
     There are   3 irreducible representations

     Representation     1      1 modes -A_1  D_1  S_1  To be done

     Representation     2      1 modes -B_1  D_3  S_3  To be done

     Representation     3      1 modes -B_2  D_4  S_4  To be done



     Alpha used in Ewald sum =   2.8000
     PHONON       :     5h47m CPU        6h16m WALL



     Representation #  1 mode #   1

     Self-consistent Calculation

      iter #   1 total cpu time : 22609.7 secs   av.it.:   5.6
      thresh= 1.000E-02 alpha_mix =  0.700 |ddv_scf|^2 =  1.635E-05

      iter #   2 total cpu time : 22648.8 secs   av.it.:   8.0
      thresh= 4.043E-04 alpha_mix =  0.700 |ddv_scf|^2 =  5.255E-07

      iter #   3 total cpu time : 22686.1 secs   av.it.:   7.8
      thresh= 7.249E-05 alpha_mix =  0.700 |ddv_scf|^2 =  1.764E-08

      iter #   4 total cpu time : 22725.1 secs   av.it.:   8.2
      thresh= 1.328E-05 alpha_mix =  0.700 |ddv_scf|^2 =  8.278E-10

      iter #   5 total cpu time : 22763.1 secs   av.it.:   8.1
      thresh= 2.877E-06 alpha_mix =  0.700 |ddv_scf|^2 =  4.494E-11

      iter #   6 total cpu time : 22801.5 secs   av.it.:   8.2
      thresh= 6.704E-07 alpha_mix =  0.700 |ddv_scf|^2 =  3.347E-12

      iter #   7 total cpu time : 22840.8 secs   av.it.:   8.2
      thresh= 1.829E-07 alpha_mix =  0.700 |ddv_scf|^2 =  4.846E-14

      iter #   8 total cpu time : 22878.5 secs   av.it.:   7.9
      thresh= 2.201E-08 alpha_mix =  0.700 |ddv_scf|^2 =  6.789E-16

      iter #   9 total cpu time : 22917.0 secs   av.it.:   8.2
      thresh= 2.606E-09 alpha_mix =  0.700 |ddv_scf|^2 =  3.391E-17

     End of self-consistent calculation

     Convergence has been achieved 


     Representation #  2 mode #   2

     Self-consistent Calculation

      iter #   1 total cpu time : 22951.5 secs   av.it.:   5.6
      thresh= 1.000E-02 alpha_mix =  0.700 |ddv_scf|^2 =  1.820E-05

      iter #   2 total cpu time : 22989.5 secs   av.it.:   7.9
      thresh= 4.266E-04 alpha_mix =  0.700 |ddv_scf|^2 =  3.772E-07

      iter #   3 total cpu time : 23027.5 secs   av.it.:   7.8
      thresh= 6.142E-05 alpha_mix =  0.700 |ddv_scf|^2 =  1.928E-08

      iter #   4 total cpu time : 23066.4 secs   av.it.:   8.0
      thresh= 1.388E-05 alpha_mix =  0.700 |ddv_scf|^2 =  2.021E-10

      iter #   5 total cpu time : 23101.5 secs   av.it.:   7.2
      thresh= 1.421E-06 alpha_mix =  0.700 |ddv_scf|^2 =  1.522E-13

      iter #   6 total cpu time : 23138.6 secs   av.it.:   7.8
      thresh= 3.901E-08 alpha_mix =  0.700 |ddv_scf|^2 =  4.912E-15

      iter #   7 total cpu time : 23176.1 secs   av.it.:   7.7
      thresh= 7.009E-09 alpha_mix =  0.700 |ddv_scf|^2 =  4.519E-17

     End of self-consistent calculation

     Convergence has been achieved 


     Representation #  3 mode #   3

     Self-consistent Calculation

      iter #   1 total cpu time : 23210.1 secs   av.it.:   5.6
      thresh= 1.000E-02 alpha_mix =  0.700 |ddv_scf|^2 =  3.521E-05

      iter #   2 total cpu time : 23247.2 secs   av.it.:   7.6
      thresh= 5.934E-04 alpha_mix =  0.700 |ddv_scf|^2 =  3.584E-06

      iter #   3 total cpu time : 23282.9 secs   av.it.:   7.3
      thresh= 1.893E-04 alpha_mix =  0.700 |ddv_scf|^2 =  3.701E-08

      iter #   4 total cpu time : 23320.8 secs   av.it.:   8.0
      thresh= 1.924E-05 alpha_mix =  0.700 |ddv_scf|^2 =  1.643E-10

      iter #   5 total cpu time : 23356.1 secs   av.it.:   7.2
      thresh= 1.282E-06 alpha_mix =  0.700 |ddv_scf|^2 =  1.831E-13

      iter #   6 total cpu time : 23393.1 secs   av.it.:   7.7
      thresh= 4.279E-08 alpha_mix =  0.700 |ddv_scf|^2 =  9.113E-15

      iter #   7 total cpu time : 23428.5 secs   av.it.:   7.2
      thresh= 9.546E-09 alpha_mix =  0.700 |ddv_scf|^2 =  1.851E-17

     End of self-consistent calculation

     Convergence has been achieved 

     Number of q in the star =   12
     List of q in the star:
          1  -0.333333333  -1.000000000   0.000000000
          2   0.000000000  -1.000000000  -0.333333333
          3   0.000000000  -1.000000000   0.333333333
          4   0.333333333  -1.000000000   0.000000000
          5  -1.000000000   0.000000000  -0.333333333
          6   1.000000000   0.000000000   0.333333333
          7   0.000000000   0.333333333   1.000000000
          8   0.000000000  -0.333333333  -1.000000000
          9  -1.000000000  -0.333333333   0.000000000
         10   1.000000000   0.333333333   0.000000000
         11  -0.333333333   0.000000000   1.000000000
         12   0.333333333   0.000000000   1.000000000

     Diagonalizing the dynamical matrix

     q = (   -0.333333333  -1.000000000   0.000000000 ) 

 **************************************************************************
     freq (    1) =       3.058659 [THz] =     102.025867 [cm-1]
     freq (    2) =       3.652905 [THz] =     121.847806 [cm-1]
     freq (    3) =       4.429315 [THz] =     147.746031 [cm-1]
 **************************************************************************

     Mode symmetry, C_2v (mm2)  point group:

     freq (  1 -  1) =        102.0  [cm-1]   --> A_1  D_1  S_1      
     freq (  2 -  2) =        121.8  [cm-1]   --> B_1  D_3  S_3      
     freq (  3 -  3) =        147.7  [cm-1]   --> B_2  D_4  S_4      

     init_run     :      3.31s CPU      3.48s WALL (      15 calls)
     electrons    :   4319.15s CPU   4581.02s WALL (      15 calls)

     Called by init_run:
     wfcinit      :      0.00s CPU      0.00s WALL (      15 calls)
     potinit      :      0.40s CPU      0.42s WALL (      15 calls)

     Called by electrons:
     c_bands      :   4317.96s CPU   4579.82s WALL (      15 calls)
     v_of_rho     :      0.17s CPU      0.17s WALL (      16 calls)
     newd         :      0.18s CPU      0.19s WALL (      16 calls)

     Called by c_bands:
     init_us_2    :     91.00s CPU     98.47s WALL ( 1266394 calls)
     cegterg      :   3377.93s CPU   3600.93s WALL (   95768 calls)

     Called by sum_band:

     Called by *egterg:
     h_psi        :  12664.43s CPU  13675.04s WALL (11648887 calls)
     s_psi        :    348.44s CPU    383.89s WALL (22650512 calls)
     g_psi        :     10.54s CPU     11.39s WALL ( 1465100 calls)
     cdiaghg      :    928.70s CPU    987.86s WALL ( 1538526 calls)

     Called by h_psi:
     h_psi:pot    :  12578.13s CPU  13580.32s WALL (11648887 calls)
     h_psi:calbec :    725.64s CPU    778.53s WALL (11648887 calls)
     vloc_psi     :  11535.51s CPU  12459.01s WALL (11648887 calls)
     add_vuspsi   :    189.44s CPU    207.06s WALL (11648887 calls)

     General routines
     calbec       :   1365.65s CPU   1471.81s WALL (24707239 calls)
     fft          :      5.24s CPU      5.50s WALL (    6496 calls)
     ffts         :     19.75s CPU     21.91s WALL (  112708 calls)
     fftw         :  12772.06s CPU  13863.78s WALL (******** calls)
     interpolate  :      1.11s CPU      1.38s WALL (     890 calls)
     davcio       :    123.46s CPU    248.83s WALL ( 5141640 calls)

     Parallel routines
     fft_scatter  :   5737.50s CPU   6221.78s WALL (******** calls)

     PHONON       :     6h 0m CPU        6h30m WALL

     INITIALIZATION: 
     phq_setup    :      0.66s CPU      0.70s WALL (      16 calls)
     phq_init     :    233.11s CPU    246.81s WALL (      16 calls)

     phq_init     :    233.11s CPU    246.81s WALL (      16 calls)
     init_vloc    :      0.14s CPU      0.14s WALL (      16 calls)
     init_us_1    :      1.39s CPU      1.51s WALL (      16 calls)
     newd         :      0.18s CPU      0.19s WALL (      16 calls)
     dvanqq       :      0.62s CPU      0.63s WALL (      16 calls)
     drho         :    179.86s CPU    190.30s WALL (      16 calls)

     DYNAMICAL MATRIX:
     dynmat0      :     35.42s CPU     36.94s WALL (      16 calls)
     phqscf       :  16207.30s CPU  17715.43s WALL (      16 calls)
     dynmatrix    :      0.25s CPU      0.26s WALL (      16 calls)

     phqscf       :  16207.30s CPU  17715.43s WALL (      16 calls)
     solve_linter :  16149.79s CPU  17653.23s WALL (      40 calls)
     drhodv       :     57.22s CPU     60.81s WALL (      40 calls)

     dynmat0      :     35.42s CPU     36.94s WALL (      16 calls)
     dynmat_us    :     35.37s CPU     36.87s WALL (      16 calls)
     d2ionq       :      0.01s CPU      0.01s WALL (      16 calls)

     dynmat_us    :     35.37s CPU     36.87s WALL (      16 calls)
     addusdynmat  :      0.00s CPU      0.00s WALL (      16 calls)

     phqscf       :  16207.30s CPU  17715.43s WALL (      16 calls)
     solve_linter :  16149.79s CPU  17653.23s WALL (      40 calls)

     solve_linter :  16149.79s CPU  17653.23s WALL (      40 calls)
     dvqpsi_us    :    317.00s CPU    338.83s WALL (  110718 calls)
     ortho        :    214.77s CPU    229.56s WALL (  987032 calls)
     cgsolve      :  12770.88s CPU  13859.03s WALL (  987032 calls)
     incdrhoscf   :   1249.73s CPU   1416.13s WALL (  987032 calls)
     addusddens   :      4.70s CPU      4.73s WALL (     391 calls)
     vpsifft      :   1015.51s CPU   1102.79s WALL (  876314 calls)
     dv_of_drho   :      3.76s CPU      3.85s WALL (     405 calls)
     mix_pot      :      0.62s CPU      2.85s WALL (     351 calls)
     ef_shift     :      0.04s CPU      0.13s WALL (       7 calls)
     localdos     :      0.22s CPU      0.23s WALL (       1 calls)
     psymdvscf    :     25.84s CPU     26.44s WALL (     351 calls)
     newdq        :      4.60s CPU      4.68s WALL (     351 calls)
     adddvscf     :     54.54s CPU     58.44s WALL (  876314 calls)
     drhodvus     :      0.03s CPU      0.04s WALL (      40 calls)

     dvqpsi_us    :    317.00s CPU    338.83s WALL (  110718 calls)
     dvqpsi_us_on :     53.14s CPU     55.72s WALL (  110718 calls)

     cgsolve      :  12770.88s CPU  13859.03s WALL (  987032 calls)
     ch_psi       :  12081.09s CPU  13101.47s WALL (10014593 calls)

     ch_psi       :  12081.09s CPU  13101.47s WALL (10014593 calls)
     h_psi        :  12664.43s CPU  13675.04s WALL (11648887 calls)
     last         :   1239.80s CPU   1349.76s WALL (10014593 calls)

     h_psi        :  12664.43s CPU  13675.04s WALL (11648887 calls)
     add_vuspsi   :    189.44s CPU    207.06s WALL (11648887 calls)

     incdrhoscf   :   1249.73s CPU   1416.13s WALL (  987032 calls)
     addusdbec    :    102.72s CPU    109.45s WALL ( 1097750 calls)

     drhodvus     :      0.03s CPU      0.04s WALL (      40 calls)

      General routines
     calbec       :   1365.65s CPU   1471.81s WALL (24707239 calls)
     fft          :      5.24s CPU      5.50s WALL (    6496 calls)
     ffts         :     19.75s CPU     21.91s WALL (  112708 calls)
     fftw         :  12772.06s CPU  13863.78s WALL (******** calls)
     davcio       :    123.46s CPU    248.83s WALL ( 5141640 calls)
     write_rec    :      1.56s CPU      4.12s WALL (     391 calls)


     PHONON       :     6h 0m CPU        6h30m WALL


   This run was terminated on:  20:47:41  12Feb2018            

=------------------------------------------------------------------------------=
   JOB DONE.
=------------------------------------------------------------------------------=
