
     Program PWSCF v.6.1 (svn rev. 13369) starts on 12Feb2018 at 14:16:48 

     This program is part of the open-source Quantum ESPRESSO suite
     for quantum simulation of materials; please cite
         "P. Giannozzi et al., J. Phys.:Condens. Matter 21 395502 (2009);
          URL http://www.quantum-espresso.org", 
     in publications or presentations arising from this work. More details at
     http://www.quantum-espresso.org/quote

     Parallel version (MPI), running on    64 processors
     K-points division:     npool     =       4
     R & G space division:  proc/nbgrp/npool/nimage =      16
     Waiting for input...
     Reading input from standard input

     Current dimensions of program PWSCF are:
     Max number of different atomic species (ntypx) = 10
     Max number of k-points (npk) =  80000
     Max angular momentum in pseudopotentials (lmaxx) =  3

     Subspace diagonalization in iterative solution of the eigenvalue problem:
     a serial algorithm will be used


     Parallelization info
     --------------------
     sticks:   dense  smooth     PW     G-vecs:    dense   smooth      PW
     Min          64      31     10                 1346      475      90
     Max          65      32     11                 1349      478      94
     Sum        1027     511    163                21547     7631    1459



     bravais-lattice index     =            2
     lattice parameter (alat)  =       9.6000  a.u.
     unit-cell volume          =     221.1840 (a.u.)^3
     number of atoms/cell      =            1
     number of atomic types    =            1
     number of electrons       =         9.00
     number of Kohn-Sham states=            9
     kinetic-energy cutoff     =      40.0000  Ry
     charge density cutoff     =     320.0000  Ry
     convergence threshold     =      1.0E-10
     mixing beta               =       0.7000
     number of iterations used =            8  plain     mixing
     Exchange-correlation      = SLA  PW   PBE  PBE ( 1  4  3  4 0 0)

     celldm(1)=   9.600000  celldm(2)=   0.000000  celldm(3)=   0.000000
     celldm(4)=   0.000000  celldm(5)=   0.000000  celldm(6)=   0.000000

     crystal axes: (cart. coord. in units of alat)
               a(1) = (  -0.500000   0.000000   0.500000 )  
               a(2) = (   0.000000   0.500000   0.500000 )  
               a(3) = (  -0.500000   0.500000   0.000000 )  

     reciprocal axes: (cart. coord. in units 2 pi/alat)
               b(1) = ( -1.000000 -1.000000  1.000000 )  
               b(2) = (  1.000000  1.000000  1.000000 )  
               b(3) = ( -1.000000  1.000000 -1.000000 )  


     PseudoPot. # 1 for Na read from file:
     /home/s1333534/quantum_espresso/qe-6.1/pseudo/Na_pbe_v1.uspp.F.UPF
     MD5 check sum: 76a99c7e9422403d3e93cbc85ab7bccb
     Pseudo is Ultrasoft, Zval =  9.0
     Generated by new atomic code, or converted to UPF format
     Using radial grid of  819 points,  5 beta functions with: 
                l(1) =   0
                l(2) =   0
                l(3) =   1
                l(4) =   1
                l(5) =   2
     Q(r) pseudized with  8 coefficients,  rinner =    1.250   1.250   1.250
                                                       1.250   1.250

     atomic species   valence    mass     pseudopotential
        Na             9.00    22.99000     Na( 1.00)

     48 Sym. Ops., with inversion, found



   Cartesian axes

     site n.     atom                  positions (alat units)
         1           Na  tau(   1) = (   0.0000000   0.0000000   0.0000000  )

     number of k points=   770  Marzari-Vanderbilt smearing, width (Ry)=  0.0200

     Number of k-points >= 100: set verbosity='high' to print them.

     Dense  grid:    21547 G-vectors     FFT dimensions: (  40,  40,  40)

     Smooth grid:     7631 G-vectors     FFT dimensions: (  27,  27,  27)

     Estimated max dynamical RAM per process >       2.55MB

     Estimated total allocated dynamical RAM >     163.34MB

     Initial potential from superposition of free atoms

     starting charge    8.99371, renormalised to    9.00000
     Starting wfc are    5 randomized atomic wfcs +    4 random wfc

     total cpu time spent up to now is        1.0 secs

     per-process dynamical memory:     8.6 Mb

     Self-consistent Calculation

     iteration #  1     ecut=    40.00 Ry     beta=0.70
     Davidson diagonalization with overlap
     ethr =  1.00E-02,  avg # of iterations =  5.4

     Threshold (ethr) on eigenvalues was too large:
     Diagonalizing with lowered threshold

     Davidson diagonalization with overlap
     ethr =  1.05E-05,  avg # of iterations =  3.7

     total cpu time spent up to now is        8.0 secs

     total energy              =     -95.10539447 Ry
     Harris-Foulkes estimate   =     -95.10566116 Ry
     estimated scf accuracy    <       0.00094382 Ry

     iteration #  2     ecut=    40.00 Ry     beta=0.70
     Davidson diagonalization with overlap
     ethr =  1.05E-05,  avg # of iterations =  2.0

     total cpu time spent up to now is       10.2 secs

     total energy              =     -95.10550510 Ry
     Harris-Foulkes estimate   =     -95.10553009 Ry
     estimated scf accuracy    <       0.00010406 Ry

     iteration #  3     ecut=    40.00 Ry     beta=0.70
     Davidson diagonalization with overlap
     ethr =  1.16E-06,  avg # of iterations =  2.1

     total cpu time spent up to now is       12.7 secs

     total energy              =     -95.10551737 Ry
     Harris-Foulkes estimate   =     -95.10551854 Ry
     estimated scf accuracy    <       0.00000624 Ry

     iteration #  4     ecut=    40.00 Ry     beta=0.70
     Davidson diagonalization with overlap
     ethr =  6.94E-08,  avg # of iterations =  1.0

     total cpu time spent up to now is       14.5 secs

     total energy              =     -95.10551795 Ry
     Harris-Foulkes estimate   =     -95.10551790 Ry
     estimated scf accuracy    <          9.3E-09 Ry

     iteration #  5     ecut=    40.00 Ry     beta=0.70
     Davidson diagonalization with overlap
     ethr =  1.03E-10,  avg # of iterations =  3.0

     total cpu time spent up to now is       17.1 secs

     total energy              =     -95.10551798 Ry
     Harris-Foulkes estimate   =     -95.10551798 Ry
     estimated scf accuracy    <          1.6E-09 Ry

     iteration #  6     ecut=    40.00 Ry     beta=0.70
     Davidson diagonalization with overlap
     ethr =  1.74E-11,  avg # of iterations =  1.6

     total cpu time spent up to now is       19.2 secs

     End of self-consistent calculation

     Number of k-points >= 100: set verbosity='high' to print the bands.

     the Fermi energy is     2.1511 ev

!    total energy              =     -95.10551798 Ry
     Harris-Foulkes estimate   =     -95.10551798 Ry
     estimated scf accuracy    <          3.0E-11 Ry

     The total energy is the sum of the following terms:

     one-electron contribution =     -85.41862279 Ry
     hartree contribution      =      43.28287932 Ry
     xc contribution           =     -14.28495837 Ry
     ewald contribution        =     -38.68477375 Ry
     smearing contrib. (-TS)   =      -0.00004239 Ry

     convergence has been achieved in   6 iterations


     Computing stress (Cartesian axis) and pressure

          total   stress  (Ry/bohr**3)                   (kbar)     P=    8.80
   0.00005983   0.00000000  -0.00000000          8.80      0.00     -0.00
   0.00000000   0.00005983   0.00000000          0.00      8.80      0.00
   0.00000000   0.00000000   0.00005983          0.00      0.00      8.80


     Writing output data file na.fcc.save

     init_run     :      0.73s CPU      0.78s WALL (       1 calls)
     electrons    :     17.05s CPU     18.22s WALL (       1 calls)
     stress       :      0.39s CPU      0.40s WALL (       1 calls)

     Called by init_run:
     wfcinit      :      0.56s CPU      0.58s WALL (       1 calls)
     potinit      :      0.03s CPU      0.03s WALL (       1 calls)

     Called by electrons:
     c_bands      :     14.78s CPU     15.83s WALL (       7 calls)
     sum_band     :      2.13s CPU      2.24s WALL (       7 calls)
     v_of_rho     :      0.07s CPU      0.07s WALL (       7 calls)
     newd         :      0.06s CPU      0.07s WALL (       7 calls)
     mix_rho      :      0.01s CPU      0.01s WALL (       7 calls)

     Called by c_bands:
     init_us_2    :      0.22s CPU      0.23s WALL (    3088 calls)
     cegterg      :     12.76s CPU     13.78s WALL (    1351 calls)

     Called by sum_band:
     sum_band:bec :      0.01s CPU      0.01s WALL (    1351 calls)
     addusdens    :      0.07s CPU      0.08s WALL (       7 calls)

     Called by *egterg:
     h_psi        :      9.44s CPU     10.00s WALL (    5307 calls)
     s_psi        :      0.10s CPU      0.11s WALL (    5307 calls)
     g_psi        :      0.02s CPU      0.03s WALL (    3763 calls)
     cdiaghg      :      2.19s CPU      2.40s WALL (    4921 calls)

     Called by h_psi:
     h_psi:pot    :      9.40s CPU      9.95s WALL (    5307 calls)
     h_psi:calbec :      0.38s CPU      0.40s WALL (    5307 calls)
     vloc_psi     :      8.86s CPU      9.39s WALL (    5307 calls)
     add_vuspsi   :      0.11s CPU      0.12s WALL (    5307 calls)

     General routines
     calbec       :      0.50s CPU      0.53s WALL (    6851 calls)
     fft          :      0.07s CPU      0.08s WALL (     117 calls)
     ffts         :      0.01s CPU      0.01s WALL (      14 calls)
     fftw         :      9.50s CPU     10.05s WALL (   78771 calls)
     interpolate  :      0.02s CPU      0.02s WALL (      14 calls)
     davcio       :      0.00s CPU      0.09s WALL (     193 calls)

     Parallel routines
     fft_scatter  :      4.57s CPU      4.84s WALL (   78902 calls)

     PWSCF        :    21.16s CPU        22.63s WALL


   This run was terminated on:  14:17:10  12Feb2018            

=------------------------------------------------------------------------------=
   JOB DONE.
=------------------------------------------------------------------------------=
