
     Program PWSCF v.6.1 (svn rev. 13369) starts on 31Jan2018 at  9:57:51 

     This program is part of the open-source Quantum ESPRESSO suite
     for quantum simulation of materials; please cite
         "P. Giannozzi et al., J. Phys.:Condens. Matter 21 395502 (2009);
          URL http://www.quantum-espresso.org", 
     in publications or presentations arising from this work. More details at
     http://www.quantum-espresso.org/quote

     Parallel version (MPI), running on     4 processors
     R & G space division:  proc/nbgrp/npool/nimage =       4
     Waiting for input...
     Reading input from standard input

     Current dimensions of program PWSCF are:
     Max number of different atomic species (ntypx) = 10
     Max number of k-points (npk) =  80000
     Max angular momentum in pseudopotentials (lmaxx) =  3

     Subspace diagonalization in iterative solution of the eigenvalue problem:
     a serial algorithm will be used


     Parallelization info
     --------------------
     sticks:   dense  smooth     PW     G-vecs:    dense   smooth      PW
     Min         267     136     46                 5821     2072     409
     Max         268     137     47                 5825     2073     411
     Sum        1069     547    187                23289     8291    1639



     bravais-lattice index     =            2
     lattice parameter (alat)  =       9.8825  a.u.
     unit-cell volume          =     241.2875 (a.u.)^3
     number of atoms/cell      =            1
     number of atomic types    =            1
     number of electrons       =         9.00
     number of Kohn-Sham states=            9
     kinetic-energy cutoff     =      40.0000  Ry
     charge density cutoff     =     320.0000  Ry
     convergence threshold     =      1.0E-10
     mixing beta               =       0.7000
     number of iterations used =            8  plain     mixing
     Exchange-correlation      = SLA  PW   PBE  PBE ( 1  4  3  4 0 0)

     celldm(1)=   9.882457  celldm(2)=   0.000000  celldm(3)=   0.000000
     celldm(4)=   0.000000  celldm(5)=   0.000000  celldm(6)=   0.000000

     crystal axes: (cart. coord. in units of alat)
               a(1) = (  -0.500000   0.000000   0.500000 )  
               a(2) = (   0.000000   0.500000   0.500000 )  
               a(3) = (  -0.500000   0.500000   0.000000 )  

     reciprocal axes: (cart. coord. in units 2 pi/alat)
               b(1) = ( -1.000000 -1.000000  1.000000 )  
               b(2) = (  1.000000  1.000000  1.000000 )  
               b(3) = ( -1.000000  1.000000 -1.000000 )  


     PseudoPot. # 1 for Na read from file:
     /home/s1333534/quantum_espresso/qe-6.1/pseudo/Na_pbe_v1.uspp.F.UPF
     MD5 check sum: 76a99c7e9422403d3e93cbc85ab7bccb
     Pseudo is Ultrasoft, Zval =  9.0
     Generated by new atomic code, or converted to UPF format
     Using radial grid of  819 points,  5 beta functions with: 
                l(1) =   0
                l(2) =   0
                l(3) =   1
                l(4) =   1
                l(5) =   2
     Q(r) pseudized with  8 coefficients,  rinner =    1.250   1.250   1.250
                                                       1.250   1.250

     atomic species   valence    mass     pseudopotential
        Na             9.00    22.99000     Na( 1.00)

     48 Sym. Ops., with inversion, found



   Cartesian axes

     site n.     atom                  positions (alat units)
         1           Na  tau(   1) = (   0.0000000   0.0000000   0.0000000  )

     number of k points=   770  Marzari-Vanderbilt smearing, width (Ry)=  0.0200

     Number of k-points >= 100: set verbosity='high' to print them.

     Dense  grid:    23289 G-vectors     FFT dimensions: (  40,  40,  40)

     Smooth grid:     8291 G-vectors     FFT dimensions: (  30,  30,  30)

     Estimated max dynamical RAM per process >      30.99MB

     Estimated total allocated dynamical RAM >     123.95MB

     Initial potential from superposition of free atoms

     starting charge    8.99371, renormalised to    9.00000
     Starting wfc are    5 randomized atomic wfcs +    4 random wfc

     total cpu time spent up to now is        2.2 secs

     per-process dynamical memory:    38.2 Mb

     Self-consistent Calculation

     iteration #  1     ecut=    40.00 Ry     beta=0.70
     Davidson diagonalization with overlap
     ethr =  1.00E-02,  avg # of iterations =  5.5

     Threshold (ethr) on eigenvalues was too large:
     Diagonalizing with lowered threshold

     Davidson diagonalization with overlap
     ethr =  9.95E-06,  avg # of iterations =  3.9

     total cpu time spent up to now is       18.5 secs

     total energy              =     -95.10638313 Ry
     Harris-Foulkes estimate   =     -95.10661292 Ry
     estimated scf accuracy    <       0.00089301 Ry

     iteration #  2     ecut=    40.00 Ry     beta=0.70
     Davidson diagonalization with overlap
     ethr =  9.92E-06,  avg # of iterations =  2.0

     total cpu time spent up to now is       24.0 secs

     total energy              =     -95.10648264 Ry
     Harris-Foulkes estimate   =     -95.10650488 Ry
     estimated scf accuracy    <       0.00009753 Ry

     iteration #  3     ecut=    40.00 Ry     beta=0.70
     Davidson diagonalization with overlap
     ethr =  1.08E-06,  avg # of iterations =  2.1

     total cpu time spent up to now is       29.7 secs

     total energy              =     -95.10649444 Ry
     Harris-Foulkes estimate   =     -95.10649551 Ry
     estimated scf accuracy    <       0.00000585 Ry

     iteration #  4     ecut=    40.00 Ry     beta=0.70
     Davidson diagonalization with overlap
     ethr =  6.50E-08,  avg # of iterations =  1.0

     total cpu time spent up to now is       34.6 secs

     total energy              =     -95.10649500 Ry
     Harris-Foulkes estimate   =     -95.10649495 Ry
     estimated scf accuracy    <       0.00000001 Ry

     iteration #  5     ecut=    40.00 Ry     beta=0.70
     Davidson diagonalization with overlap
     ethr =  1.21E-10,  avg # of iterations =  3.0

     total cpu time spent up to now is       41.4 secs

     total energy              =     -95.10649503 Ry
     Harris-Foulkes estimate   =     -95.10649503 Ry
     estimated scf accuracy    <          1.6E-09 Ry

     iteration #  6     ecut=    40.00 Ry     beta=0.70
     Davidson diagonalization with overlap
     ethr =  1.83E-11,  avg # of iterations =  1.6

     total cpu time spent up to now is       46.4 secs

     End of self-consistent calculation

     Number of k-points >= 100: set verbosity='high' to print the bands.

     the Fermi energy is     1.7569 ev

!    total energy              =     -95.10649503 Ry
     Harris-Foulkes estimate   =     -95.10649503 Ry
     estimated scf accuracy    <          8.0E-12 Ry

     The total energy is the sum of the following terms:

     one-electron contribution =     -87.35565034 Ry
     hartree contribution      =      44.10150242 Ry
     xc contribution           =     -14.27320431 Ry
     ewald contribution        =     -37.57909717 Ry
     smearing contrib. (-TS)   =      -0.00004563 Ry

     convergence has been achieved in   6 iterations


     Computing stress (Cartesian axis) and pressure

          total   stress  (Ry/bohr**3)                   (kbar)     P=    0.09
   0.00000062  -0.00000000  -0.00000000          0.09     -0.00     -0.00
  -0.00000000   0.00000062   0.00000000         -0.00      0.09      0.00
  -0.00000000   0.00000000   0.00000062         -0.00      0.00      0.09


     Writing output data file na.fcc.save

     init_run     :      2.06s CPU      2.15s WALL (       1 calls)
     electrons    :     41.73s CPU     44.27s WALL (       1 calls)
     stress       :      1.42s CPU      1.43s WALL (       1 calls)

     Called by init_run:
     wfcinit      :      1.85s CPU      1.94s WALL (       1 calls)
     potinit      :      0.02s CPU      0.02s WALL (       1 calls)

     Called by electrons:
     c_bands      :     34.94s CPU     37.11s WALL (       7 calls)
     sum_band     :      6.61s CPU      6.95s WALL (       7 calls)
     v_of_rho     :      0.08s CPU      0.08s WALL (       7 calls)
     newd         :      0.11s CPU      0.11s WALL (       7 calls)
     mix_rho      :      0.01s CPU      0.01s WALL (       7 calls)

     Called by c_bands:
     init_us_2    :      1.26s CPU      1.32s WALL (   12320 calls)
     cegterg      :     33.65s CPU     35.73s WALL (    5390 calls)

     Called by sum_band:
     sum_band:bec :      0.02s CPU      0.02s WALL (    5390 calls)
     addusdens    :      0.12s CPU      0.13s WALL (       7 calls)

     Called by *egterg:
     h_psi        :     29.63s CPU     31.44s WALL (   20885 calls)
     s_psi        :      0.28s CPU      0.29s WALL (   20885 calls)
     g_psi        :      0.16s CPU      0.17s WALL (   14725 calls)
     cdiaghg      :      2.92s CPU      3.10s WALL (   19345 calls)

     Called by h_psi:
     h_psi:pot    :     29.50s CPU     31.29s WALL (   20885 calls)
     h_psi:calbec :      0.48s CPU      0.51s WALL (   20885 calls)
     vloc_psi     :     28.64s CPU     30.39s WALL (   20885 calls)
     add_vuspsi   :      0.31s CPU      0.33s WALL (   20885 calls)

     General routines
     calbec       :      0.76s CPU      0.80s WALL (   27045 calls)
     fft          :      0.04s CPU      0.05s WALL (     117 calls)
     ffts         :      0.00s CPU      0.00s WALL (      14 calls)
     fftw         :     30.49s CPU     32.31s WALL (  312100 calls)
     interpolate  :      0.01s CPU      0.01s WALL (      14 calls)
     davcio       :      0.00s CPU      0.01s WALL (     770 calls)

     Parallel routines
     fft_scatter  :      5.32s CPU      5.67s WALL (  312231 calls)

     PWSCF        :    46.22s CPU        59.91s WALL


   This run was terminated on:   9:58:51  31Jan2018            

=------------------------------------------------------------------------------=
   JOB DONE.
=------------------------------------------------------------------------------=
