
     Program PWSCF v.6.1 (svn rev. 13369) starts on 17Dec2017 at 16:20:48 

     This program is part of the open-source Quantum ESPRESSO suite
     for quantum simulation of materials; please cite
         "P. Giannozzi et al., J. Phys.:Condens. Matter 21 395502 (2009);
          URL http://www.quantum-espresso.org", 
     in publications or presentations arising from this work. More details at
     http://www.quantum-espresso.org/quote

     Parallel version (MPI), running on     4 processors
     R & G space division:  proc/nbgrp/npool/nimage =       4
     Waiting for input...
     Reading input from standard input

     Current dimensions of program PWSCF are:
     Max number of different atomic species (ntypx) = 10
     Max number of k-points (npk) =  40000
     Max angular momentum in pseudopotentials (lmaxx) =  3

     Subspace diagonalization in iterative solution of the eigenvalue problem:
     a serial algorithm will be used


     Parallelization info
     --------------------
     sticks:   dense  smooth     PW     G-vecs:    dense   smooth      PW
     Min         221     111     34                 4180     1473     263
     Max         222     113     35                 4183     1474     265
     Sum         887     449    137                16727     5895    1055



     bravais-lattice index     =            3
     lattice parameter (alat)  =       8.1080  a.u.
     unit-cell volume          =     266.5086 (a.u.)^3
     number of atoms/cell      =            1
     number of atomic types    =            1
     number of electrons       =         9.00
     number of Kohn-Sham states=            9
     kinetic-energy cutoff     =      30.0000  Ry
     charge density cutoff     =     240.0000  Ry
     convergence threshold     =      1.0E-08
     mixing beta               =       0.7000
     number of iterations used =            8  plain     mixing
     Exchange-correlation      = SLA  PW   PBE  PBE ( 1  4  3  4 0 0)

     celldm(1)=   8.108000  celldm(2)=   0.000000  celldm(3)=   0.000000
     celldm(4)=   0.000000  celldm(5)=   0.000000  celldm(6)=   0.000000

     crystal axes: (cart. coord. in units of alat)
               a(1) = (   0.500000   0.500000   0.500000 )  
               a(2) = (  -0.500000   0.500000   0.500000 )  
               a(3) = (  -0.500000  -0.500000   0.500000 )  

     reciprocal axes: (cart. coord. in units 2 pi/alat)
               b(1) = (  1.000000  0.000000  1.000000 )  
               b(2) = ( -1.000000  1.000000  0.000000 )  
               b(3) = (  0.000000 -1.000000  1.000000 )  


     PseudoPot. # 1 for Na read from file:
     /home/max/quantum_espresso/qe-6.1/pseudo/Na_pbe_v1.uspp.F.UPF
     MD5 check sum: 76a99c7e9422403d3e93cbc85ab7bccb
     Pseudo is Ultrasoft, Zval =  9.0
     Generated by new atomic code, or converted to UPF format
     Using radial grid of  819 points,  5 beta functions with: 
                l(1) =   0
                l(2) =   0
                l(3) =   1
                l(4) =   1
                l(5) =   2
     Q(r) pseudized with  8 coefficients,  rinner =    1.250   1.250   1.250
                                                       1.250   1.250

     atomic species   valence    mass     pseudopotential
        Na             9.00    22.99000     Na( 1.00)

     48 Sym. Ops., with inversion, found



   Cartesian axes

     site n.     atom                  positions (alat units)
         1           Na  tau(   1) = (   0.0000000   0.0000000   0.0000000  )

     number of k points=    44  Marzari-Vanderbilt smearing, width (Ry)=  0.0200
                       cart. coord. in units 2pi/alat
        k(    1) = (   0.0000000   0.0000000   0.1000000), wk =   0.0120000
        k(    2) = (   0.0000000  -0.1000000   0.2000000), wk =   0.0480000
        k(    3) = (   0.0000000  -0.2000000   0.3000000), wk =   0.0480000
        k(    4) = (   0.0000000  -0.3000000   0.4000000), wk =   0.0480000
        k(    5) = (   0.0000000  -0.4000000   0.5000000), wk =   0.0480000
        k(    6) = (  -0.1000000   0.1000000   0.1000000), wk =   0.0160000
        k(    7) = (  -0.1000000  -0.1000000   0.3000000), wk =   0.0480000
        k(    8) = (  -0.1000000  -0.2000000   0.4000000), wk =   0.0960000
        k(    9) = (  -0.1000000  -0.3000000   0.5000000), wk =   0.0960000
        k(   10) = (  -0.1000000   0.6000000  -0.4000000), wk =   0.0480000
        k(   11) = (  -0.2000000   0.2000000   0.1000000), wk =   0.0480000
        k(   12) = (  -0.2000000  -0.2000000   0.5000000), wk =   0.0480000
        k(   13) = (  -0.2000000   0.7000000  -0.4000000), wk =   0.0960000
        k(   14) = (  -0.3000000   0.3000000   0.1000000), wk =   0.0480000
        k(   15) = (  -0.3000000   0.2000000   0.2000000), wk =   0.0480000
        k(   16) = (  -0.3000000   0.7000000  -0.3000000), wk =   0.0160000
        k(   17) = (  -0.4000000   0.4000000   0.1000000), wk =   0.0480000
        k(   18) = (  -0.4000000   0.3000000   0.2000000), wk =   0.0960000
        k(   19) = (   0.5000000  -0.5000000   0.1000000), wk =   0.0240000
        k(   20) = (   0.5000000  -0.6000000   0.2000000), wk =   0.0960000
        k(   21) = (   0.5000000  -0.7000000   0.3000000), wk =   0.0480000
        k(   22) = (   0.4000000  -0.6000000   0.3000000), wk =   0.0480000
        k(   23) = (   0.0000000   0.0000000   0.3000000), wk =   0.0120000
        k(   24) = (   0.0000000  -0.1000000   0.4000000), wk =   0.0480000
        k(   25) = (   0.0000000  -0.2000000   0.5000000), wk =   0.0480000
        k(   26) = (   0.0000000  -0.3000000   0.6000000), wk =   0.0480000
        k(   27) = (  -0.1000000  -0.1000000   0.5000000), wk =   0.0480000
        k(   28) = (  -0.1000000  -0.2000000   0.6000000), wk =   0.0960000
        k(   29) = (  -0.1000000   0.7000000  -0.3000000), wk =   0.0480000
        k(   30) = (  -0.2000000   0.8000000  -0.3000000), wk =   0.0480000
        k(   31) = (  -0.3000000   0.3000000   0.3000000), wk =   0.0160000
        k(   32) = (   0.6000000  -0.6000000   0.3000000), wk =   0.0480000
        k(   33) = (   0.5000000  -0.5000000   0.3000000), wk =   0.0240000
        k(   34) = (   0.5000000  -0.6000000   0.4000000), wk =   0.0480000
        k(   35) = (   0.0000000   0.0000000   0.5000000), wk =   0.0120000
        k(   36) = (   0.0000000  -0.1000000   0.6000000), wk =   0.0480000
        k(   37) = (   0.0000000  -0.2000000   0.7000000), wk =   0.0480000
        k(   38) = (  -0.1000000  -0.1000000   0.7000000), wk =   0.0480000
        k(   39) = (  -0.1000000   0.8000000  -0.2000000), wk =   0.0480000
        k(   40) = (   0.5000000  -0.5000000   0.5000000), wk =   0.0040000
        k(   41) = (   0.0000000   0.0000000   0.7000000), wk =   0.0120000
        k(   42) = (   0.0000000  -0.1000000   0.8000000), wk =   0.0480000
        k(   43) = (  -0.1000000   0.9000000  -0.1000000), wk =   0.0160000
        k(   44) = (   0.0000000   0.0000000   0.9000000), wk =   0.0120000

     Dense  grid:    16727 G-vectors     FFT dimensions: (  36,  36,  36)

     Smooth grid:     5895 G-vectors     FFT dimensions: (  25,  25,  25)

     Estimated max dynamical RAM per process >       3.88MB

     Estimated total allocated dynamical RAM >      15.52MB

     Initial potential from superposition of free atoms

     starting charge    8.99371, renormalised to    9.00000
     Starting wfc are    5 randomized atomic wfcs +    4 random wfc

     total cpu time spent up to now is        0.2 secs

     per-process dynamical memory:     8.6 Mb

     Self-consistent Calculation

     iteration #  1     ecut=    30.00 Ry     beta=0.70
     Davidson diagonalization with overlap
     ethr =  1.00E-02,  avg # of iterations =  5.8

     Threshold (ethr) on eigenvalues was too large:
     Diagonalizing with lowered threshold

     Davidson diagonalization with overlap
     ethr =  9.56E-06,  avg # of iterations =  5.0

     total cpu time spent up to now is        1.3 secs

     total energy              =     -95.10397713 Ry
     Harris-Foulkes estimate   =     -95.10424549 Ry
     estimated scf accuracy    <       0.00086862 Ry

     iteration #  2     ecut=    30.00 Ry     beta=0.70
     Davidson diagonalization with overlap
     ethr =  9.65E-06,  avg # of iterations =  1.2

     total cpu time spent up to now is        1.7 secs

     total energy              =     -95.10403903 Ry
     Harris-Foulkes estimate   =     -95.10406365 Ry
     estimated scf accuracy    <       0.00009206 Ry

     iteration #  3     ecut=    30.00 Ry     beta=0.70
     Davidson diagonalization with overlap
     ethr =  1.02E-06,  avg # of iterations =  2.0

     total cpu time spent up to now is        1.9 secs

     total energy              =     -95.10405071 Ry
     Harris-Foulkes estimate   =     -95.10405238 Ry
     estimated scf accuracy    <       0.00000515 Ry

     iteration #  4     ecut=    30.00 Ry     beta=0.70
     Davidson diagonalization with overlap
     ethr =  5.72E-08,  avg # of iterations =  2.0

     total cpu time spent up to now is        2.2 secs

     total energy              =     -95.10405141 Ry
     Harris-Foulkes estimate   =     -95.10405136 Ry
     estimated scf accuracy    <       0.00000002 Ry

     iteration #  5     ecut=    30.00 Ry     beta=0.70
     Davidson diagonalization with overlap
     ethr =  2.78E-10,  avg # of iterations =  2.0

     total cpu time spent up to now is        2.6 secs

     End of self-consistent calculation

          k = 0.0000 0.0000 0.1000 (   719 PWs)   bands (ev):

   -51.6912 -23.5865 -23.5861 -23.5861  -1.7204  11.8352  11.8352  12.3501
    12.7469

          k = 0.0000-0.1000 0.2000 (   727 PWs)   bands (ev):

   -51.6910 -23.5915 -23.5878 -23.5862  -1.3848   9.5466  10.7170  11.5660
    12.1769

          k = 0.0000-0.2000 0.3000 (   735 PWs)   bands (ev):

   -51.6906 -23.5997 -23.5907 -23.5861  -0.7196   7.1707   9.8312  10.7652
    11.4057

          k = 0.0000-0.3000 0.4000 (   744 PWs)   bands (ev):

   -51.6902 -23.6079 -23.5936 -23.5861   0.2640   5.0364   9.2298  10.1842
    10.8676

          k = 0.0000-0.4000 0.5000 (   742 PWs)   bands (ev):

   -51.6899 -23.6129 -23.5953 -23.5860   1.5418   3.1828   8.9267   9.8868
    10.5970

          k =-0.1000 0.1000 0.1000 (   721 PWs)   bands (ev):

   -51.6911 -23.5899 -23.5861 -23.5861  -1.5524  10.6973  10.6973  11.4028
    13.4214

          k =-0.1000-0.1000 0.3000 (   728 PWs)   bands (ev):

   -51.6907 -23.5971 -23.5898 -23.5874  -0.8852   8.2681   8.8295  11.3700
    11.6042

          k =-0.1000-0.2000 0.4000 (   736 PWs)   bands (ev):

   -51.6903 -23.6043 -23.5930 -23.5877  -0.0619   6.2294   7.8750  10.8994
    11.0487

          k =-0.1000-0.3000 0.5000 (   748 PWs)   bands (ev):

   -51.6899 -23.6101 -23.5959 -23.5877   1.0699   4.2581   7.3973  10.5038
    10.6308

          k =-0.1000 0.6000-0.4000 (   743 PWs)   bands (ev):

   -51.6898 -23.6123 -23.5970 -23.5876   2.3105   2.7341   7.2404  10.3703
    10.4798

          k =-0.2000 0.2000 0.1000 (   729 PWs)   bands (ev):

   -51.6908 -23.5967 -23.5884 -23.5861  -1.0512   8.3429   9.6224  10.4151
    12.8042

          k =-0.2000-0.2000 0.5000 (   742 PWs)   bands (ev):

   -51.6899 -23.6080 -23.5968 -23.5887   0.9101   5.3504   6.0378  10.4260
    11.5358

          k =-0.2000 0.7000-0.4000 (   744 PWs)   bands (ev):

   -51.6897 -23.6094 -23.6003 -23.5890   2.1682   3.7767   5.4700  10.1390
    11.5603

          k =-0.3000 0.3000 0.1000 (   741 PWs)   bands (ev):

   -51.6904 -23.6045 -23.5918 -23.5861  -0.2257   6.1005   8.8474   9.7128
    12.0798

          k =-0.3000 0.2000 0.2000 (   727 PWs)   bands (ev):

   -51.6904 -23.6029 -23.5901 -23.5874  -0.3899   7.1878   7.7409   9.3467
    13.3595

          k =-0.3000 0.7000-0.3000 (   742 PWs)   bands (ev):

   -51.6896 -23.6056 -23.6056 -23.5893   3.3691   3.3691   4.2337   9.9945
    12.6255

          k =-0.4000 0.4000 0.1000 (   739 PWs)   bands (ev):

   -51.6900 -23.6107 -23.5946 -23.5861   0.9095   4.1072   8.3813   9.2828
    11.6335

          k =-0.4000 0.3000 0.2000 (   744 PWs)   bands (ev):

   -51.6901 -23.6079 -23.5939 -23.5879   0.5879   5.3017   6.9244   8.7175
    13.0640

          k = 0.5000-0.5000 0.1000 (   744 PWs)   bands (ev):

   -51.6899 -23.6130 -23.5957 -23.5862   2.1597   2.5705   8.2258   9.1380
    11.4838

          k = 0.5000-0.6000 0.2000 (   742 PWs)   bands (ev):

   -51.6899 -23.6104 -23.5968 -23.5881   1.8558   3.4875   6.5964   8.4058
    12.8054

          k = 0.5000-0.7000 0.3000 (   740 PWs)   bands (ev):

   -51.6899 -23.6083 -23.5980 -23.5892   1.7038   4.5848   5.2401   8.2206
    13.8505

          k = 0.4000-0.6000 0.3000 (   738 PWs)   bands (ev):

   -51.6898 -23.6071 -23.6010 -23.5896   2.9140   3.3221   4.8566   8.0590
    13.9609

          k = 0.0000 0.0000 0.3000 (   731 PWs)   bands (ev):

   -51.6908 -23.5926 -23.5896 -23.5896  -1.0512   9.5720   9.5720   9.7570
    11.3432

          k = 0.0000-0.1000 0.4000 (   732 PWs)   bands (ev):

   -51.6903 -23.5993 -23.5926 -23.5902  -0.3898   7.4266   8.6976   9.4338
    11.0899

          k = 0.0000-0.2000 0.5000 (   744 PWs)   bands (ev):

   -51.6900 -23.6069 -23.5955 -23.5900   0.5883   5.3318   8.1125   8.9437
    11.7578

          k = 0.0000-0.3000 0.6000 (   741 PWs)   bands (ev):

   -51.6897 -23.6116 -23.5973 -23.5898   1.8573   3.4963   7.8197   8.6517
    12.3135

          k =-0.1000-0.1000 0.5000 (   737 PWs)   bands (ev):

   -51.6899 -23.6042 -23.5959 -23.5917   0.4266   6.4262   7.0601   9.5193
    10.5976

          k =-0.1000-0.2000 0.6000 (   743 PWs)   bands (ev):

   -51.6896 -23.6087 -23.5991 -23.5918   1.5483   4.6944   6.3762   9.4283
    11.1762

          k =-0.1000 0.7000-0.3000 (   742 PWs)   bands (ev):

   -51.6895 -23.6105 -23.6004 -23.5917   2.7639   3.2139   6.2043   9.3221
    12.0089

          k =-0.2000 0.8000-0.3000 (   745 PWs)   bands (ev):

   -51.6894 -23.6082 -23.6038 -23.5922   2.7822   4.1300   4.8346  10.3008
    10.9723

          k =-0.3000 0.3000 0.3000 (   736 PWs)   bands (ev):

   -51.6902 -23.6070 -23.5906 -23.5906   0.4261   6.4176   6.4176   7.6726
    15.3115

          k = 0.6000-0.6000 0.3000 (   742 PWs)   bands (ev):

   -51.6899 -23.6081 -23.5952 -23.5909   1.5464   4.6641   5.9563   6.9749
    15.2915

          k = 0.5000-0.5000 0.3000 (   740 PWs)   bands (ev):

   -51.6899 -23.6077 -23.5979 -23.5911   2.7626   3.1961   5.8027   6.7803
    15.1604

          k = 0.5000-0.6000 0.4000 (   738 PWs)   bands (ev):

   -51.6898 -23.6050 -23.5989 -23.5932   2.7767   4.1269   4.6843   6.3486
    16.3747

          k = 0.0000 0.0000 0.5000 (   731 PWs)   bands (ev):

   -51.6899 -23.6000 -23.5956 -23.5956   0.2643   7.8011   7.8296   7.8296
     9.5728

          k = 0.0000-0.1000 0.6000 (   739 PWs)   bands (ev):

   -51.6896 -23.6053 -23.5986 -23.5963   1.2314   5.8944   7.2505   7.8435
     9.5499

          k = 0.0000-0.2000 0.7000 (   745 PWs)   bands (ev):

   -51.6894 -23.6094 -23.6005 -23.5959   2.4832   4.1104   6.9612   7.6320
    10.4333

          k =-0.1000-0.1000 0.7000 (   745 PWs)   bands (ev):

   -51.6893 -23.6074 -23.6023 -23.5974   2.3357   5.1994   5.8527   8.2872
     9.2572

          k =-0.1000 0.8000-0.2000 (   746 PWs)   bands (ev):

   -51.6892 -23.6082 -23.6042 -23.5973   3.5219   3.9567   5.4878   8.4448
     9.6836

          k = 0.5000-0.5000 0.5000 (   736 PWs)   bands (ev):

   -51.6898 -23.5992 -23.5992 -23.5992   3.9744   3.9744   3.9744   5.4059
    18.0451

          k = 0.0000 0.0000 0.7000 (   735 PWs)   bands (ev):

   -51.6892 -23.6046 -23.6018 -23.6018   2.1821   6.4956   6.6755   6.6755
     8.1885

          k = 0.0000-0.1000 0.8000 (   735 PWs)   bands (ev):

   -51.6890 -23.6073 -23.6037 -23.6021   3.4090   4.9829   6.3884   6.8594
     8.3633

          k =-0.1000 0.9000-0.1000 (   730 PWs)   bands (ev):

   -51.6889 -23.6064 -23.6064 -23.6026   4.5869   4.5869   5.4240   7.6738
     7.6738

          k = 0.0000 0.0000 0.9000 (   731 PWs)   bands (ev):

   -51.6888 -23.6061 -23.6057 -23.6057   4.6023   5.8426   6.1024   6.1024
     6.9682

     the Fermi energy is     1.3712 ev

!    total energy              =     -95.10405142 Ry
     Harris-Foulkes estimate   =     -95.10405142 Ry
     estimated scf accuracy    <          9.6E-11 Ry

     The total energy is the sum of the following terms:

     one-electron contribution =     -89.50286695 Ry
     hartree contribution      =      45.01620884 Ry
     xc contribution           =     -14.26110648 Ry
     ewald contribution        =     -36.35642692 Ry
     smearing contrib. (-TS)   =       0.00014009 Ry

     convergence has been achieved in   5 iterations


     Computing stress (Cartesian axis) and pressure

          total   stress  (Ry/bohr**3)                   (kbar)     P=   -5.23
  -0.00003555  -0.00000000   0.00000000         -5.23     -0.00      0.00
  -0.00000000  -0.00003555  -0.00000000         -0.00     -5.23     -0.00
   0.00000000  -0.00000000  -0.00003555          0.00     -0.00     -5.23


     Writing output data file na.bcc.save

     init_run     :      0.19s CPU      0.21s WALL (       1 calls)
     electrons    :      2.10s CPU      2.36s WALL (       1 calls)
     stress       :      0.18s CPU      0.32s WALL (       1 calls)

     Called by init_run:
     wfcinit      :      0.07s CPU      0.08s WALL (       1 calls)
     potinit      :      0.01s CPU      0.01s WALL (       1 calls)

     Called by electrons:
     c_bands      :      1.62s CPU      1.75s WALL (       6 calls)
     sum_band     :      0.33s CPU      0.35s WALL (       6 calls)
     v_of_rho     :      0.06s CPU      0.09s WALL (       6 calls)
     newd         :      0.08s CPU      0.16s WALL (       6 calls)
     mix_rho      :      0.00s CPU      0.00s WALL (       6 calls)

     Called by c_bands:
     init_us_2    :      0.04s CPU      0.04s WALL (     616 calls)
     cegterg      :      1.56s CPU      1.67s WALL (     264 calls)

     Called by sum_band:
     sum_band:bec :      0.00s CPU      0.00s WALL (     264 calls)
     addusdens    :      0.07s CPU      0.07s WALL (       6 calls)

     Called by *egterg:
     h_psi        :      1.21s CPU      1.31s WALL (    1104 calls)
     s_psi        :      0.02s CPU      0.02s WALL (    1104 calls)
     g_psi        :      0.01s CPU      0.01s WALL (     796 calls)
     cdiaghg      :      0.19s CPU      0.19s WALL (    1016 calls)

     Called by h_psi:
     h_psi:pot    :      1.21s CPU      1.31s WALL (    1104 calls)
     h_psi:calbec :      0.05s CPU      0.08s WALL (    1104 calls)
     vloc_psi     :      1.13s CPU      1.21s WALL (    1104 calls)
     add_vuspsi   :      0.02s CPU      0.02s WALL (    1104 calls)

     General routines
     calbec       :      0.11s CPU      0.14s WALL (    1412 calls)
     fft          :      0.06s CPU      0.11s WALL (     101 calls)
     ffts         :      0.00s CPU      0.00s WALL (      12 calls)
     fftw         :      1.24s CPU      1.32s WALL (   15460 calls)
     interpolate  :      0.01s CPU      0.02s WALL (      12 calls)
     davcio       :      0.00s CPU      0.00s WALL (      44 calls)

     Parallel routines
     fft_scatter  :      0.43s CPU      0.52s WALL (   15573 calls)

     PWSCF        :     2.73s CPU         3.16s WALL


   This run was terminated on:  16:20:51  17Dec2017            

=------------------------------------------------------------------------------=
   JOB DONE.
=------------------------------------------------------------------------------=
