
     Program PWSCF v.6.1 (svn rev. 13369) starts on 17Dec2017 at 16:26:11 

     This program is part of the open-source Quantum ESPRESSO suite
     for quantum simulation of materials; please cite
         "P. Giannozzi et al., J. Phys.:Condens. Matter 21 395502 (2009);
          URL http://www.quantum-espresso.org", 
     in publications or presentations arising from this work. More details at
     http://www.quantum-espresso.org/quote

     Parallel version (MPI), running on     4 processors
     R & G space division:  proc/nbgrp/npool/nimage =       4
     Waiting for input...
     Reading input from standard input

     Current dimensions of program PWSCF are:
     Max number of different atomic species (ntypx) = 10
     Max number of k-points (npk) =  40000
     Max angular momentum in pseudopotentials (lmaxx) =  3

     Subspace diagonalization in iterative solution of the eigenvalue problem:
     a serial algorithm will be used


     Parallelization info
     --------------------
     sticks:   dense  smooth     PW     G-vecs:    dense   smooth      PW
     Min         741     372    103                25507     9068    1367
     Max         742     373    104                25509     9069    1369
     Sum        2967    1489    415               102033    36273    5473



     bravais-lattice index     =            3
     lattice parameter (alat)  =       8.1080  a.u.
     unit-cell volume          =     266.5086 (a.u.)^3
     number of atoms/cell      =            1
     number of atomic types    =            1
     number of electrons       =         9.00
     number of Kohn-Sham states=            9
     kinetic-energy cutoff     =     100.0000  Ry
     charge density cutoff     =     800.0000  Ry
     convergence threshold     =      1.0E-08
     mixing beta               =       0.7000
     number of iterations used =            8  plain     mixing
     Exchange-correlation      = SLA  PW   PBE  PBE ( 1  4  3  4 0 0)

     celldm(1)=   8.108000  celldm(2)=   0.000000  celldm(3)=   0.000000
     celldm(4)=   0.000000  celldm(5)=   0.000000  celldm(6)=   0.000000

     crystal axes: (cart. coord. in units of alat)
               a(1) = (   0.500000   0.500000   0.500000 )  
               a(2) = (  -0.500000   0.500000   0.500000 )  
               a(3) = (  -0.500000  -0.500000   0.500000 )  

     reciprocal axes: (cart. coord. in units 2 pi/alat)
               b(1) = (  1.000000  0.000000  1.000000 )  
               b(2) = ( -1.000000  1.000000  0.000000 )  
               b(3) = (  0.000000 -1.000000  1.000000 )  


     PseudoPot. # 1 for Na read from file:
     /home/max/quantum_espresso/qe-6.1/pseudo/Na_pbe_v1.uspp.F.UPF
     MD5 check sum: 76a99c7e9422403d3e93cbc85ab7bccb
     Pseudo is Ultrasoft, Zval =  9.0
     Generated by new atomic code, or converted to UPF format
     Using radial grid of  819 points,  5 beta functions with: 
                l(1) =   0
                l(2) =   0
                l(3) =   1
                l(4) =   1
                l(5) =   2
     Q(r) pseudized with  8 coefficients,  rinner =    1.250   1.250   1.250
                                                       1.250   1.250

     atomic species   valence    mass     pseudopotential
        Na             9.00    22.99000     Na( 1.00)

     48 Sym. Ops., with inversion, found



   Cartesian axes

     site n.     atom                  positions (alat units)
         1           Na  tau(   1) = (   0.0000000   0.0000000   0.0000000  )

     number of k points=    44  Marzari-Vanderbilt smearing, width (Ry)=  0.0200
                       cart. coord. in units 2pi/alat
        k(    1) = (   0.0000000   0.0000000   0.1000000), wk =   0.0120000
        k(    2) = (   0.0000000  -0.1000000   0.2000000), wk =   0.0480000
        k(    3) = (   0.0000000  -0.2000000   0.3000000), wk =   0.0480000
        k(    4) = (   0.0000000  -0.3000000   0.4000000), wk =   0.0480000
        k(    5) = (   0.0000000  -0.4000000   0.5000000), wk =   0.0480000
        k(    6) = (  -0.1000000   0.1000000   0.1000000), wk =   0.0160000
        k(    7) = (  -0.1000000  -0.1000000   0.3000000), wk =   0.0480000
        k(    8) = (  -0.1000000  -0.2000000   0.4000000), wk =   0.0960000
        k(    9) = (  -0.1000000  -0.3000000   0.5000000), wk =   0.0960000
        k(   10) = (  -0.1000000   0.6000000  -0.4000000), wk =   0.0480000
        k(   11) = (  -0.2000000   0.2000000   0.1000000), wk =   0.0480000
        k(   12) = (  -0.2000000  -0.2000000   0.5000000), wk =   0.0480000
        k(   13) = (  -0.2000000   0.7000000  -0.4000000), wk =   0.0960000
        k(   14) = (  -0.3000000   0.3000000   0.1000000), wk =   0.0480000
        k(   15) = (  -0.3000000   0.2000000   0.2000000), wk =   0.0480000
        k(   16) = (  -0.3000000   0.7000000  -0.3000000), wk =   0.0160000
        k(   17) = (  -0.4000000   0.4000000   0.1000000), wk =   0.0480000
        k(   18) = (  -0.4000000   0.3000000   0.2000000), wk =   0.0960000
        k(   19) = (   0.5000000  -0.5000000   0.1000000), wk =   0.0240000
        k(   20) = (   0.5000000  -0.6000000   0.2000000), wk =   0.0960000
        k(   21) = (   0.5000000  -0.7000000   0.3000000), wk =   0.0480000
        k(   22) = (   0.4000000  -0.6000000   0.3000000), wk =   0.0480000
        k(   23) = (   0.0000000   0.0000000   0.3000000), wk =   0.0120000
        k(   24) = (   0.0000000  -0.1000000   0.4000000), wk =   0.0480000
        k(   25) = (   0.0000000  -0.2000000   0.5000000), wk =   0.0480000
        k(   26) = (   0.0000000  -0.3000000   0.6000000), wk =   0.0480000
        k(   27) = (  -0.1000000  -0.1000000   0.5000000), wk =   0.0480000
        k(   28) = (  -0.1000000  -0.2000000   0.6000000), wk =   0.0960000
        k(   29) = (  -0.1000000   0.7000000  -0.3000000), wk =   0.0480000
        k(   30) = (  -0.2000000   0.8000000  -0.3000000), wk =   0.0480000
        k(   31) = (  -0.3000000   0.3000000   0.3000000), wk =   0.0160000
        k(   32) = (   0.6000000  -0.6000000   0.3000000), wk =   0.0480000
        k(   33) = (   0.5000000  -0.5000000   0.3000000), wk =   0.0240000
        k(   34) = (   0.5000000  -0.6000000   0.4000000), wk =   0.0480000
        k(   35) = (   0.0000000   0.0000000   0.5000000), wk =   0.0120000
        k(   36) = (   0.0000000  -0.1000000   0.6000000), wk =   0.0480000
        k(   37) = (   0.0000000  -0.2000000   0.7000000), wk =   0.0480000
        k(   38) = (  -0.1000000  -0.1000000   0.7000000), wk =   0.0480000
        k(   39) = (  -0.1000000   0.8000000  -0.2000000), wk =   0.0480000
        k(   40) = (   0.5000000  -0.5000000   0.5000000), wk =   0.0040000
        k(   41) = (   0.0000000   0.0000000   0.7000000), wk =   0.0120000
        k(   42) = (   0.0000000  -0.1000000   0.8000000), wk =   0.0480000
        k(   43) = (  -0.1000000   0.9000000  -0.1000000), wk =   0.0160000
        k(   44) = (   0.0000000   0.0000000   0.9000000), wk =   0.0120000

     Dense  grid:   102033 G-vectors     FFT dimensions: (  64,  64,  64)

     Smooth grid:    36273 G-vectors     FFT dimensions: (  45,  45,  45)

     Estimated max dynamical RAM per process >      23.04MB

     Estimated total allocated dynamical RAM >      92.18MB

     Initial potential from superposition of free atoms

     starting charge    8.99371, renormalised to    9.00000
     Starting wfc are    5 randomized atomic wfcs +    4 random wfc

     total cpu time spent up to now is        1.4 secs

     per-process dynamical memory:    24.1 Mb

     Self-consistent Calculation

     iteration #  1     ecut=   100.00 Ry     beta=0.70
     Davidson diagonalization with overlap
     ethr =  1.00E-02,  avg # of iterations =  6.0

     Threshold (ethr) on eigenvalues was too large:
     Diagonalizing with lowered threshold

     Davidson diagonalization with overlap
     ethr =  1.00E-05,  avg # of iterations =  5.2

     total cpu time spent up to now is        8.2 secs

     total energy              =     -95.10380406 Ry
     Harris-Foulkes estimate   =     -95.09882183 Ry
     estimated scf accuracy    <       0.00089787 Ry

     iteration #  2     ecut=   100.00 Ry     beta=0.70
     Davidson diagonalization with overlap
     ethr =  9.98E-06,  avg # of iterations =  2.1

     total cpu time spent up to now is       10.6 secs

     total energy              =     -95.10878375 Ry
     Harris-Foulkes estimate   =     -95.10399550 Ry
     estimated scf accuracy    <       0.00006391 Ry

     iteration #  3     ecut=   100.00 Ry     beta=0.70
     Davidson diagonalization with overlap
     ethr =  7.10E-07,  avg # of iterations =  2.0

     total cpu time spent up to now is       13.3 secs

     total energy              =     -95.10891428 Ry
     Harris-Foulkes estimate   =     -95.10881729 Ry
     estimated scf accuracy    <       0.00000936 Ry

     iteration #  4     ecut=   100.00 Ry     beta=0.70
     Davidson diagonalization with overlap
     ethr =  1.04E-07,  avg # of iterations =  1.6

     total cpu time spent up to now is       15.3 secs

     total energy              =     -95.10891954 Ry
     Harris-Foulkes estimate   =     -95.10891528 Ry
     estimated scf accuracy    <       0.00000009 Ry

     iteration #  5     ecut=   100.00 Ry     beta=0.70
     Davidson diagonalization with overlap
     ethr =  9.74E-10,  avg # of iterations =  2.1

     total cpu time spent up to now is       17.7 secs

     End of self-consistent calculation

          k = 0.0000 0.0000 0.1000 (  4497 PWs)   bands (ev):

   -51.7072 -23.6081 -23.6077 -23.6077  -1.7164  11.8405  11.8405  12.3519
    12.7530

          k = 0.0000-0.1000 0.2000 (  4496 PWs)   bands (ev):

   -51.7070 -23.6131 -23.6094 -23.6078  -1.3809   9.5503  10.7217  11.5691
    12.1827

          k = 0.0000-0.2000 0.3000 (  4486 PWs)   bands (ev):

   -51.7065 -23.6213 -23.6123 -23.6077  -0.7158   7.1741   9.8355  10.7685
    11.4113

          k = 0.0000-0.3000 0.4000 (  4504 PWs)   bands (ev):

   -51.7061 -23.6296 -23.6152 -23.6076   0.2676   5.0399   9.2339  10.1877
    10.8732

          k = 0.0000-0.4000 0.5000 (  4511 PWs)   bands (ev):

   -51.7059 -23.6346 -23.6169 -23.6076   1.5449   3.1866   8.9307   9.8903
    10.6025

          k =-0.1000 0.1000 0.1000 (  4498 PWs)   bands (ev):

   -51.7071 -23.6116 -23.6077 -23.6077  -1.5484  10.7008  10.7008  11.4095
    13.4257

          k =-0.1000-0.1000 0.3000 (  4496 PWs)   bands (ev):

   -51.7066 -23.6187 -23.6114 -23.6090  -0.8814   8.2710   8.8342  11.3732
    11.6098

          k =-0.1000-0.2000 0.4000 (  4495 PWs)   bands (ev):

   -51.7062 -23.6260 -23.6146 -23.6093  -0.0583   6.2327   7.8791  10.9038
    11.0533

          k =-0.1000-0.3000 0.5000 (  4501 PWs)   bands (ev):

   -51.7059 -23.6318 -23.6175 -23.6093   1.0732   4.2616   7.4013  10.5084
    10.6355

          k =-0.1000 0.6000-0.4000 (  4494 PWs)   bands (ev):

   -51.7057 -23.6340 -23.6186 -23.6093   2.3123   2.7391   7.2444  10.3749
    10.4846

          k =-0.2000 0.2000 0.1000 (  4491 PWs)   bands (ev):

   -51.7067 -23.6183 -23.6100 -23.6077  -1.0474   8.3463   9.6256  10.4216
    12.8078

          k =-0.2000-0.2000 0.5000 (  4492 PWs)   bands (ev):

   -51.7059 -23.6296 -23.6185 -23.6103   0.9135   5.3528   6.0429  10.4312
    11.5392

          k =-0.2000 0.7000-0.4000 (  4514 PWs)   bands (ev):

   -51.7057 -23.6311 -23.6220 -23.6106   2.1712   3.7800   5.4745  10.1442
    11.5643

          k =-0.3000 0.3000 0.1000 (  4488 PWs)   bands (ev):

   -51.7063 -23.6262 -23.6134 -23.6077  -0.2220   6.1039   8.8505   9.7191
    12.0831

          k =-0.3000 0.2000 0.2000 (  4487 PWs)   bands (ev):

   -51.7064 -23.6246 -23.6117 -23.6090  -0.3862   7.1905   7.7449   9.3526
    13.3628

          k =-0.3000 0.7000-0.3000 (  4508 PWs)   bands (ev):

   -51.7056 -23.6273 -23.6273 -23.6110   3.3711   3.3711   4.2404   9.9997
    12.6291

          k =-0.4000 0.4000 0.1000 (  4503 PWs)   bands (ev):

   -51.7060 -23.6324 -23.6162 -23.6077   0.9129   4.1108   8.3843   9.2891
    11.6365

          k =-0.4000 0.3000 0.2000 (  4499 PWs)   bands (ev):

   -51.7060 -23.6296 -23.6155 -23.6095   0.5914   5.3049   6.9281   8.7233
    13.0682

          k = 0.5000-0.5000 0.1000 (  4502 PWs)   bands (ev):

   -51.7058 -23.6347 -23.6173 -23.6077   2.1615   2.5756   8.2288   9.1442
    11.4870

          k = 0.5000-0.6000 0.2000 (  4508 PWs)   bands (ev):

   -51.7058 -23.6322 -23.6184 -23.6097   1.8589   3.4912   6.6000   8.4114
    12.8096

          k = 0.5000-0.7000 0.3000 (  4515 PWs)   bands (ev):

   -51.7058 -23.6300 -23.6196 -23.6108   1.7070   4.5871   5.2451   8.2260
    13.8544

          k = 0.4000-0.6000 0.3000 (  4507 PWs)   bands (ev):

   -51.7057 -23.6288 -23.6227 -23.6112   2.9160   3.3260   4.8612   8.0643
    13.9653

          k = 0.0000 0.0000 0.3000 (  4489 PWs)   bands (ev):

   -51.7067 -23.6142 -23.6112 -23.6112  -1.0474   9.5765   9.5765   9.7585
    11.3496

          k = 0.0000-0.1000 0.4000 (  4492 PWs)   bands (ev):

   -51.7063 -23.6210 -23.6142 -23.6119  -0.3861   7.4298   8.7019   9.4370
    11.0959

          k = 0.0000-0.2000 0.5000 (  4506 PWs)   bands (ev):

   -51.7059 -23.6286 -23.6171 -23.6116   0.5918   5.3352   8.1167   8.9475
    11.7632

          k = 0.0000-0.3000 0.6000 (  4517 PWs)   bands (ev):

   -51.7056 -23.6333 -23.6189 -23.6114   1.8603   3.5000   7.8237   8.6557
    12.3190

          k =-0.1000-0.1000 0.5000 (  4491 PWs)   bands (ev):

   -51.7059 -23.6258 -23.6176 -23.6134   0.4301   6.4288   7.0649   9.5223
    10.6038

          k =-0.1000-0.2000 0.6000 (  4500 PWs)   bands (ev):

   -51.7056 -23.6304 -23.6208 -23.6135   1.5515   4.6977   6.3806   9.4319
    11.1813

          k =-0.1000 0.7000-0.3000 (  4508 PWs)   bands (ev):

   -51.7055 -23.6322 -23.6221 -23.6134   2.7658   3.2185   6.2085   9.3260
    12.0123

          k =-0.2000 0.8000-0.3000 (  4516 PWs)   bands (ev):

   -51.7054 -23.6299 -23.6255 -23.6139   2.7850   4.1322   4.8404  10.3040
    10.9767

          k =-0.3000 0.3000 0.3000 (  4483 PWs)   bands (ev):

   -51.7061 -23.6286 -23.6122 -23.6122   0.4296   6.4202   6.4202   7.6800
    15.3164

          k = 0.6000-0.6000 0.3000 (  4501 PWs)   bands (ev):

   -51.7059 -23.6298 -23.6169 -23.6125   1.5496   4.6671   5.9588   6.9820
    15.2959

          k = 0.5000-0.5000 0.3000 (  4498 PWs)   bands (ev):

   -51.7058 -23.6294 -23.6195 -23.6127   2.7645   3.2005   5.8052   6.7873
    15.1646

          k = 0.5000-0.6000 0.4000 (  4516 PWs)   bands (ev):

   -51.7058 -23.6267 -23.6206 -23.6149   2.7794   4.1291   4.6884   6.3553
    16.3801

          k = 0.0000 0.0000 0.5000 (  4513 PWs)   bands (ev):

   -51.7059 -23.6217 -23.6172 -23.6172   0.2678   7.8025   7.8337   7.8337
     9.5796

          k = 0.0000-0.1000 0.6000 (  4497 PWs)   bands (ev):

   -51.7055 -23.6270 -23.6203 -23.6180   1.2348   5.8975   7.2545   7.8469
     9.5558

          k = 0.0000-0.2000 0.7000 (  4493 PWs)   bands (ev):

   -51.7053 -23.6311 -23.6221 -23.6176   2.4862   4.1139   6.9651   7.6360
    10.4375

          k =-0.1000-0.1000 0.7000 (  4501 PWs)   bands (ev):

   -51.7052 -23.6291 -23.6240 -23.6190   2.3388   5.2017   5.8577   8.2901
     9.2627

          k =-0.1000 0.8000-0.2000 (  4516 PWs)   bands (ev):

   -51.7051 -23.6299 -23.6258 -23.6190   3.5240   3.9605   5.4924   8.4483
     9.6868

          k = 0.5000-0.5000 0.5000 (  4504 PWs)   bands (ev):

   -51.7058 -23.6209 -23.6209 -23.6209   3.9766   3.9766   3.9766   5.4151
    18.0548

          k = 0.0000 0.0000 0.7000 (  4497 PWs)   bands (ev):

   -51.7052 -23.6264 -23.6234 -23.6234   2.1852   6.4970   6.6793   6.6793
     8.1952

          k = 0.0000-0.1000 0.8000 (  4495 PWs)   bands (ev):

   -51.7050 -23.6290 -23.6254 -23.6237   3.4118   4.9859   6.3921   6.8630
     8.3676

          k =-0.1000 0.9000-0.1000 (  4502 PWs)   bands (ev):

   -51.7048 -23.6281 -23.6281 -23.6242   4.5891   4.5891   5.4293   7.6766
     7.6766

          k = 0.0000 0.0000 0.9000 (  4485 PWs)   bands (ev):

   -51.7047 -23.6278 -23.6274 -23.6274   4.6049   5.8440   6.1061   6.1061
     6.9720

     the Fermi energy is     1.3744 ev

!    total energy              =     -95.10891996 Ry
     Harris-Foulkes estimate   =     -95.10891959 Ry
     estimated scf accuracy    <          8.8E-09 Ry

     The total energy is the sum of the following terms:

     one-electron contribution =     -89.50155154 Ry
     hartree contribution      =      45.00870630 Ry
     xc contribution           =     -14.25978767 Ry
     ewald contribution        =     -36.35642691 Ry
     smearing contrib. (-TS)   =       0.00013986 Ry

     convergence has been achieved in   5 iterations


     Computing stress (Cartesian axis) and pressure

          total   stress  (Ry/bohr**3)                   (kbar)     P=   -5.74
  -0.00003901   0.00000000  -0.00000000         -5.74      0.00     -0.00
   0.00000000  -0.00003901   0.00000000          0.00     -5.74      0.00
  -0.00000000   0.00000000  -0.00003901         -0.00      0.00     -5.74


     Writing output data file na.bcc.save

     init_run     :      1.11s CPU      1.40s WALL (       1 calls)
     electrons    :     13.90s CPU     16.30s WALL (       1 calls)
     stress       :      0.80s CPU      0.94s WALL (       1 calls)

     Called by init_run:
     wfcinit      :      0.72s CPU      0.91s WALL (       1 calls)
     potinit      :      0.10s CPU      0.12s WALL (       1 calls)

     Called by electrons:
     c_bands      :     10.36s CPU     11.75s WALL (       6 calls)
     sum_band     :      2.53s CPU      3.14s WALL (       6 calls)
     v_of_rho     :      0.57s CPU      0.65s WALL (       6 calls)
     newd         :      0.41s CPU      0.75s WALL (       6 calls)
     mix_rho      :      0.07s CPU      0.07s WALL (       6 calls)

     Called by c_bands:
     init_us_2    :      0.28s CPU      0.30s WALL (     616 calls)
     cegterg      :     10.04s CPU     11.39s WALL (     264 calls)

     Called by sum_band:
     sum_band:bec :      0.00s CPU      0.00s WALL (     264 calls)
     addusdens    :      0.53s CPU      0.66s WALL (       6 calls)

     Called by *egterg:
     h_psi        :      8.57s CPU      9.83s WALL (    1146 calls)
     s_psi        :      0.14s CPU      0.15s WALL (    1146 calls)
     g_psi        :      0.04s CPU      0.04s WALL (     838 calls)
     cdiaghg      :      0.32s CPU      0.38s WALL (    1058 calls)

     Called by h_psi:
     h_psi:pot    :      8.53s CPU      9.78s WALL (    1146 calls)
     h_psi:calbec :      0.43s CPU      0.51s WALL (    1146 calls)
     vloc_psi     :      7.94s CPU      9.09s WALL (    1146 calls)
     add_vuspsi   :      0.16s CPU      0.17s WALL (    1146 calls)

     General routines
     calbec       :      0.56s CPU      0.69s WALL (    1454 calls)
     fft          :      0.54s CPU      0.70s WALL (     101 calls)
     ffts         :      0.01s CPU      0.01s WALL (      12 calls)
     fftw         :      7.89s CPU      9.20s WALL (   16414 calls)
     interpolate  :      0.07s CPU      0.10s WALL (      12 calls)
     davcio       :      0.00s CPU      0.00s WALL (      44 calls)

     Parallel routines
     fft_scatter  :      3.24s CPU      4.24s WALL (   16527 calls)

     PWSCF        :    15.93s CPU        18.77s WALL


   This run was terminated on:  16:26:30  17Dec2017            

=------------------------------------------------------------------------------=
   JOB DONE.
=------------------------------------------------------------------------------=
