
     Program PWSCF v.6.1 (svn rev. 13369) starts on 17Dec2017 at 16:29: 1 

     This program is part of the open-source Quantum ESPRESSO suite
     for quantum simulation of materials; please cite
         "P. Giannozzi et al., J. Phys.:Condens. Matter 21 395502 (2009);
          URL http://www.quantum-espresso.org", 
     in publications or presentations arising from this work. More details at
     http://www.quantum-espresso.org/quote

     Parallel version (MPI), running on     4 processors
     R & G space division:  proc/nbgrp/npool/nimage =       4
     Waiting for input...
     Reading input from standard input

     Current dimensions of program PWSCF are:
     Max number of different atomic species (ntypx) = 10
     Max number of k-points (npk) =  40000
     Max angular momentum in pseudopotentials (lmaxx) =  3

     Subspace diagonalization in iterative solution of the eigenvalue problem:
     a serial algorithm will be used


     Parallelization info
     --------------------
     sticks:   dense  smooth     PW     G-vecs:    dense   smooth      PW
     Min        1110     556    155                46852    16570    2465
     Max        1111     557    157                46855    16571    2466
     Sum        4443    2227    623               187417    66283    9861



     bravais-lattice index     =            3
     lattice parameter (alat)  =       8.1080  a.u.
     unit-cell volume          =     266.5086 (a.u.)^3
     number of atoms/cell      =            1
     number of atomic types    =            1
     number of electrons       =         9.00
     number of Kohn-Sham states=            9
     kinetic-energy cutoff     =     150.0000  Ry
     charge density cutoff     =    1200.0000  Ry
     convergence threshold     =      1.0E-08
     mixing beta               =       0.7000
     number of iterations used =            8  plain     mixing
     Exchange-correlation      = SLA  PW   PBE  PBE ( 1  4  3  4 0 0)

     celldm(1)=   8.108000  celldm(2)=   0.000000  celldm(3)=   0.000000
     celldm(4)=   0.000000  celldm(5)=   0.000000  celldm(6)=   0.000000

     crystal axes: (cart. coord. in units of alat)
               a(1) = (   0.500000   0.500000   0.500000 )  
               a(2) = (  -0.500000   0.500000   0.500000 )  
               a(3) = (  -0.500000  -0.500000   0.500000 )  

     reciprocal axes: (cart. coord. in units 2 pi/alat)
               b(1) = (  1.000000  0.000000  1.000000 )  
               b(2) = ( -1.000000  1.000000  0.000000 )  
               b(3) = (  0.000000 -1.000000  1.000000 )  


     PseudoPot. # 1 for Na read from file:
     /home/max/quantum_espresso/qe-6.1/pseudo/Na_pbe_v1.uspp.F.UPF
     MD5 check sum: 76a99c7e9422403d3e93cbc85ab7bccb
     Pseudo is Ultrasoft, Zval =  9.0
     Generated by new atomic code, or converted to UPF format
     Using radial grid of  819 points,  5 beta functions with: 
                l(1) =   0
                l(2) =   0
                l(3) =   1
                l(4) =   1
                l(5) =   2
     Q(r) pseudized with  8 coefficients,  rinner =    1.250   1.250   1.250
                                                       1.250   1.250

     atomic species   valence    mass     pseudopotential
        Na             9.00    22.99000     Na( 1.00)

     48 Sym. Ops., with inversion, found



   Cartesian axes

     site n.     atom                  positions (alat units)
         1           Na  tau(   1) = (   0.0000000   0.0000000   0.0000000  )

     number of k points=    44  Marzari-Vanderbilt smearing, width (Ry)=  0.0200
                       cart. coord. in units 2pi/alat
        k(    1) = (   0.0000000   0.0000000   0.1000000), wk =   0.0120000
        k(    2) = (   0.0000000  -0.1000000   0.2000000), wk =   0.0480000
        k(    3) = (   0.0000000  -0.2000000   0.3000000), wk =   0.0480000
        k(    4) = (   0.0000000  -0.3000000   0.4000000), wk =   0.0480000
        k(    5) = (   0.0000000  -0.4000000   0.5000000), wk =   0.0480000
        k(    6) = (  -0.1000000   0.1000000   0.1000000), wk =   0.0160000
        k(    7) = (  -0.1000000  -0.1000000   0.3000000), wk =   0.0480000
        k(    8) = (  -0.1000000  -0.2000000   0.4000000), wk =   0.0960000
        k(    9) = (  -0.1000000  -0.3000000   0.5000000), wk =   0.0960000
        k(   10) = (  -0.1000000   0.6000000  -0.4000000), wk =   0.0480000
        k(   11) = (  -0.2000000   0.2000000   0.1000000), wk =   0.0480000
        k(   12) = (  -0.2000000  -0.2000000   0.5000000), wk =   0.0480000
        k(   13) = (  -0.2000000   0.7000000  -0.4000000), wk =   0.0960000
        k(   14) = (  -0.3000000   0.3000000   0.1000000), wk =   0.0480000
        k(   15) = (  -0.3000000   0.2000000   0.2000000), wk =   0.0480000
        k(   16) = (  -0.3000000   0.7000000  -0.3000000), wk =   0.0160000
        k(   17) = (  -0.4000000   0.4000000   0.1000000), wk =   0.0480000
        k(   18) = (  -0.4000000   0.3000000   0.2000000), wk =   0.0960000
        k(   19) = (   0.5000000  -0.5000000   0.1000000), wk =   0.0240000
        k(   20) = (   0.5000000  -0.6000000   0.2000000), wk =   0.0960000
        k(   21) = (   0.5000000  -0.7000000   0.3000000), wk =   0.0480000
        k(   22) = (   0.4000000  -0.6000000   0.3000000), wk =   0.0480000
        k(   23) = (   0.0000000   0.0000000   0.3000000), wk =   0.0120000
        k(   24) = (   0.0000000  -0.1000000   0.4000000), wk =   0.0480000
        k(   25) = (   0.0000000  -0.2000000   0.5000000), wk =   0.0480000
        k(   26) = (   0.0000000  -0.3000000   0.6000000), wk =   0.0480000
        k(   27) = (  -0.1000000  -0.1000000   0.5000000), wk =   0.0480000
        k(   28) = (  -0.1000000  -0.2000000   0.6000000), wk =   0.0960000
        k(   29) = (  -0.1000000   0.7000000  -0.3000000), wk =   0.0480000
        k(   30) = (  -0.2000000   0.8000000  -0.3000000), wk =   0.0480000
        k(   31) = (  -0.3000000   0.3000000   0.3000000), wk =   0.0160000
        k(   32) = (   0.6000000  -0.6000000   0.3000000), wk =   0.0480000
        k(   33) = (   0.5000000  -0.5000000   0.3000000), wk =   0.0240000
        k(   34) = (   0.5000000  -0.6000000   0.4000000), wk =   0.0480000
        k(   35) = (   0.0000000   0.0000000   0.5000000), wk =   0.0120000
        k(   36) = (   0.0000000  -0.1000000   0.6000000), wk =   0.0480000
        k(   37) = (   0.0000000  -0.2000000   0.7000000), wk =   0.0480000
        k(   38) = (  -0.1000000  -0.1000000   0.7000000), wk =   0.0480000
        k(   39) = (  -0.1000000   0.8000000  -0.2000000), wk =   0.0480000
        k(   40) = (   0.5000000  -0.5000000   0.5000000), wk =   0.0040000
        k(   41) = (   0.0000000   0.0000000   0.7000000), wk =   0.0120000
        k(   42) = (   0.0000000  -0.1000000   0.8000000), wk =   0.0480000
        k(   43) = (  -0.1000000   0.9000000  -0.1000000), wk =   0.0160000
        k(   44) = (   0.0000000   0.0000000   0.9000000), wk =   0.0120000

     Dense  grid:   187417 G-vectors     FFT dimensions: (  80,  80,  80)

     Smooth grid:    66283 G-vectors     FFT dimensions: (  60,  60,  60)

     Estimated max dynamical RAM per process >      42.82MB

     Estimated total allocated dynamical RAM >     171.29MB

     Initial potential from superposition of free atoms

     starting charge    8.99371, renormalised to    9.00000
     Starting wfc are    5 randomized atomic wfcs +    4 random wfc

     total cpu time spent up to now is        2.4 secs

     per-process dynamical memory:    39.5 Mb

     Self-consistent Calculation

     iteration #  1     ecut=   150.00 Ry     beta=0.70
     Davidson diagonalization with overlap
     ethr =  1.00E-02,  avg # of iterations =  6.0

     Threshold (ethr) on eigenvalues was too large:
     Diagonalizing with lowered threshold

     Davidson diagonalization with overlap
     ethr =  1.47E-05,  avg # of iterations =  4.4

     total cpu time spent up to now is       17.3 secs

     total energy              =     -95.09503700 Ry
     Harris-Foulkes estimate   =     -95.13454536 Ry
     estimated scf accuracy    <       0.00131739 Ry

     iteration #  2     ecut=   150.00 Ry     beta=0.70
     Davidson diagonalization with overlap
     ethr =  1.46E-05,  avg # of iterations =  3.5

     total cpu time spent up to now is       24.2 secs

     total energy              =     -95.10904589 Ry
     Harris-Foulkes estimate   =     -95.09633001 Ry
     estimated scf accuracy    <       0.00008472 Ry

     iteration #  3     ecut=   150.00 Ry     beta=0.70
     Davidson diagonalization with overlap
     ethr =  9.41E-07,  avg # of iterations =  3.2

     total cpu time spent up to now is       31.2 secs

     total energy              =     -95.11036709 Ry
     Harris-Foulkes estimate   =     -95.10912775 Ry
     estimated scf accuracy    <       0.00000750 Ry

     iteration #  4     ecut=   150.00 Ry     beta=0.70
     Davidson diagonalization with overlap
     ethr =  8.34E-08,  avg # of iterations =  2.0

     total cpu time spent up to now is       36.8 secs

     total energy              =     -95.11038843 Ry
     Harris-Foulkes estimate   =     -95.11036969 Ry
     estimated scf accuracy    <       0.00000086 Ry

     iteration #  5     ecut=   150.00 Ry     beta=0.70
     Davidson diagonalization with overlap
     ethr =  9.53E-09,  avg # of iterations =  1.6

     total cpu time spent up to now is       41.7 secs

     total energy              =     -95.11038922 Ry
     Harris-Foulkes estimate   =     -95.11038846 Ry
     estimated scf accuracy    <       0.00000010 Ry

     iteration #  6     ecut=   150.00 Ry     beta=0.70
     Davidson diagonalization with overlap
     ethr =  1.09E-09,  avg # of iterations =  1.6

     total cpu time spent up to now is       46.9 secs

     End of self-consistent calculation

          k = 0.0000 0.0000 0.1000 (  8287 PWs)   bands (ev):

   -51.7052 -23.6085 -23.6081 -23.6081  -1.7171  11.8396  11.8396  12.3515
    12.7521

          k = 0.0000-0.1000 0.2000 (  8278 PWs)   bands (ev):

   -51.7050 -23.6135 -23.6099 -23.6082  -1.3816   9.5495  10.7208  11.5685
    12.1816

          k = 0.0000-0.2000 0.3000 (  8268 PWs)   bands (ev):

   -51.7046 -23.6217 -23.6127 -23.6081  -0.7166   7.1734   9.8347  10.7678
    11.4102

          k = 0.0000-0.3000 0.4000 (  8275 PWs)   bands (ev):

   -51.7041 -23.6299 -23.6156 -23.6081   0.2668   5.0392   9.2330  10.1869
    10.8720

          k = 0.0000-0.4000 0.5000 (  8274 PWs)   bands (ev):

   -51.7039 -23.6350 -23.6173 -23.6080   1.5442   3.1859   8.9299   9.8896
    10.6013

          k =-0.1000 0.1000 0.1000 (  8286 PWs)   bands (ev):

   -51.7051 -23.6120 -23.6081 -23.6081  -1.5491  10.7001  10.7001  11.4082
    13.4250

          k =-0.1000-0.1000 0.3000 (  8270 PWs)   bands (ev):

   -51.7046 -23.6191 -23.6118 -23.6094  -0.8821   8.2703   8.8332  11.3726
    11.6085

          k =-0.1000-0.2000 0.4000 (  8263 PWs)   bands (ev):

   -51.7042 -23.6264 -23.6151 -23.6097  -0.0590   6.2319   7.8783  10.9028
    11.0525

          k =-0.1000-0.3000 0.5000 (  8253 PWs)   bands (ev):

   -51.7039 -23.6322 -23.6179 -23.6097   1.0725   4.2609   7.4005  10.5073
    10.6348

          k =-0.1000 0.6000-0.4000 (  8262 PWs)   bands (ev):

   -51.7037 -23.6344 -23.6190 -23.6097   2.3116   2.7383   7.2435  10.3737
    10.4839

          k =-0.2000 0.2000 0.1000 (  8261 PWs)   bands (ev):

   -51.7048 -23.6187 -23.6104 -23.6081  -1.0481   8.3456   9.6249  10.4203
    12.8071

          k =-0.2000-0.2000 0.5000 (  8266 PWs)   bands (ev):

   -51.7039 -23.6300 -23.6189 -23.6107   0.9128   5.3521   6.0419  10.4301
    11.5385

          k =-0.2000 0.7000-0.4000 (  8258 PWs)   bands (ev):

   -51.7037 -23.6315 -23.6224 -23.6110   2.1704   3.7793   5.4737  10.1431
    11.5635

          k =-0.3000 0.3000 0.1000 (  8273 PWs)   bands (ev):

   -51.7043 -23.6266 -23.6138 -23.6082  -0.2228   6.1032   8.8498   9.7178
    12.0824

          k =-0.3000 0.2000 0.2000 (  8282 PWs)   bands (ev):

   -51.7044 -23.6250 -23.6122 -23.6094  -0.3869   7.1899   7.7440   9.3515
    13.3622

          k =-0.3000 0.7000-0.3000 (  8268 PWs)   bands (ev):

   -51.7036 -23.6277 -23.6277 -23.6114   3.3705   3.3705   4.2394   9.9986
    12.6284

          k =-0.4000 0.4000 0.1000 (  8272 PWs)   bands (ev):

   -51.7040 -23.6327 -23.6166 -23.6082   0.9122   4.1100   8.3836   9.2878
    11.6358

          k =-0.4000 0.3000 0.2000 (  8270 PWs)   bands (ev):

   -51.7041 -23.6299 -23.6159 -23.6099   0.5906   5.3041   6.9273   8.7222
    13.0674

          k = 0.5000-0.5000 0.1000 (  8276 PWs)   bands (ev):

   -51.7039 -23.6351 -23.6177 -23.6082   2.1608   2.5748   8.2281   9.1429
    11.4862

          k = 0.5000-0.6000 0.2000 (  8276 PWs)   bands (ev):

   -51.7038 -23.6325 -23.6188 -23.6101   1.8581   3.4904   6.5992   8.4104
    12.8088

          k = 0.5000-0.7000 0.3000 (  8277 PWs)   bands (ev):

   -51.7038 -23.6304 -23.6200 -23.6113   1.7063   4.5864   5.2442   8.2249
    13.8537

          k = 0.4000-0.6000 0.3000 (  8269 PWs)   bands (ev):

   -51.7038 -23.6292 -23.6231 -23.6116   2.9153   3.3252   4.8603   8.0633
    13.9645

          k = 0.0000 0.0000 0.3000 (  8240 PWs)   bands (ev):

   -51.7047 -23.6145 -23.6116 -23.6116  -1.0481   9.5756   9.5756   9.7581
    11.3483

          k = 0.0000-0.1000 0.4000 (  8267 PWs)   bands (ev):

   -51.7043 -23.6214 -23.6146 -23.6123  -0.3868   7.4291   8.7010   9.4363
    11.0947

          k = 0.0000-0.2000 0.5000 (  8266 PWs)   bands (ev):

   -51.7039 -23.6289 -23.6175 -23.6120   0.5910   5.3344   8.1157   8.9468
    11.7621

          k = 0.0000-0.3000 0.6000 (  8278 PWs)   bands (ev):

   -51.7037 -23.6337 -23.6193 -23.6119   1.8596   3.4992   7.8228   8.6550
    12.3179

          k =-0.1000-0.1000 0.5000 (  8272 PWs)   bands (ev):

   -51.7039 -23.6263 -23.6180 -23.6138   0.4293   6.4281   7.0639   9.5216
    10.6027

          k =-0.1000-0.2000 0.6000 (  8266 PWs)   bands (ev):

   -51.7036 -23.6308 -23.6212 -23.6139   1.5508   4.6969   6.3797   9.4312
    11.1803

          k =-0.1000 0.7000-0.3000 (  8261 PWs)   bands (ev):

   -51.7035 -23.6325 -23.6225 -23.6138   2.7651   3.2177   6.2077   9.3252
    12.0116

          k =-0.2000 0.8000-0.3000 (  8265 PWs)   bands (ev):

   -51.7034 -23.6302 -23.6259 -23.6143   2.7843   4.1315   4.8394  10.3033
    10.9758

          k =-0.3000 0.3000 0.3000 (  8289 PWs)   bands (ev):

   -51.7041 -23.6290 -23.6126 -23.6126   0.4289   6.4195   6.4195   7.6787
    15.3155

          k = 0.6000-0.6000 0.3000 (  8277 PWs)   bands (ev):

   -51.7039 -23.6302 -23.6173 -23.6130   1.5488   4.6663   5.9582   6.9808
    15.2951

          k = 0.5000-0.5000 0.3000 (  8282 PWs)   bands (ev):

   -51.7038 -23.6297 -23.6199 -23.6131   2.7638   3.1997   5.8046   6.7861
    15.1638

          k = 0.5000-0.6000 0.4000 (  8279 PWs)   bands (ev):

   -51.7038 -23.6271 -23.6210 -23.6153   2.7787   4.1284   4.6876   6.3542
    16.3792

          k = 0.0000 0.0000 0.5000 (  8244 PWs)   bands (ev):

   -51.7039 -23.6221 -23.6176 -23.6176   0.2671   7.8022   7.8328   7.8328
     9.5785

          k = 0.0000-0.1000 0.6000 (  8280 PWs)   bands (ev):

   -51.7036 -23.6274 -23.6207 -23.6184   1.2341   5.8967   7.2535   7.8463
     9.5548

          k = 0.0000-0.2000 0.7000 (  8265 PWs)   bands (ev):

   -51.7033 -23.6315 -23.6226 -23.6180   2.4854   4.1132   6.9641   7.6354
    10.4367

          k =-0.1000-0.1000 0.7000 (  8255 PWs)   bands (ev):

   -51.7032 -23.6295 -23.6244 -23.6194   2.3380   5.2011   5.8567   8.2894
     9.2617

          k =-0.1000 0.8000-0.2000 (  8245 PWs)   bands (ev):

   -51.7031 -23.6303 -23.6262 -23.6193   3.5233   3.9597   5.4915   8.4475
     9.6861

          k = 0.5000-0.5000 0.5000 (  8280 PWs)   bands (ev):

   -51.7038 -23.6213 -23.6213 -23.6213   3.9759   3.9759   3.9759   5.4138
    18.0535

          k = 0.0000 0.0000 0.7000 (  8232 PWs)   bands (ev):

   -51.7032 -23.6267 -23.6238 -23.6238   2.1845   6.4967   6.6783   6.6783
     8.1942

          k = 0.0000-0.1000 0.8000 (  8264 PWs)   bands (ev):

   -51.7030 -23.6294 -23.6258 -23.6241   3.4111   4.9851   6.3911   6.8623
     8.3668

          k =-0.1000 0.9000-0.1000 (  8272 PWs)   bands (ev):

   -51.7029 -23.6285 -23.6285 -23.6246   4.5884   4.5884   5.4282   7.6759
     7.6759

          k = 0.0000 0.0000 0.9000 (  8264 PWs)   bands (ev):

   -51.7027 -23.6282 -23.6277 -23.6277   4.6042   5.8437   6.1050   6.1050
     6.9713

     the Fermi energy is     1.3737 ev

!    total energy              =     -95.11038929 Ry
     Harris-Foulkes estimate   =     -95.11038922 Ry
     estimated scf accuracy    <          2.8E-09 Ry

     The total energy is the sum of the following terms:

     one-electron contribution =     -89.50410110 Ry
     hartree contribution      =      45.01004238 Ry
     xc contribution           =     -14.26004352 Ry
     ewald contribution        =     -36.35642691 Ry
     smearing contrib. (-TS)   =       0.00013987 Ry

     convergence has been achieved in   6 iterations


     Computing stress (Cartesian axis) and pressure

          total   stress  (Ry/bohr**3)                   (kbar)     P=   -7.77
  -0.00005280   0.00000000  -0.00000000         -7.77      0.00     -0.00
   0.00000000  -0.00005280   0.00000000          0.00     -7.77      0.00
  -0.00000000   0.00000000  -0.00005280         -0.00      0.00     -7.77


     Writing output data file na.bcc.save

     init_run     :      2.16s CPU      2.35s WALL (       1 calls)
     electrons    :     39.60s CPU     44.54s WALL (       1 calls)
     stress       :      2.15s CPU      2.33s WALL (       1 calls)

     Called by init_run:
     wfcinit      :      1.45s CPU      1.56s WALL (       1 calls)
     potinit      :      0.24s CPU      0.25s WALL (       1 calls)

     Called by electrons:
     c_bands      :     28.65s CPU     31.58s WALL (       7 calls)
     sum_band     :      8.30s CPU      9.70s WALL (       7 calls)
     v_of_rho     :      1.28s CPU      1.65s WALL (       7 calls)
     newd         :      1.34s CPU      1.58s WALL (       7 calls)
     mix_rho      :      0.17s CPU      0.22s WALL (       7 calls)

     Called by c_bands:
     init_us_2    :      0.66s CPU      0.73s WALL (     704 calls)
     cegterg      :     27.85s CPU     30.66s WALL (     308 calls)

     Called by sum_band:
     sum_band:bec :      0.00s CPU      0.00s WALL (     308 calls)
     addusdens    :      1.52s CPU      1.80s WALL (       7 calls)

     Called by *egterg:
     h_psi        :     24.75s CPU     27.22s WALL (    1332 calls)
     s_psi        :      0.32s CPU      0.34s WALL (    1332 calls)
     g_psi        :      0.08s CPU      0.08s WALL (     980 calls)
     cdiaghg      :      0.37s CPU      0.45s WALL (    1244 calls)

     Called by h_psi:
     h_psi:pot    :     24.65s CPU     27.11s WALL (    1332 calls)
     h_psi:calbec :      1.15s CPU      1.29s WALL (    1332 calls)
     vloc_psi     :     23.10s CPU     25.40s WALL (    1332 calls)
     add_vuspsi   :      0.38s CPU      0.41s WALL (    1332 calls)

     General routines
     calbec       :      1.83s CPU      2.06s WALL (    1684 calls)
     fft          :      1.37s CPU      1.67s WALL (     117 calls)
     ffts         :      0.05s CPU      0.05s WALL (      14 calls)
     fftw         :     22.02s CPU     24.73s WALL (   18812 calls)
     interpolate  :      0.24s CPU      0.27s WALL (      14 calls)
     davcio       :      0.00s CPU      0.01s WALL (      44 calls)

     Parallel routines
     fft_scatter  :     10.25s CPU     12.35s WALL (   18943 calls)

     PWSCF        :    44.04s CPU        49.36s WALL


   This run was terminated on:  16:29:50  17Dec2017            

=------------------------------------------------------------------------------=
   JOB DONE.
=------------------------------------------------------------------------------=
