
     Program PWSCF v.6.1 (svn rev. 13369) starts on 17Dec2017 at 16:25:22 

     This program is part of the open-source Quantum ESPRESSO suite
     for quantum simulation of materials; please cite
         "P. Giannozzi et al., J. Phys.:Condens. Matter 21 395502 (2009);
          URL http://www.quantum-espresso.org", 
     in publications or presentations arising from this work. More details at
     http://www.quantum-espresso.org/quote

     Parallel version (MPI), running on     4 processors
     R & G space division:  proc/nbgrp/npool/nimage =       4
     Waiting for input...
     Reading input from standard input

     Current dimensions of program PWSCF are:
     Max number of different atomic species (ntypx) = 10
     Max number of k-points (npk) =  40000
     Max angular momentum in pseudopotentials (lmaxx) =  3

     Subspace diagonalization in iterative solution of the eigenvalue problem:
     a serial algorithm will be used


     Parallelization info
     --------------------
     sticks:   dense  smooth     PW     G-vecs:    dense   smooth      PW
     Min         519     258     76                14933     5274     841
     Max         520     260     77                14934     5275     842
     Sum        2077    1035    307                59735    21097    3367



     bravais-lattice index     =            3
     lattice parameter (alat)  =       8.1080  a.u.
     unit-cell volume          =     266.5086 (a.u.)^3
     number of atoms/cell      =            1
     number of atomic types    =            1
     number of electrons       =         9.00
     number of Kohn-Sham states=            9
     kinetic-energy cutoff     =      70.0000  Ry
     charge density cutoff     =     560.0000  Ry
     convergence threshold     =      1.0E-08
     mixing beta               =       0.7000
     number of iterations used =            8  plain     mixing
     Exchange-correlation      = SLA  PW   PBE  PBE ( 1  4  3  4 0 0)

     celldm(1)=   8.108000  celldm(2)=   0.000000  celldm(3)=   0.000000
     celldm(4)=   0.000000  celldm(5)=   0.000000  celldm(6)=   0.000000

     crystal axes: (cart. coord. in units of alat)
               a(1) = (   0.500000   0.500000   0.500000 )  
               a(2) = (  -0.500000   0.500000   0.500000 )  
               a(3) = (  -0.500000  -0.500000   0.500000 )  

     reciprocal axes: (cart. coord. in units 2 pi/alat)
               b(1) = (  1.000000  0.000000  1.000000 )  
               b(2) = ( -1.000000  1.000000  0.000000 )  
               b(3) = (  0.000000 -1.000000  1.000000 )  


     PseudoPot. # 1 for Na read from file:
     /home/max/quantum_espresso/qe-6.1/pseudo/Na_pbe_v1.uspp.F.UPF
     MD5 check sum: 76a99c7e9422403d3e93cbc85ab7bccb
     Pseudo is Ultrasoft, Zval =  9.0
     Generated by new atomic code, or converted to UPF format
     Using radial grid of  819 points,  5 beta functions with: 
                l(1) =   0
                l(2) =   0
                l(3) =   1
                l(4) =   1
                l(5) =   2
     Q(r) pseudized with  8 coefficients,  rinner =    1.250   1.250   1.250
                                                       1.250   1.250

     atomic species   valence    mass     pseudopotential
        Na             9.00    22.99000     Na( 1.00)

     48 Sym. Ops., with inversion, found



   Cartesian axes

     site n.     atom                  positions (alat units)
         1           Na  tau(   1) = (   0.0000000   0.0000000   0.0000000  )

     number of k points=    44  Marzari-Vanderbilt smearing, width (Ry)=  0.0200
                       cart. coord. in units 2pi/alat
        k(    1) = (   0.0000000   0.0000000   0.1000000), wk =   0.0120000
        k(    2) = (   0.0000000  -0.1000000   0.2000000), wk =   0.0480000
        k(    3) = (   0.0000000  -0.2000000   0.3000000), wk =   0.0480000
        k(    4) = (   0.0000000  -0.3000000   0.4000000), wk =   0.0480000
        k(    5) = (   0.0000000  -0.4000000   0.5000000), wk =   0.0480000
        k(    6) = (  -0.1000000   0.1000000   0.1000000), wk =   0.0160000
        k(    7) = (  -0.1000000  -0.1000000   0.3000000), wk =   0.0480000
        k(    8) = (  -0.1000000  -0.2000000   0.4000000), wk =   0.0960000
        k(    9) = (  -0.1000000  -0.3000000   0.5000000), wk =   0.0960000
        k(   10) = (  -0.1000000   0.6000000  -0.4000000), wk =   0.0480000
        k(   11) = (  -0.2000000   0.2000000   0.1000000), wk =   0.0480000
        k(   12) = (  -0.2000000  -0.2000000   0.5000000), wk =   0.0480000
        k(   13) = (  -0.2000000   0.7000000  -0.4000000), wk =   0.0960000
        k(   14) = (  -0.3000000   0.3000000   0.1000000), wk =   0.0480000
        k(   15) = (  -0.3000000   0.2000000   0.2000000), wk =   0.0480000
        k(   16) = (  -0.3000000   0.7000000  -0.3000000), wk =   0.0160000
        k(   17) = (  -0.4000000   0.4000000   0.1000000), wk =   0.0480000
        k(   18) = (  -0.4000000   0.3000000   0.2000000), wk =   0.0960000
        k(   19) = (   0.5000000  -0.5000000   0.1000000), wk =   0.0240000
        k(   20) = (   0.5000000  -0.6000000   0.2000000), wk =   0.0960000
        k(   21) = (   0.5000000  -0.7000000   0.3000000), wk =   0.0480000
        k(   22) = (   0.4000000  -0.6000000   0.3000000), wk =   0.0480000
        k(   23) = (   0.0000000   0.0000000   0.3000000), wk =   0.0120000
        k(   24) = (   0.0000000  -0.1000000   0.4000000), wk =   0.0480000
        k(   25) = (   0.0000000  -0.2000000   0.5000000), wk =   0.0480000
        k(   26) = (   0.0000000  -0.3000000   0.6000000), wk =   0.0480000
        k(   27) = (  -0.1000000  -0.1000000   0.5000000), wk =   0.0480000
        k(   28) = (  -0.1000000  -0.2000000   0.6000000), wk =   0.0960000
        k(   29) = (  -0.1000000   0.7000000  -0.3000000), wk =   0.0480000
        k(   30) = (  -0.2000000   0.8000000  -0.3000000), wk =   0.0480000
        k(   31) = (  -0.3000000   0.3000000   0.3000000), wk =   0.0160000
        k(   32) = (   0.6000000  -0.6000000   0.3000000), wk =   0.0480000
        k(   33) = (   0.5000000  -0.5000000   0.3000000), wk =   0.0240000
        k(   34) = (   0.5000000  -0.6000000   0.4000000), wk =   0.0480000
        k(   35) = (   0.0000000   0.0000000   0.5000000), wk =   0.0120000
        k(   36) = (   0.0000000  -0.1000000   0.6000000), wk =   0.0480000
        k(   37) = (   0.0000000  -0.2000000   0.7000000), wk =   0.0480000
        k(   38) = (  -0.1000000  -0.1000000   0.7000000), wk =   0.0480000
        k(   39) = (  -0.1000000   0.8000000  -0.2000000), wk =   0.0480000
        k(   40) = (   0.5000000  -0.5000000   0.5000000), wk =   0.0040000
        k(   41) = (   0.0000000   0.0000000   0.7000000), wk =   0.0120000
        k(   42) = (   0.0000000  -0.1000000   0.8000000), wk =   0.0480000
        k(   43) = (  -0.1000000   0.9000000  -0.1000000), wk =   0.0160000
        k(   44) = (   0.0000000   0.0000000   0.9000000), wk =   0.0120000

     Dense  grid:    59735 G-vectors     FFT dimensions: (  54,  54,  54)

     Smooth grid:    21097 G-vectors     FFT dimensions: (  40,  40,  40)

     Estimated max dynamical RAM per process >      13.68MB

     Estimated total allocated dynamical RAM >      54.72MB

     Initial potential from superposition of free atoms

     starting charge    8.99371, renormalised to    9.00000
     Starting wfc are    5 randomized atomic wfcs +    4 random wfc

     total cpu time spent up to now is        1.3 secs

     per-process dynamical memory:    16.5 Mb

     Self-consistent Calculation

     iteration #  1     ecut=    70.00 Ry     beta=0.70
     Davidson diagonalization with overlap
     ethr =  1.00E-02,  avg # of iterations =  5.9

     Threshold (ethr) on eigenvalues was too large:
     Diagonalizing with lowered threshold

     Davidson diagonalization with overlap
     ethr =  8.57E-06,  avg # of iterations =  5.5

     total cpu time spent up to now is        5.8 secs

     total energy              =     -95.10787958 Ry
     Harris-Foulkes estimate   =     -95.09655127 Ry
     estimated scf accuracy    <       0.00076649 Ry

     iteration #  2     ecut=    70.00 Ry     beta=0.70
     Davidson diagonalization with overlap
     ethr =  8.52E-06,  avg # of iterations =  2.0

     total cpu time spent up to now is        7.6 secs

     total energy              =     -95.10835918 Ry
     Harris-Foulkes estimate   =     -95.10803380 Ry
     estimated scf accuracy    <       0.00010652 Ry

     iteration #  3     ecut=    70.00 Ry     beta=0.70
     Davidson diagonalization with overlap
     ethr =  1.18E-06,  avg # of iterations =  1.1

     total cpu time spent up to now is        9.2 secs

     total energy              =     -95.10838091 Ry
     Harris-Foulkes estimate   =     -95.10836763 Ry
     estimated scf accuracy    <       0.00000705 Ry

     iteration #  4     ecut=    70.00 Ry     beta=0.70
     Davidson diagonalization with overlap
     ethr =  7.83E-08,  avg # of iterations =  1.2

     total cpu time spent up to now is       10.2 secs

     total energy              =     -95.10838253 Ry
     Harris-Foulkes estimate   =     -95.10838154 Ry
     estimated scf accuracy    <       0.00000003 Ry

     iteration #  5     ecut=    70.00 Ry     beta=0.70
     Davidson diagonalization with overlap
     ethr =  3.18E-10,  avg # of iterations =  2.4

     total cpu time spent up to now is       12.7 secs

     End of self-consistent calculation

          k = 0.0000 0.0000 0.1000 (  2639 PWs)   bands (ev):

   -51.7060 -23.6062 -23.6058 -23.6058  -1.7156  11.8415  11.8415  12.3527
    12.7540

          k = 0.0000-0.1000 0.2000 (  2638 PWs)   bands (ev):

   -51.7058 -23.6112 -23.6076 -23.6059  -1.3801   9.5512  10.7226  11.5699
    12.1837

          k = 0.0000-0.2000 0.3000 (  2647 PWs)   bands (ev):

   -51.7054 -23.6195 -23.6104 -23.6059  -0.7150   7.1750   9.8365  10.7692
    11.4123

          k = 0.0000-0.3000 0.4000 (  2647 PWs)   bands (ev):

   -51.7049 -23.6277 -23.6133 -23.6058   0.2684   5.0408   9.2349  10.1883
    10.8741

          k = 0.0000-0.4000 0.5000 (  2634 PWs)   bands (ev):

   -51.7047 -23.6327 -23.6151 -23.6057   1.5458   3.1875   8.9317   9.8910
    10.6035

          k =-0.1000 0.1000 0.1000 (  2632 PWs)   bands (ev):

   -51.7059 -23.6097 -23.6058 -23.6058  -1.5476  10.7017  10.7017  11.4104
    13.4267

          k =-0.1000-0.1000 0.3000 (  2650 PWs)   bands (ev):

   -51.7054 -23.6169 -23.6095 -23.6071  -0.8806   8.2719   8.8350  11.3741
    11.6105

          k =-0.1000-0.2000 0.4000 (  2630 PWs)   bands (ev):

   -51.7050 -23.6241 -23.6128 -23.6074  -0.0575   6.2336   7.8800  10.9047
    11.0540

          k =-0.1000-0.3000 0.5000 (  2633 PWs)   bands (ev):

   -51.7047 -23.6299 -23.6157 -23.6074   1.0741   4.2625   7.4022  10.5093
    10.6362

          k =-0.1000 0.6000-0.4000 (  2637 PWs)   bands (ev):

   -51.7046 -23.6322 -23.6168 -23.6074   2.3134   2.7398   7.2452  10.3757
    10.4853

          k =-0.2000 0.2000 0.1000 (  2653 PWs)   bands (ev):

   -51.7056 -23.6165 -23.6082 -23.6058  -1.0466   8.3472   9.6265  10.4224
    12.8087

          k =-0.2000-0.2000 0.5000 (  2633 PWs)   bands (ev):

   -51.7047 -23.6278 -23.6166 -23.6084   0.9144   5.3537   6.0436  10.4320
    11.5400

          k =-0.2000 0.7000-0.4000 (  2627 PWs)   bands (ev):

   -51.7045 -23.6292 -23.6201 -23.6087   2.1721   3.7809   5.4753  10.1449
    11.5651

          k =-0.3000 0.3000 0.1000 (  2641 PWs)   bands (ev):

   -51.7051 -23.6243 -23.6115 -23.6059  -0.2212   6.1048   8.8514   9.7199
    12.0839

          k =-0.3000 0.2000 0.2000 (  2637 PWs)   bands (ev):

   -51.7052 -23.6227 -23.6099 -23.6071  -0.3853   7.1915   7.7457   9.3534
    13.3639

          k =-0.3000 0.7000-0.3000 (  2628 PWs)   bands (ev):

   -51.7044 -23.6254 -23.6254 -23.6091   3.3721   3.3721   4.2410  10.0004
    12.6300

          k =-0.4000 0.4000 0.1000 (  2644 PWs)   bands (ev):

   -51.7048 -23.6305 -23.6143 -23.6059   0.9138   4.1116   8.3852   9.2898
    11.6374

          k =-0.4000 0.3000 0.2000 (  2639 PWs)   bands (ev):

   -51.7049 -23.6277 -23.6136 -23.6076   0.5922   5.3058   6.9290   8.7240
    13.0689

          k = 0.5000-0.5000 0.1000 (  2654 PWs)   bands (ev):

   -51.7047 -23.6329 -23.6155 -23.6059   2.1625   2.5764   8.2297   9.1449
    11.4878

          k = 0.5000-0.6000 0.2000 (  2638 PWs)   bands (ev):

   -51.7046 -23.6303 -23.6166 -23.6078   1.8598   3.4920   6.6008   8.4121
    12.8104

          k = 0.5000-0.7000 0.3000 (  2632 PWs)   bands (ev):

   -51.7046 -23.6281 -23.6178 -23.6090   1.7079   4.5881   5.2459   8.2267
    13.8555

          k = 0.4000-0.6000 0.3000 (  2622 PWs)   bands (ev):

   -51.7046 -23.6269 -23.6208 -23.6093   2.9170   3.3268   4.8619   8.0650
    13.9661

          k = 0.0000 0.0000 0.3000 (  2631 PWs)   bands (ev):

   -51.7055 -23.6123 -23.6094 -23.6094  -1.0466   9.5775   9.5775   9.7593
    11.3500

          k = 0.0000-0.1000 0.4000 (  2627 PWs)   bands (ev):

   -51.7051 -23.6191 -23.6123 -23.6100  -0.3853   7.4307   8.7029   9.4377
    11.0964

          k = 0.0000-0.2000 0.5000 (  2641 PWs)   bands (ev):

   -51.7047 -23.6267 -23.6153 -23.6097   0.5926   5.3361   8.1177   8.9481
    11.7638

          k = 0.0000-0.3000 0.6000 (  2634 PWs)   bands (ev):

   -51.7045 -23.6314 -23.6171 -23.6096   1.8612   3.5009   7.8247   8.6563
    12.3201

          k =-0.1000-0.1000 0.5000 (  2633 PWs)   bands (ev):

   -51.7047 -23.6240 -23.6157 -23.6115   0.4309   6.4297   7.0657   9.5232
    10.6043

          k =-0.1000-0.2000 0.6000 (  2629 PWs)   bands (ev):

   -51.7044 -23.6285 -23.6189 -23.6116   1.5524   4.6985   6.3814   9.4328
    11.1820

          k =-0.1000 0.7000-0.3000 (  2627 PWs)   bands (ev):

   -51.7043 -23.6303 -23.6202 -23.6115   2.7668   3.2193   6.2094   9.3268
    12.0133

          k =-0.2000 0.8000-0.3000 (  2623 PWs)   bands (ev):

   -51.7042 -23.6280 -23.6236 -23.6120   2.7859   4.1332   4.8410  10.3049
    10.9776

          k =-0.3000 0.3000 0.3000 (  2646 PWs)   bands (ev):

   -51.7049 -23.6268 -23.6103 -23.6103   0.4305   6.4211   6.4211   7.6805
    15.3170

          k = 0.6000-0.6000 0.3000 (  2643 PWs)   bands (ev):

   -51.7047 -23.6279 -23.6150 -23.6107   1.5505   4.6680   5.9598   6.9825
    15.2967

          k = 0.5000-0.5000 0.3000 (  2632 PWs)   bands (ev):

   -51.7046 -23.6275 -23.6176 -23.6108   2.7655   3.2013   5.8062   6.7879
    15.1654

          k = 0.5000-0.6000 0.4000 (  2644 PWs)   bands (ev):

   -51.7046 -23.6248 -23.6187 -23.6130   2.7804   4.1300   4.6892   6.3559
    16.3809

          k = 0.0000 0.0000 0.5000 (  2647 PWs)   bands (ev):

   -51.7047 -23.6198 -23.6154 -23.6154   0.2687   7.8034   7.8348   7.8348
     9.5799

          k = 0.0000-0.1000 0.6000 (  2627 PWs)   bands (ev):

   -51.7044 -23.6252 -23.6184 -23.6161   1.2357   5.8984   7.2555   7.8476
     9.5563

          k = 0.0000-0.2000 0.7000 (  2632 PWs)   bands (ev):

   -51.7041 -23.6292 -23.6203 -23.6157   2.4871   4.1148   6.9661   7.6366
    10.4383

          k =-0.1000-0.1000 0.7000 (  2635 PWs)   bands (ev):

   -51.7041 -23.6272 -23.6221 -23.6172   2.3397   5.2027   5.8585   8.2911
     9.2633

          k =-0.1000 0.8000-0.2000 (  2625 PWs)   bands (ev):

   -51.7039 -23.6280 -23.6239 -23.6171   3.5250   3.9613   5.4932   8.4491
     9.6877

          k = 0.5000-0.5000 0.5000 (  2616 PWs)   bands (ev):

   -51.7046 -23.6190 -23.6190 -23.6190   3.9776   3.9776   3.9776   5.4155
    18.0554

          k = 0.0000 0.0000 0.7000 (  2623 PWs)   bands (ev):

   -51.7040 -23.6245 -23.6216 -23.6216   2.1861   6.4979   6.6803   6.6803
     8.1954

          k = 0.0000-0.1000 0.8000 (  2630 PWs)   bands (ev):

   -51.7038 -23.6271 -23.6235 -23.6219   3.4127   4.9868   6.3932   6.8637
     8.3684

          k =-0.1000 0.9000-0.1000 (  2640 PWs)   bands (ev):

   -51.7037 -23.6262 -23.6262 -23.6224   4.5901   4.5901   5.4301   7.6776
     7.6776

          k = 0.0000 0.0000 0.9000 (  2630 PWs)   bands (ev):

   -51.7036 -23.6259 -23.6255 -23.6255   4.6058   5.8448   6.1071   6.1071
     6.9728

     the Fermi energy is     1.3753 ev

!    total energy              =     -95.10838265 Ry
     Harris-Foulkes estimate   =     -95.10838255 Ry
     estimated scf accuracy    <          3.5E-09 Ry

     The total energy is the sum of the following terms:

     one-electron contribution =     -89.50135773 Ry
     hartree contribution      =      45.00908298 Ry
     xc contribution           =     -14.25982087 Ry
     ewald contribution        =     -36.35642691 Ry
     smearing contrib. (-TS)   =       0.00013988 Ry

     convergence has been achieved in   5 iterations


     Computing stress (Cartesian axis) and pressure

          total   stress  (Ry/bohr**3)                   (kbar)     P=   -5.71
  -0.00003879   0.00000000   0.00000000         -5.71      0.00      0.00
   0.00000000  -0.00003879   0.00000000          0.00     -5.71      0.00
   0.00000000   0.00000000  -0.00003879          0.00      0.00     -5.71


     Writing output data file na.bcc.save

     init_run     :      1.07s CPU      1.22s WALL (       1 calls)
     electrons    :      8.90s CPU     11.52s WALL (       1 calls)
     stress       :      0.77s CPU      1.11s WALL (       1 calls)

     Called by init_run:
     wfcinit      :      0.76s CPU      0.86s WALL (       1 calls)
     potinit      :      0.05s CPU      0.06s WALL (       1 calls)

     Called by electrons:
     c_bands      :      6.87s CPU      8.82s WALL (       6 calls)
     sum_band     :      1.49s CPU      1.95s WALL (       6 calls)
     v_of_rho     :      0.27s CPU      0.36s WALL (       6 calls)
     newd         :      0.30s CPU      0.39s WALL (       6 calls)
     mix_rho      :      0.02s CPU      0.02s WALL (       6 calls)

     Called by c_bands:
     init_us_2    :      0.17s CPU      0.18s WALL (     616 calls)
     cegterg      :      6.64s CPU      8.52s WALL (     264 calls)

     Called by sum_band:
     sum_band:bec :      0.00s CPU      0.00s WALL (     264 calls)
     addusdens    :      0.25s CPU      0.30s WALL (       6 calls)

     Called by *egterg:
     h_psi        :      5.98s CPU      7.64s WALL (    1104 calls)
     s_psi        :      0.07s CPU      0.08s WALL (    1104 calls)
     g_psi        :      0.02s CPU      0.02s WALL (     796 calls)
     cdiaghg      :      0.25s CPU      0.33s WALL (    1016 calls)

     Called by h_psi:
     h_psi:pot    :      5.96s CPU      7.62s WALL (    1104 calls)
     h_psi:calbec :      0.23s CPU      0.29s WALL (    1104 calls)
     vloc_psi     :      5.65s CPU      7.25s WALL (    1104 calls)
     add_vuspsi   :      0.08s CPU      0.08s WALL (    1104 calls)

     General routines
     calbec       :      0.61s CPU      0.82s WALL (    1412 calls)
     fft          :      0.27s CPU      0.42s WALL (     101 calls)
     ffts         :      0.01s CPU      0.01s WALL (      12 calls)
     fftw         :      6.12s CPU      8.01s WALL (   15808 calls)
     interpolate  :      0.04s CPU      0.05s WALL (      12 calls)
     davcio       :      0.00s CPU      0.00s WALL (      44 calls)

     Parallel routines
     fft_scatter  :      3.59s CPU      5.22s WALL (   15921 calls)

     PWSCF        :    10.85s CPU        13.98s WALL


   This run was terminated on:  16:25:36  17Dec2017            

=------------------------------------------------------------------------------=
   JOB DONE.
=------------------------------------------------------------------------------=
