
     Program PWSCF v.6.1 (svn rev. 13369) starts on 17Dec2017 at 16:25: 6 

     This program is part of the open-source Quantum ESPRESSO suite
     for quantum simulation of materials; please cite
         "P. Giannozzi et al., J. Phys.:Condens. Matter 21 395502 (2009);
          URL http://www.quantum-espresso.org", 
     in publications or presentations arising from this work. More details at
     http://www.quantum-espresso.org/quote

     Parallel version (MPI), running on     4 processors
     R & G space division:  proc/nbgrp/npool/nimage =       4
     Waiting for input...
     Reading input from standard input

     Current dimensions of program PWSCF are:
     Max number of different atomic species (ntypx) = 10
     Max number of k-points (npk) =  40000
     Max angular momentum in pseudopotentials (lmaxx) =  3

     Subspace diagonalization in iterative solution of the eigenvalue problem:
     a serial algorithm will be used


     Parallelization info
     --------------------
     sticks:   dense  smooth     PW     G-vecs:    dense   smooth      PW
     Min         372     184     55                 9068     3173     530
     Max         373     185     56                 9069     3174     531
     Sum        1489     739    221                36273    12695    2123



     bravais-lattice index     =            3
     lattice parameter (alat)  =       8.1080  a.u.
     unit-cell volume          =     266.5086 (a.u.)^3
     number of atoms/cell      =            1
     number of atomic types    =            1
     number of electrons       =         9.00
     number of Kohn-Sham states=            9
     kinetic-energy cutoff     =      50.0000  Ry
     charge density cutoff     =     400.0000  Ry
     convergence threshold     =      1.0E-08
     mixing beta               =       0.7000
     number of iterations used =            8  plain     mixing
     Exchange-correlation      = SLA  PW   PBE  PBE ( 1  4  3  4 0 0)

     celldm(1)=   8.108000  celldm(2)=   0.000000  celldm(3)=   0.000000
     celldm(4)=   0.000000  celldm(5)=   0.000000  celldm(6)=   0.000000

     crystal axes: (cart. coord. in units of alat)
               a(1) = (   0.500000   0.500000   0.500000 )  
               a(2) = (  -0.500000   0.500000   0.500000 )  
               a(3) = (  -0.500000  -0.500000   0.500000 )  

     reciprocal axes: (cart. coord. in units 2 pi/alat)
               b(1) = (  1.000000  0.000000  1.000000 )  
               b(2) = ( -1.000000  1.000000  0.000000 )  
               b(3) = (  0.000000 -1.000000  1.000000 )  


     PseudoPot. # 1 for Na read from file:
     /home/max/quantum_espresso/qe-6.1/pseudo/Na_pbe_v1.uspp.F.UPF
     MD5 check sum: 76a99c7e9422403d3e93cbc85ab7bccb
     Pseudo is Ultrasoft, Zval =  9.0
     Generated by new atomic code, or converted to UPF format
     Using radial grid of  819 points,  5 beta functions with: 
                l(1) =   0
                l(2) =   0
                l(3) =   1
                l(4) =   1
                l(5) =   2
     Q(r) pseudized with  8 coefficients,  rinner =    1.250   1.250   1.250
                                                       1.250   1.250

     atomic species   valence    mass     pseudopotential
        Na             9.00    22.99000     Na( 1.00)

     48 Sym. Ops., with inversion, found



   Cartesian axes

     site n.     atom                  positions (alat units)
         1           Na  tau(   1) = (   0.0000000   0.0000000   0.0000000  )

     number of k points=    44  Marzari-Vanderbilt smearing, width (Ry)=  0.0200
                       cart. coord. in units 2pi/alat
        k(    1) = (   0.0000000   0.0000000   0.1000000), wk =   0.0120000
        k(    2) = (   0.0000000  -0.1000000   0.2000000), wk =   0.0480000
        k(    3) = (   0.0000000  -0.2000000   0.3000000), wk =   0.0480000
        k(    4) = (   0.0000000  -0.3000000   0.4000000), wk =   0.0480000
        k(    5) = (   0.0000000  -0.4000000   0.5000000), wk =   0.0480000
        k(    6) = (  -0.1000000   0.1000000   0.1000000), wk =   0.0160000
        k(    7) = (  -0.1000000  -0.1000000   0.3000000), wk =   0.0480000
        k(    8) = (  -0.1000000  -0.2000000   0.4000000), wk =   0.0960000
        k(    9) = (  -0.1000000  -0.3000000   0.5000000), wk =   0.0960000
        k(   10) = (  -0.1000000   0.6000000  -0.4000000), wk =   0.0480000
        k(   11) = (  -0.2000000   0.2000000   0.1000000), wk =   0.0480000
        k(   12) = (  -0.2000000  -0.2000000   0.5000000), wk =   0.0480000
        k(   13) = (  -0.2000000   0.7000000  -0.4000000), wk =   0.0960000
        k(   14) = (  -0.3000000   0.3000000   0.1000000), wk =   0.0480000
        k(   15) = (  -0.3000000   0.2000000   0.2000000), wk =   0.0480000
        k(   16) = (  -0.3000000   0.7000000  -0.3000000), wk =   0.0160000
        k(   17) = (  -0.4000000   0.4000000   0.1000000), wk =   0.0480000
        k(   18) = (  -0.4000000   0.3000000   0.2000000), wk =   0.0960000
        k(   19) = (   0.5000000  -0.5000000   0.1000000), wk =   0.0240000
        k(   20) = (   0.5000000  -0.6000000   0.2000000), wk =   0.0960000
        k(   21) = (   0.5000000  -0.7000000   0.3000000), wk =   0.0480000
        k(   22) = (   0.4000000  -0.6000000   0.3000000), wk =   0.0480000
        k(   23) = (   0.0000000   0.0000000   0.3000000), wk =   0.0120000
        k(   24) = (   0.0000000  -0.1000000   0.4000000), wk =   0.0480000
        k(   25) = (   0.0000000  -0.2000000   0.5000000), wk =   0.0480000
        k(   26) = (   0.0000000  -0.3000000   0.6000000), wk =   0.0480000
        k(   27) = (  -0.1000000  -0.1000000   0.5000000), wk =   0.0480000
        k(   28) = (  -0.1000000  -0.2000000   0.6000000), wk =   0.0960000
        k(   29) = (  -0.1000000   0.7000000  -0.3000000), wk =   0.0480000
        k(   30) = (  -0.2000000   0.8000000  -0.3000000), wk =   0.0480000
        k(   31) = (  -0.3000000   0.3000000   0.3000000), wk =   0.0160000
        k(   32) = (   0.6000000  -0.6000000   0.3000000), wk =   0.0480000
        k(   33) = (   0.5000000  -0.5000000   0.3000000), wk =   0.0240000
        k(   34) = (   0.5000000  -0.6000000   0.4000000), wk =   0.0480000
        k(   35) = (   0.0000000   0.0000000   0.5000000), wk =   0.0120000
        k(   36) = (   0.0000000  -0.1000000   0.6000000), wk =   0.0480000
        k(   37) = (   0.0000000  -0.2000000   0.7000000), wk =   0.0480000
        k(   38) = (  -0.1000000  -0.1000000   0.7000000), wk =   0.0480000
        k(   39) = (  -0.1000000   0.8000000  -0.2000000), wk =   0.0480000
        k(   40) = (   0.5000000  -0.5000000   0.5000000), wk =   0.0040000
        k(   41) = (   0.0000000   0.0000000   0.7000000), wk =   0.0120000
        k(   42) = (   0.0000000  -0.1000000   0.8000000), wk =   0.0480000
        k(   43) = (  -0.1000000   0.9000000  -0.1000000), wk =   0.0160000
        k(   44) = (   0.0000000   0.0000000   0.9000000), wk =   0.0120000

     Dense  grid:    36273 G-vectors     FFT dimensions: (  45,  45,  45)

     Smooth grid:    12695 G-vectors     FFT dimensions: (  32,  32,  32)

     Estimated max dynamical RAM per process >       8.27MB

     Estimated total allocated dynamical RAM >      33.06MB

     Initial potential from superposition of free atoms

     starting charge    8.99371, renormalised to    9.00000
     Starting wfc are    5 randomized atomic wfcs +    4 random wfc

     total cpu time spent up to now is        0.8 secs

     per-process dynamical memory:    12.1 Mb

     Self-consistent Calculation

     iteration #  1     ecut=    50.00 Ry     beta=0.70
     Davidson diagonalization with overlap
     ethr =  1.00E-02,  avg # of iterations =  5.8

     Threshold (ethr) on eigenvalues was too large:
     Diagonalizing with lowered threshold

     Davidson diagonalization with overlap
     ethr =  9.65E-06,  avg # of iterations =  4.8

     total cpu time spent up to now is        2.8 secs

     total energy              =     -95.10677083 Ry
     Harris-Foulkes estimate   =     -95.10605000 Ry
     estimated scf accuracy    <       0.00086920 Ry

     iteration #  2     ecut=    50.00 Ry     beta=0.70
     Davidson diagonalization with overlap
     ethr =  9.66E-06,  avg # of iterations =  2.0

     total cpu time spent up to now is        3.3 secs

     total energy              =     -95.10689591 Ry
     Harris-Foulkes estimate   =     -95.10689020 Ry
     estimated scf accuracy    <       0.00009913 Ry

     iteration #  3     ecut=    50.00 Ry     beta=0.70
     Davidson diagonalization with overlap
     ethr =  1.10E-06,  avg # of iterations =  2.1

     total cpu time spent up to now is        3.8 secs

     total energy              =     -95.10690785 Ry
     Harris-Foulkes estimate   =     -95.10690706 Ry
     estimated scf accuracy    <       0.00000634 Ry

     iteration #  4     ecut=    50.00 Ry     beta=0.70
     Davidson diagonalization with overlap
     ethr =  7.05E-08,  avg # of iterations =  1.0

     total cpu time spent up to now is        4.4 secs

     total energy              =     -95.10690859 Ry
     Harris-Foulkes estimate   =     -95.10690840 Ry
     estimated scf accuracy    <       0.00000002 Ry

     iteration #  5     ecut=    50.00 Ry     beta=0.70
     Davidson diagonalization with overlap
     ethr =  1.82E-10,  avg # of iterations =  3.0

     total cpu time spent up to now is        5.2 secs

     End of self-consistent calculation

          k = 0.0000 0.0000 0.1000 (  1561 PWs)   bands (ev):

   -51.7002 -23.5987 -23.5983 -23.5983  -1.7168  11.8399  11.8399  12.3523
    12.7524

          k = 0.0000-0.1000 0.2000 (  1576 PWs)   bands (ev):

   -51.6999 -23.6037 -23.6001 -23.5984  -1.3813   9.5501  10.7213  11.5689
    12.1819

          k = 0.0000-0.2000 0.3000 (  1584 PWs)   bands (ev):

   -51.6995 -23.6120 -23.6029 -23.5983  -0.7162   7.1739   9.8352  10.7680
    11.4104

          k = 0.0000-0.3000 0.4000 (  1600 PWs)   bands (ev):

   -51.6991 -23.6202 -23.6058 -23.5983   0.2673   5.0397   9.2336  10.1871
    10.8722

          k = 0.0000-0.4000 0.5000 (  1598 PWs)   bands (ev):

   -51.6989 -23.6253 -23.6076 -23.5982   1.5448   3.1862   8.9305   9.8898
    10.6016

          k =-0.1000 0.1000 0.1000 (  1559 PWs)   bands (ev):

   -51.7001 -23.6022 -23.5983 -23.5983  -1.5488  10.7007  10.7007  11.4081
    13.4254

          k =-0.1000-0.1000 0.3000 (  1576 PWs)   bands (ev):

   -51.6996 -23.6094 -23.6020 -23.5996  -0.8818   8.2711   8.8335  11.3732
    11.6087

          k =-0.1000-0.2000 0.4000 (  1594 PWs)   bands (ev):

   -51.6992 -23.6166 -23.6053 -23.5999  -0.0586   6.2325   7.8786  10.9031
    11.0526

          k =-0.1000-0.3000 0.5000 (  1601 PWs)   bands (ev):

   -51.6989 -23.6225 -23.6082 -23.5999   1.0730   4.2614   7.4008  10.5076
    10.6347

          k =-0.1000 0.6000-0.4000 (  1591 PWs)   bands (ev):

   -51.6987 -23.6247 -23.6093 -23.5999   2.3128   2.7382   7.2439  10.3741
    10.4838

          k =-0.2000 0.2000 0.1000 (  1576 PWs)   bands (ev):

   -51.6997 -23.6090 -23.6006 -23.5983  -1.0478   8.3462   9.6256  10.4201
    12.8075

          k =-0.2000-0.2000 0.5000 (  1591 PWs)   bands (ev):

   -51.6989 -23.6203 -23.6091 -23.6009   0.9133   5.3530   6.0419  10.4302
    11.5391

          k =-0.2000 0.7000-0.4000 (  1593 PWs)   bands (ev):

   -51.6987 -23.6218 -23.6126 -23.6012   2.1711   3.7798   5.4738  10.1431
    11.5638

          k =-0.3000 0.3000 0.1000 (  1586 PWs)   bands (ev):

   -51.6993 -23.6168 -23.6040 -23.5983  -0.2223   6.1037   8.8505   9.7176
    12.0829

          k =-0.3000 0.2000 0.2000 (  1583 PWs)   bands (ev):

   -51.6994 -23.6152 -23.6024 -23.5996  -0.3865   7.1906   7.7444   9.3513
    13.3628

          k =-0.3000 0.7000-0.3000 (  1598 PWs)   bands (ev):

   -51.6986 -23.6180 -23.6180 -23.6016   3.3715   3.3715   4.2387   9.9987
    12.6289

          k =-0.4000 0.4000 0.1000 (  1587 PWs)   bands (ev):

   -51.6990 -23.6230 -23.6068 -23.5983   0.9127   4.1105   8.3844   9.2875
    11.6364

          k =-0.4000 0.3000 0.2000 (  1589 PWs)   bands (ev):

   -51.6990 -23.6202 -23.6061 -23.6001   0.5911   5.3048   6.9278   8.7220
    13.0676

          k = 0.5000-0.5000 0.1000 (  1594 PWs)   bands (ev):

   -51.6988 -23.6254 -23.6079 -23.5984   2.1619   2.5747   8.2289   9.1427
    11.4869

          k = 0.5000-0.6000 0.2000 (  1594 PWs)   bands (ev):

   -51.6988 -23.6228 -23.6091 -23.6003   1.8588   3.4908   6.5997   8.4102
    12.8090

          k = 0.5000-0.7000 0.3000 (  1592 PWs)   bands (ev):

   -51.6988 -23.6206 -23.6103 -23.6015   1.7069   4.5874   5.2442   8.2248
    13.8543

          k = 0.4000-0.6000 0.3000 (  1600 PWs)   bands (ev):

   -51.6987 -23.6195 -23.6133 -23.6018   2.9163   3.3255   4.8604   8.0632
    13.9647

          k = 0.0000 0.0000 0.3000 (  1593 PWs)   bands (ev):

   -51.6997 -23.6048 -23.6019 -23.6019  -1.0478   9.5761   9.5761   9.7589
    11.3475

          k = 0.0000-0.1000 0.4000 (  1586 PWs)   bands (ev):

   -51.6993 -23.6116 -23.6048 -23.6025  -0.3864   7.4297   8.7016   9.4367
    11.0942

          k = 0.0000-0.2000 0.5000 (  1591 PWs)   bands (ev):

   -51.6989 -23.6192 -23.6078 -23.6022   0.5915   5.3350   8.1164   8.9469
    11.7620

          k = 0.0000-0.3000 0.6000 (  1587 PWs)   bands (ev):

   -51.6986 -23.6239 -23.6096 -23.6021   1.8602   3.4996   7.8234   8.6549
    12.3183

          k =-0.1000-0.1000 0.5000 (  1600 PWs)   bands (ev):

   -51.6989 -23.6165 -23.6082 -23.6040   0.4298   6.4290   7.0641   9.5223
    10.6020

          k =-0.1000-0.2000 0.6000 (  1599 PWs)   bands (ev):

   -51.6986 -23.6211 -23.6115 -23.6041   1.5513   4.6975   6.3800   9.4316
    11.1802

          k =-0.1000 0.7000-0.3000 (  1592 PWs)   bands (ev):

   -51.6985 -23.6228 -23.6127 -23.6040   2.7662   3.2178   6.2080   9.3255
    12.0122

          k =-0.2000 0.8000-0.3000 (  1593 PWs)   bands (ev):

   -51.6984 -23.6205 -23.6161 -23.6045   2.7850   4.1325   4.8391  10.3040
    10.9759

          k =-0.3000 0.3000 0.3000 (  1604 PWs)   bands (ev):

   -51.6991 -23.6193 -23.6028 -23.6028   0.4294   6.4203   6.4203   7.6779
    15.3160

          k = 0.6000-0.6000 0.3000 (  1596 PWs)   bands (ev):

   -51.6989 -23.6204 -23.6075 -23.6032   1.5494   4.6670   5.9590   6.9800
    15.2953

          k = 0.5000-0.5000 0.3000 (  1586 PWs)   bands (ev):

   -51.6988 -23.6200 -23.6102 -23.6033   2.7649   3.1998   5.8054   6.7854
    15.1640

          k = 0.5000-0.6000 0.4000 (  1594 PWs)   bands (ev):

   -51.6988 -23.6173 -23.6112 -23.6055   2.7795   4.1293   4.6879   6.3536
    16.3793

          k = 0.0000 0.0000 0.5000 (  1609 PWs)   bands (ev):

   -51.6989 -23.6124 -23.6079 -23.6079   0.2676   7.8030   7.8334   7.8334
     9.5774

          k = 0.0000-0.1000 0.6000 (  1591 PWs)   bands (ev):

   -51.6985 -23.6177 -23.6109 -23.6086   1.2346   5.8974   7.2542   7.8465
     9.5542

          k = 0.0000-0.2000 0.7000 (  1596 PWs)   bands (ev):

   -51.6983 -23.6218 -23.6128 -23.6082   2.4861   4.1136   6.9648   7.6353
    10.4369

          k =-0.1000-0.1000 0.7000 (  1593 PWs)   bands (ev):

   -51.6982 -23.6197 -23.6146 -23.6097   2.3387   5.2020   5.8568   8.2902
     9.2613

          k =-0.1000 0.8000-0.2000 (  1589 PWs)   bands (ev):

   -51.6981 -23.6206 -23.6165 -23.6096   3.5243   3.9601   5.4916   8.4480
     9.6867

          k = 0.5000-0.5000 0.5000 (  1592 PWs)   bands (ev):

   -51.6988 -23.6115 -23.6115 -23.6115   3.9769   3.9769   3.9769   5.4123
    18.0527

          k = 0.0000 0.0000 0.7000 (  1577 PWs)   bands (ev):

   -51.6982 -23.6170 -23.6141 -23.6141   2.1851   6.4975   6.6791   6.6791
     8.1931

          k = 0.0000-0.1000 0.8000 (  1598 PWs)   bands (ev):

   -51.6980 -23.6196 -23.6160 -23.6144   3.4118   4.9858   6.3919   6.8626
     8.3669

          k =-0.1000 0.9000-0.1000 (  1608 PWs)   bands (ev):

   -51.6979 -23.6187 -23.6187 -23.6149   4.5894   4.5894   5.4283   7.6767
     7.6767

          k = 0.0000 0.0000 0.9000 (  1614 PWs)   bands (ev):

   -51.6978 -23.6185 -23.6180 -23.6180   4.6050   5.8445   6.1059   6.1059
     6.9715

     the Fermi energy is     1.3742 ev

!    total energy              =     -95.10690864 Ry
     Harris-Foulkes estimate   =     -95.10690862 Ry
     estimated scf accuracy    <          1.0E-09 Ry

     The total energy is the sum of the following terms:

     one-electron contribution =     -89.50230920 Ry
     hartree contribution      =      45.01244791 Ry
     xc contribution           =     -14.26076039 Ry
     ewald contribution        =     -36.35642691 Ry
     smearing contrib. (-TS)   =       0.00013995 Ry

     convergence has been achieved in   5 iterations


     Computing stress (Cartesian axis) and pressure

          total   stress  (Ry/bohr**3)                   (kbar)     P=   -4.94
  -0.00003357   0.00000000  -0.00000000         -4.94      0.00     -0.00
   0.00000000  -0.00003357   0.00000000          0.00     -4.94      0.00
  -0.00000000   0.00000000  -0.00003357         -0.00      0.00     -4.94


     Writing output data file na.bcc.save

     init_run     :      0.55s CPU      0.79s WALL (       1 calls)
     electrons    :      3.60s CPU      4.38s WALL (       1 calls)
     stress       :      0.27s CPU      0.27s WALL (       1 calls)

     Called by init_run:
     wfcinit      :      0.17s CPU      0.23s WALL (       1 calls)
     potinit      :      0.10s CPU      0.20s WALL (       1 calls)

     Called by electrons:
     c_bands      :      2.48s CPU      2.76s WALL (       6 calls)
     sum_band     :      0.79s CPU      1.13s WALL (       6 calls)
     v_of_rho     :      0.21s CPU      0.33s WALL (       6 calls)
     newd         :      0.15s CPU      0.28s WALL (       6 calls)
     mix_rho      :      0.01s CPU      0.02s WALL (       6 calls)

     Called by c_bands:
     init_us_2    :      0.09s CPU      0.09s WALL (     616 calls)
     cegterg      :      2.35s CPU      2.62s WALL (     264 calls)

     Called by sum_band:
     sum_band:bec :      0.00s CPU      0.00s WALL (     264 calls)
     addusdens    :      0.13s CPU      0.19s WALL (       6 calls)

     Called by *egterg:
     h_psi        :      1.75s CPU      1.98s WALL (    1125 calls)
     s_psi        :      0.04s CPU      0.05s WALL (    1125 calls)
     g_psi        :      0.01s CPU      0.01s WALL (     817 calls)
     cdiaghg      :      0.26s CPU      0.28s WALL (    1037 calls)

     Called by h_psi:
     h_psi:pot    :      1.74s CPU      1.97s WALL (    1125 calls)
     h_psi:calbec :      0.09s CPU      0.10s WALL (    1125 calls)
     vloc_psi     :      1.61s CPU      1.83s WALL (    1125 calls)
     add_vuspsi   :      0.04s CPU      0.05s WALL (    1125 calls)

     General routines
     calbec       :      0.14s CPU      0.17s WALL (    1433 calls)
     fft          :      0.19s CPU      0.33s WALL (     101 calls)
     ffts         :      0.03s CPU      0.05s WALL (      12 calls)
     fftw         :      1.94s CPU      2.40s WALL (   15742 calls)
     interpolate  :      0.06s CPU      0.08s WALL (      12 calls)
     davcio       :      0.00s CPU      0.00s WALL (      44 calls)

     Parallel routines
     fft_scatter  :      1.12s CPU      1.62s WALL (   15855 calls)

     PWSCF        :     4.52s CPU         5.55s WALL


   This run was terminated on:  16:25:12  17Dec2017            

=------------------------------------------------------------------------------=
   JOB DONE.
=------------------------------------------------------------------------------=
