
     Program PWSCF v.6.1 (svn rev. 13369) starts on 17Dec2017 at 16:25:36 

     This program is part of the open-source Quantum ESPRESSO suite
     for quantum simulation of materials; please cite
         "P. Giannozzi et al., J. Phys.:Condens. Matter 21 395502 (2009);
          URL http://www.quantum-espresso.org", 
     in publications or presentations arising from this work. More details at
     http://www.quantum-espresso.org/quote

     Parallel version (MPI), running on     4 processors
     R & G space division:  proc/nbgrp/npool/nimage =       4
     Waiting for input...
     Reading input from standard input

     Current dimensions of program PWSCF are:
     Max number of different atomic species (ntypx) = 10
     Max number of k-points (npk) =  40000
     Max angular momentum in pseudopotentials (lmaxx) =  3

     Subspace diagonalization in iterative solution of the eigenvalue problem:
     a serial algorithm will be used


     Parallelization info
     --------------------
     sticks:   dense  smooth     PW     G-vecs:    dense   smooth      PW
     Min         592     293     86                18200     6424    1023
     Max         593     294     87                18202     6425    1024
     Sum        2371    1175    345                72805    25699    4093



     bravais-lattice index     =            3
     lattice parameter (alat)  =       8.1080  a.u.
     unit-cell volume          =     266.5086 (a.u.)^3
     number of atoms/cell      =            1
     number of atomic types    =            1
     number of electrons       =         9.00
     number of Kohn-Sham states=            9
     kinetic-energy cutoff     =      80.0000  Ry
     charge density cutoff     =     640.0000  Ry
     convergence threshold     =      1.0E-08
     mixing beta               =       0.7000
     number of iterations used =            8  plain     mixing
     Exchange-correlation      = SLA  PW   PBE  PBE ( 1  4  3  4 0 0)

     celldm(1)=   8.108000  celldm(2)=   0.000000  celldm(3)=   0.000000
     celldm(4)=   0.000000  celldm(5)=   0.000000  celldm(6)=   0.000000

     crystal axes: (cart. coord. in units of alat)
               a(1) = (   0.500000   0.500000   0.500000 )  
               a(2) = (  -0.500000   0.500000   0.500000 )  
               a(3) = (  -0.500000  -0.500000   0.500000 )  

     reciprocal axes: (cart. coord. in units 2 pi/alat)
               b(1) = (  1.000000  0.000000  1.000000 )  
               b(2) = ( -1.000000  1.000000  0.000000 )  
               b(3) = (  0.000000 -1.000000  1.000000 )  


     PseudoPot. # 1 for Na read from file:
     /home/max/quantum_espresso/qe-6.1/pseudo/Na_pbe_v1.uspp.F.UPF
     MD5 check sum: 76a99c7e9422403d3e93cbc85ab7bccb
     Pseudo is Ultrasoft, Zval =  9.0
     Generated by new atomic code, or converted to UPF format
     Using radial grid of  819 points,  5 beta functions with: 
                l(1) =   0
                l(2) =   0
                l(3) =   1
                l(4) =   1
                l(5) =   2
     Q(r) pseudized with  8 coefficients,  rinner =    1.250   1.250   1.250
                                                       1.250   1.250

     atomic species   valence    mass     pseudopotential
        Na             9.00    22.99000     Na( 1.00)

     48 Sym. Ops., with inversion, found



   Cartesian axes

     site n.     atom                  positions (alat units)
         1           Na  tau(   1) = (   0.0000000   0.0000000   0.0000000  )

     number of k points=    44  Marzari-Vanderbilt smearing, width (Ry)=  0.0200
                       cart. coord. in units 2pi/alat
        k(    1) = (   0.0000000   0.0000000   0.1000000), wk =   0.0120000
        k(    2) = (   0.0000000  -0.1000000   0.2000000), wk =   0.0480000
        k(    3) = (   0.0000000  -0.2000000   0.3000000), wk =   0.0480000
        k(    4) = (   0.0000000  -0.3000000   0.4000000), wk =   0.0480000
        k(    5) = (   0.0000000  -0.4000000   0.5000000), wk =   0.0480000
        k(    6) = (  -0.1000000   0.1000000   0.1000000), wk =   0.0160000
        k(    7) = (  -0.1000000  -0.1000000   0.3000000), wk =   0.0480000
        k(    8) = (  -0.1000000  -0.2000000   0.4000000), wk =   0.0960000
        k(    9) = (  -0.1000000  -0.3000000   0.5000000), wk =   0.0960000
        k(   10) = (  -0.1000000   0.6000000  -0.4000000), wk =   0.0480000
        k(   11) = (  -0.2000000   0.2000000   0.1000000), wk =   0.0480000
        k(   12) = (  -0.2000000  -0.2000000   0.5000000), wk =   0.0480000
        k(   13) = (  -0.2000000   0.7000000  -0.4000000), wk =   0.0960000
        k(   14) = (  -0.3000000   0.3000000   0.1000000), wk =   0.0480000
        k(   15) = (  -0.3000000   0.2000000   0.2000000), wk =   0.0480000
        k(   16) = (  -0.3000000   0.7000000  -0.3000000), wk =   0.0160000
        k(   17) = (  -0.4000000   0.4000000   0.1000000), wk =   0.0480000
        k(   18) = (  -0.4000000   0.3000000   0.2000000), wk =   0.0960000
        k(   19) = (   0.5000000  -0.5000000   0.1000000), wk =   0.0240000
        k(   20) = (   0.5000000  -0.6000000   0.2000000), wk =   0.0960000
        k(   21) = (   0.5000000  -0.7000000   0.3000000), wk =   0.0480000
        k(   22) = (   0.4000000  -0.6000000   0.3000000), wk =   0.0480000
        k(   23) = (   0.0000000   0.0000000   0.3000000), wk =   0.0120000
        k(   24) = (   0.0000000  -0.1000000   0.4000000), wk =   0.0480000
        k(   25) = (   0.0000000  -0.2000000   0.5000000), wk =   0.0480000
        k(   26) = (   0.0000000  -0.3000000   0.6000000), wk =   0.0480000
        k(   27) = (  -0.1000000  -0.1000000   0.5000000), wk =   0.0480000
        k(   28) = (  -0.1000000  -0.2000000   0.6000000), wk =   0.0960000
        k(   29) = (  -0.1000000   0.7000000  -0.3000000), wk =   0.0480000
        k(   30) = (  -0.2000000   0.8000000  -0.3000000), wk =   0.0480000
        k(   31) = (  -0.3000000   0.3000000   0.3000000), wk =   0.0160000
        k(   32) = (   0.6000000  -0.6000000   0.3000000), wk =   0.0480000
        k(   33) = (   0.5000000  -0.5000000   0.3000000), wk =   0.0240000
        k(   34) = (   0.5000000  -0.6000000   0.4000000), wk =   0.0480000
        k(   35) = (   0.0000000   0.0000000   0.5000000), wk =   0.0120000
        k(   36) = (   0.0000000  -0.1000000   0.6000000), wk =   0.0480000
        k(   37) = (   0.0000000  -0.2000000   0.7000000), wk =   0.0480000
        k(   38) = (  -0.1000000  -0.1000000   0.7000000), wk =   0.0480000
        k(   39) = (  -0.1000000   0.8000000  -0.2000000), wk =   0.0480000
        k(   40) = (   0.5000000  -0.5000000   0.5000000), wk =   0.0040000
        k(   41) = (   0.0000000   0.0000000   0.7000000), wk =   0.0120000
        k(   42) = (   0.0000000  -0.1000000   0.8000000), wk =   0.0480000
        k(   43) = (  -0.1000000   0.9000000  -0.1000000), wk =   0.0160000
        k(   44) = (   0.0000000   0.0000000   0.9000000), wk =   0.0120000

     Dense  grid:    72805 G-vectors     FFT dimensions: (  60,  60,  60)

     Smooth grid:    25699 G-vectors     FFT dimensions: (  40,  40,  40)

     Estimated max dynamical RAM per process >      16.97MB

     Estimated total allocated dynamical RAM >      67.88MB

     Initial potential from superposition of free atoms

     starting charge    8.99371, renormalised to    9.00000
     Starting wfc are    5 randomized atomic wfcs +    4 random wfc

     total cpu time spent up to now is        1.3 secs

     per-process dynamical memory:    19.3 Mb

     Self-consistent Calculation

     iteration #  1     ecut=    80.00 Ry     beta=0.70
     Davidson diagonalization with overlap
     ethr =  1.00E-02,  avg # of iterations =  6.0

     Threshold (ethr) on eigenvalues was too large:
     Diagonalizing with lowered threshold

     Davidson diagonalization with overlap
     ethr =  8.02E-06,  avg # of iterations =  5.2

     total cpu time spent up to now is        6.1 secs

     total energy              =     -95.10740084 Ry
     Harris-Foulkes estimate   =     -95.09008822 Ry
     estimated scf accuracy    <       0.00071218 Ry

     iteration #  2     ecut=    80.00 Ry     beta=0.70
     Davidson diagonalization with overlap
     ethr =  7.91E-06,  avg # of iterations =  2.2

     total cpu time spent up to now is        8.2 secs

     total energy              =     -95.10843605 Ry
     Harris-Foulkes estimate   =     -95.10757287 Ry
     estimated scf accuracy    <       0.00010640 Ry

     iteration #  3     ecut=    80.00 Ry     beta=0.70
     Davidson diagonalization with overlap
     ethr =  1.18E-06,  avg # of iterations =  1.9

     total cpu time spent up to now is       10.1 secs

     total energy              =     -95.10847005 Ry
     Harris-Foulkes estimate   =     -95.10844473 Ry
     estimated scf accuracy    <       0.00000722 Ry

     iteration #  4     ecut=    80.00 Ry     beta=0.70
     Davidson diagonalization with overlap
     ethr =  8.03E-08,  avg # of iterations =  1.6

     total cpu time spent up to now is       11.6 secs

     total energy              =     -95.10847242 Ry
     Harris-Foulkes estimate   =     -95.10847075 Ry
     estimated scf accuracy    <       0.00000008 Ry

     iteration #  5     ecut=    80.00 Ry     beta=0.70
     Davidson diagonalization with overlap
     ethr =  8.45E-10,  avg # of iterations =  2.0

     total cpu time spent up to now is       14.0 secs

     End of self-consistent calculation

          k = 0.0000 0.0000 0.1000 (  3191 PWs)   bands (ev):

   -51.7056 -23.6060 -23.6055 -23.6055  -1.7158  11.8411  11.8411  12.3526
    12.7537

          k = 0.0000-0.1000 0.2000 (  3208 PWs)   bands (ev):

   -51.7054 -23.6109 -23.6073 -23.6056  -1.3803   9.5509  10.7223  11.5697
    12.1833

          k = 0.0000-0.2000 0.3000 (  3224 PWs)   bands (ev):

   -51.7049 -23.6192 -23.6102 -23.6056  -0.7152   7.1748   9.8362  10.7691
    11.4119

          k = 0.0000-0.3000 0.4000 (  3216 PWs)   bands (ev):

   -51.7045 -23.6274 -23.6130 -23.6055   0.2682   5.0406   9.2346  10.1882
    10.8738

          k = 0.0000-0.4000 0.5000 (  3212 PWs)   bands (ev):

   -51.7043 -23.6324 -23.6148 -23.6055   1.5456   3.1873   8.9314   9.8909
    10.6031

          k =-0.1000 0.1000 0.1000 (  3205 PWs)   bands (ev):

   -51.7055 -23.6094 -23.6055 -23.6055  -1.5478  10.7015  10.7015  11.4101
    13.4264

          k =-0.1000-0.1000 0.3000 (  3213 PWs)   bands (ev):

   -51.7050 -23.6166 -23.6092 -23.6068  -0.8808   8.2717   8.8347  11.3739
    11.6104

          k =-0.1000-0.2000 0.4000 (  3215 PWs)   bands (ev):

   -51.7046 -23.6238 -23.6125 -23.6071  -0.0577   6.2333   7.8798  10.9044
    11.0538

          k =-0.1000-0.3000 0.5000 (  3222 PWs)   bands (ev):

   -51.7043 -23.6297 -23.6154 -23.6071   1.0739   4.2623   7.4019  10.5090
    10.6360

          k =-0.1000 0.6000-0.4000 (  3218 PWs)   bands (ev):

   -51.7041 -23.6319 -23.6165 -23.6071   2.3131   2.7396   7.2450  10.3755
    10.4851

          k =-0.2000 0.2000 0.1000 (  3218 PWs)   bands (ev):

   -51.7052 -23.6162 -23.6079 -23.6056  -1.0468   8.3470   9.6263  10.4221
    12.8084

          k =-0.2000-0.2000 0.5000 (  3214 PWs)   bands (ev):

   -51.7043 -23.6275 -23.6163 -23.6082   0.9142   5.3535   6.0434  10.4317
    11.5398

          k =-0.2000 0.7000-0.4000 (  3217 PWs)   bands (ev):

   -51.7041 -23.6289 -23.6198 -23.6085   2.1719   3.7807   5.4751  10.1447
    11.5649

          k =-0.3000 0.3000 0.1000 (  3214 PWs)   bands (ev):

   -51.7047 -23.6240 -23.6112 -23.6056  -0.2214   6.1046   8.8512   9.7196
    12.0837

          k =-0.3000 0.2000 0.2000 (  3227 PWs)   bands (ev):

   -51.7048 -23.6224 -23.6096 -23.6069  -0.3855   7.1912   7.7455   9.3531
    13.3635

          k =-0.3000 0.7000-0.3000 (  3225 PWs)   bands (ev):

   -51.7040 -23.6252 -23.6252 -23.6088   3.3719   3.3719   4.2408  10.0002
    12.6297

          k =-0.4000 0.4000 0.1000 (  3220 PWs)   bands (ev):

   -51.7044 -23.6302 -23.6141 -23.6056   0.9135   4.1114   8.3850   9.2895
    11.6372

          k =-0.4000 0.3000 0.2000 (  3211 PWs)   bands (ev):

   -51.7045 -23.6274 -23.6133 -23.6074   0.5920   5.3056   6.9288   8.7237
    13.0687

          k = 0.5000-0.5000 0.1000 (  3196 PWs)   bands (ev):

   -51.7042 -23.6326 -23.6151 -23.6056   2.1622   2.5762   8.2295   9.1447
    11.4876

          k = 0.5000-0.6000 0.2000 (  3208 PWs)   bands (ev):

   -51.7042 -23.6300 -23.6163 -23.6075   1.8595   3.4918   6.6006   8.4119
    12.8102

          k = 0.5000-0.7000 0.3000 (  3209 PWs)   bands (ev):

   -51.7042 -23.6278 -23.6175 -23.6087   1.7077   4.5878   5.2456   8.2265
    13.8551

          k = 0.4000-0.6000 0.3000 (  3211 PWs)   bands (ev):

   -51.7041 -23.6267 -23.6205 -23.6091   2.9167   3.3266   4.8617   8.0648
    13.9659

          k = 0.0000 0.0000 0.3000 (  3227 PWs)   bands (ev):

   -51.7051 -23.6120 -23.6091 -23.6091  -1.0468   9.5772   9.5772   9.7592
    11.3498

          k = 0.0000-0.1000 0.4000 (  3220 PWs)   bands (ev):

   -51.7047 -23.6188 -23.6120 -23.6097  -0.3855   7.4305   8.7026   9.4376
    11.0962

          k = 0.0000-0.2000 0.5000 (  3214 PWs)   bands (ev):

   -51.7043 -23.6264 -23.6150 -23.6095   0.5924   5.3358   8.1174   8.9480
    11.7636

          k = 0.0000-0.3000 0.6000 (  3221 PWs)   bands (ev):

   -51.7040 -23.6311 -23.6168 -23.6093   1.8610   3.5006   7.8244   8.6562
    12.3196

          k =-0.1000-0.1000 0.5000 (  3220 PWs)   bands (ev):

   -51.7043 -23.6237 -23.6154 -23.6112   0.4307   6.4295   7.0655   9.5230
    10.6041

          k =-0.1000-0.2000 0.6000 (  3228 PWs)   bands (ev):

   -51.7040 -23.6282 -23.6186 -23.6113   1.5522   4.6983   6.3812   9.4326
    11.1818

          k =-0.1000 0.7000-0.3000 (  3237 PWs)   bands (ev):

   -51.7039 -23.6300 -23.6199 -23.6113   2.7666   3.2191   6.2091   9.3266
    12.0129

          k =-0.2000 0.8000-0.3000 (  3232 PWs)   bands (ev):

   -51.7038 -23.6277 -23.6233 -23.6117   2.7857   4.1329   4.8408  10.3047
    10.9772

          k =-0.3000 0.3000 0.3000 (  3208 PWs)   bands (ev):

   -51.7045 -23.6265 -23.6100 -23.6100   0.4303   6.4209   6.4209   7.6803
    15.3168

          k = 0.6000-0.6000 0.3000 (  3220 PWs)   bands (ev):

   -51.7043 -23.6276 -23.6147 -23.6104   1.5503   4.6678   5.9596   6.9823
    15.2965

          k = 0.5000-0.5000 0.3000 (  3224 PWs)   bands (ev):

   -51.7042 -23.6272 -23.6174 -23.6105   2.7653   3.2011   5.8059   6.7877
    15.1651

          k = 0.5000-0.6000 0.4000 (  3220 PWs)   bands (ev):

   -51.7042 -23.6245 -23.6184 -23.6127   2.7801   4.1298   4.6890   6.3557
    16.3807

          k = 0.0000 0.0000 0.5000 (  3216 PWs)   bands (ev):

   -51.7043 -23.6195 -23.6151 -23.6151   0.2685   7.8032   7.8345   7.8345
     9.5798

          k = 0.0000-0.1000 0.6000 (  3232 PWs)   bands (ev):

   -51.7039 -23.6249 -23.6181 -23.6158   1.2355   5.8982   7.2552   7.8475
     9.5561

          k = 0.0000-0.2000 0.7000 (  3237 PWs)   bands (ev):

   -51.7037 -23.6290 -23.6200 -23.6155   2.4868   4.1146   6.9658   7.6365
    10.4381

          k =-0.1000-0.1000 0.7000 (  3226 PWs)   bands (ev):

   -51.7036 -23.6269 -23.6218 -23.6169   2.3395   5.2025   5.8583   8.2908
     9.2631

          k =-0.1000 0.8000-0.2000 (  3232 PWs)   bands (ev):

   -51.7035 -23.6278 -23.6237 -23.6168   3.5248   3.9611   5.4930   8.4489
     9.6875

          k = 0.5000-0.5000 0.5000 (  3244 PWs)   bands (ev):

   -51.7042 -23.6188 -23.6188 -23.6188   3.9774   3.9774   3.9774   5.4153
    18.0552

          k = 0.0000 0.0000 0.7000 (  3228 PWs)   bands (ev):

   -51.7036 -23.6242 -23.6213 -23.6213   2.1859   6.4978   6.6800   6.6800
     8.1954

          k = 0.0000-0.1000 0.8000 (  3239 PWs)   bands (ev):

   -51.7034 -23.6268 -23.6232 -23.6216   3.4125   4.9865   6.3929   6.8635
     8.3681

          k =-0.1000 0.9000-0.1000 (  3249 PWs)   bands (ev):

   -51.7032 -23.6259 -23.6259 -23.6221   4.5898   4.5898   5.4298   7.6773
     7.6773

          k = 0.0000 0.0000 0.9000 (  3276 PWs)   bands (ev):

   -51.7031 -23.6256 -23.6252 -23.6252   4.6056   5.8447   6.1068   6.1068
     6.9726

     the Fermi energy is     1.3751 ev

!    total energy              =     -95.10847262 Ry
     Harris-Foulkes estimate   =     -95.10847245 Ry
     estimated scf accuracy    <          9.7E-09 Ry

     The total energy is the sum of the following terms:

     one-electron contribution =     -89.50135227 Ry
     hartree contribution      =      45.00893881 Ry
     xc contribution           =     -14.25977214 Ry
     ewald contribution        =     -36.35642691 Ry
     smearing contrib. (-TS)   =       0.00013988 Ry

     convergence has been achieved in   5 iterations


     Computing stress (Cartesian axis) and pressure

          total   stress  (Ry/bohr**3)                   (kbar)     P=   -5.15
  -0.00003499   0.00000000  -0.00000000         -5.15      0.00     -0.00
   0.00000000  -0.00003499   0.00000000          0.00     -5.15      0.00
  -0.00000000   0.00000000  -0.00003499         -0.00      0.00     -5.15


     Writing output data file na.bcc.save

     init_run     :      0.96s CPU      1.28s WALL (       1 calls)
     electrons    :     10.10s CPU     12.66s WALL (       1 calls)
     stress       :      0.57s CPU      0.70s WALL (       1 calls)

     Called by init_run:
     wfcinit      :      0.56s CPU      0.81s WALL (       1 calls)
     potinit      :      0.07s CPU      0.08s WALL (       1 calls)

     Called by electrons:
     c_bands      :      8.01s CPU     10.40s WALL (       6 calls)
     sum_band     :      1.40s CPU      1.52s WALL (       6 calls)
     v_of_rho     :      0.37s CPU      0.40s WALL (       6 calls)
     newd         :      0.36s CPU      0.42s WALL (       6 calls)
     mix_rho      :      0.03s CPU      0.03s WALL (       6 calls)

     Called by c_bands:
     init_us_2    :      0.21s CPU      0.23s WALL (     616 calls)
     cegterg      :      7.74s CPU     10.02s WALL (     264 calls)

     Called by sum_band:
     sum_band:bec :      0.00s CPU      0.00s WALL (     264 calls)
     addusdens    :      0.30s CPU      0.34s WALL (       6 calls)

     Called by *egterg:
     h_psi        :      6.44s CPU      8.51s WALL (    1140 calls)
     s_psi        :      0.09s CPU      0.10s WALL (    1140 calls)
     g_psi        :      0.03s CPU      0.03s WALL (     832 calls)
     cdiaghg      :      0.31s CPU      0.40s WALL (    1052 calls)

     Called by h_psi:
     h_psi:pot    :      6.41s CPU      8.47s WALL (    1140 calls)
     h_psi:calbec :      0.35s CPU      0.45s WALL (    1140 calls)
     vloc_psi     :      5.96s CPU      7.89s WALL (    1140 calls)
     add_vuspsi   :      0.10s CPU      0.12s WALL (    1140 calls)

     General routines
     calbec       :      0.45s CPU      0.56s WALL (    1448 calls)
     fft          :      0.30s CPU      0.33s WALL (     101 calls)
     ffts         :      0.01s CPU      0.01s WALL (      12 calls)
     fftw         :      5.96s CPU      7.88s WALL (   16060 calls)
     interpolate  :      0.04s CPU      0.05s WALL (      12 calls)
     davcio       :      0.00s CPU      0.00s WALL (      44 calls)

     Parallel routines
     fft_scatter  :      3.33s CPU      4.82s WALL (   16173 calls)

     PWSCF        :    11.79s CPU        14.91s WALL


   This run was terminated on:  16:25:51  17Dec2017            

=------------------------------------------------------------------------------=
   JOB DONE.
=------------------------------------------------------------------------------=
