
     Program PHONON v.6.1 (svn rev. 13369) starts on 31Jan2018 at 20:24: 2 

     This program is part of the open-source Quantum ESPRESSO suite
     for quantum simulation of materials; please cite
         "P. Giannozzi et al., J. Phys.:Condens. Matter 21 395502 (2009);
          URL http://www.quantum-espresso.org", 
     in publications or presentations arising from this work. More details at
     http://www.quantum-espresso.org/quote

     Parallel version (MPI), running on    64 processors
     K-points division:     npool     =       4
     R & G space division:  proc/nbgrp/npool/nimage =      16

     Reading data from directory:
     ./na.bcc.save

   Info: using nr1, nr2, nr3 values from input

   Info: using nr1, nr2, nr3 values from input

     IMPORTANT: XC functional enforced from input :
     Exchange-correlation      = SLA  PW   PBE  PBE ( 1  4  3  4 0 0)
     Any further DFT definition will be discarded
     Please, verify this is what you really want


     Parallelization info
     --------------------
     sticks:   dense  smooth     PW     G-vecs:    dense   smooth      PW
     Min          63      31     10                 1272      443      80
     Max          64      32     11                 1275      446      81
     Sum        1019     499    165                20377     7107    1289



     Dynamical matrices for ( 6, 6, 6)  uniform grid of q-points
     (  16q-points):
       N         xq(1)         xq(2)         xq(3) 
       1   0.000000000   0.000000000   0.000000000
       2   0.000000000  -0.166666667   0.166666667
       3   0.000000000  -0.333333333   0.333333333
       4   0.000000000   0.500000000  -0.500000000
       5  -0.166666667  -0.166666667   0.333333333
       6  -0.166666667   0.666666667  -0.500000000
       7  -0.333333333   0.666666667  -0.333333333
       8   0.000000000   0.000000000   0.333333333
       9   0.000000000  -0.166666667   0.500000000
      10   0.000000000   0.666666667  -0.333333333
      11  -0.166666667   0.833333333  -0.333333333
      12   0.666666667  -0.666666667   0.333333333
      13   0.500000000  -0.500000000   0.333333333
      14   0.000000000   0.000000000   0.666666667
      15   0.000000000   0.833333333  -0.166666667
      16   0.000000000   0.000000000  -1.000000000

     Calculation of q =    0.0000000   0.0000000   0.0000000

                                                                                

     bravais-lattice index     =            3
     lattice parameter (alat)  =       7.5000  a.u.
     unit-cell volume          =     210.9375 (a.u.)^3
     number of atoms/cell      =            1
     number of atomic types    =            1
     kinetic-energy cut-off    =      40.0000  Ry
     charge density cut-off    =     320.0000  Ry
     convergence threshold     =      1.0E-16
     beta                      =       0.7000
     number of iterations used =            4
     Exchange-correlation      = SLA  PW   PBE  PBE ( 1  4  3  4 0 0)


     celldm(1)=    7.50000  celldm(2)=    0.00000  celldm(3)=    0.00000
     celldm(4)=    0.00000  celldm(5)=    0.00000  celldm(6)=    0.00000

     crystal axes: (cart. coord. in units of alat)
               a(1) = (  0.5000  0.5000  0.5000 )  
               a(2) = ( -0.5000  0.5000  0.5000 )  
               a(3) = ( -0.5000 -0.5000  0.5000 )  

     reciprocal axes: (cart. coord. in units 2 pi/alat)
               b(1) = (  1.0000  0.0000  1.0000 )  
               b(2) = ( -1.0000  1.0000  0.0000 )  
               b(3) = (  0.0000 -1.0000  1.0000 )  


     Atoms inside the unit cell: 

     Cartesian axes

     site n.  atom      mass           positions (alat units)
        1     Na  22.9900   tau(    1) = (    0.00000    0.00000    0.00000  )

     Computing dynamical matrix for 
                    q = (   0.0000000   0.0000000   0.0000000 )

     49 Sym.Ops. (with q -> -q+G )


     G cutoff =  455.9453  (   1273 G-vectors)     FFT grid: ( 40, 40, 40)
     G cutoff =  227.9727  (    446 G-vectors)  smooth grid: ( 27, 27, 27)

     number of k points=   250  Marzari-Vanderbilt smearing, width (Ry)=  0.0200

     PseudoPot. # 1 for Na read from file:
     /home/s1333534/quantum_espresso/qe-6.1/pseudo/Na_pbe_v1.uspp.F.UPF
     MD5 check sum: 76a99c7e9422403d3e93cbc85ab7bccb
     Pseudo is Ultrasoft, Zval =  9.0
     Generated by new atomic code, or converted to UPF format
     Using radial grid of  819 points,  5 beta functions with: 
                l(1) =   0
                l(2) =   0
                l(3) =   1
                l(4) =   1
                l(5) =   2
     Q(r) pseudized with  8 coefficients,  rinner =    1.250   1.250   1.250
                                                       1.250   1.250

     Mode symmetry, O_h (m-3m)  point group:


     Atomic displacements:
     There are   1 irreducible representations

     Representation     1      3 modes -T_1u G_15  G_4-  To be done



     Alpha used in Ewald sum =   2.8000
     PHONON       :     3.04s CPU         3.35s WALL



     Representation #  1 modes #   1  2  3

     Self-consistent Calculation

     Pert. #  1: Fermi energy shift (Ry) =    -2.1541E-25     7.8366E-38
     Pert. #  2: Fermi energy shift (Ry) =    -7.5394E-25     3.3698E-37
     Pert. #  3: Fermi energy shift (Ry) =    -1.4217E-25    -1.7241E-37

      iter #   1 total cpu time :     7.2 secs   av.it.:   5.4
      thresh= 1.000E-02 alpha_mix =  0.700 |ddv_scf|^2 =  1.110E-06

     Pert. #  1: Fermi energy shift (Ry) =    -6.8932E-26    -1.1755E-38
     Pert. #  2: Fermi energy shift (Ry) =    -1.8095E-25     8.3264E-39
     Pert. #  3: Fermi energy shift (Ry) =     2.1541E-25     0.0000E+00

      iter #   2 total cpu time :    11.8 secs   av.it.:   8.4
      thresh= 1.054E-04 alpha_mix =  0.700 |ddv_scf|^2 =  2.114E-08

     Pert. #  1: Fermi energy shift (Ry) =    -1.3356E-25    -2.4489E-40
     Pert. #  2: Fermi energy shift (Ry) =     1.0555E-25     4.2857E-40
     Pert. #  3: Fermi energy shift (Ry) =     6.4623E-27    -4.2857E-40

      iter #   3 total cpu time :    16.4 secs   av.it.:   8.6
      thresh= 1.454E-05 alpha_mix =  0.700 |ddv_scf|^2 =  3.319E-10

     Pert. #  1: Fermi energy shift (Ry) =    -2.3480E-25     3.0612E-41
     Pert. #  2: Fermi energy shift (Ry) =    -2.3372E-25     1.9132E-41
     Pert. #  3: Fermi energy shift (Ry) =     5.6007E-26    -1.3775E-40

      iter #   4 total cpu time :    20.9 secs   av.it.:   8.1
      thresh= 1.822E-06 alpha_mix =  0.700 |ddv_scf|^2 =  1.271E-12

     Pert. #  1: Fermi energy shift (Ry) =    -1.5940E-25    -8.6096E-42
     Pert. #  2: Fermi energy shift (Ry) =    -1.0124E-25     2.0567E-41
     Pert. #  3: Fermi energy shift (Ry) =     1.5079E-26    -4.7831E-42

      iter #   5 total cpu time :    25.5 secs   av.it.:   8.4
      thresh= 1.128E-07 alpha_mix =  0.700 |ddv_scf|^2 =  3.170E-15

     Pert. #  1: Fermi energy shift (Ry) =     1.0771E-25    -2.3915E-41
     Pert. #  2: Fermi energy shift (Ry) =    -1.1632E-25     2.2002E-41
     Pert. #  3: Fermi energy shift (Ry) =     8.6165E-27     3.8265E-42

      iter #   6 total cpu time :    29.9 secs   av.it.:   8.2
      thresh= 5.630E-09 alpha_mix =  0.700 |ddv_scf|^2 =  6.418E-17

     End of self-consistent calculation

     Convergence has been achieved 

     Number of q in the star =    1
     List of q in the star:
          1   0.000000000   0.000000000   0.000000000

     Diagonalizing the dynamical matrix

     q = (    0.000000000   0.000000000   0.000000000 ) 

 **************************************************************************
     freq (    1) =      -0.306057 [THz] =     -10.208949 [cm-1]
     freq (    2) =      -0.306057 [THz] =     -10.208949 [cm-1]
     freq (    3) =      -0.306057 [THz] =     -10.208949 [cm-1]
 **************************************************************************

     Mode symmetry, O_h (m-3m)  point group:

     freq (  1 -  3) =        -10.2  [cm-1]   --> T_1u G_15  G_4- I  

     Calculation of q =    0.0000000  -0.1666667   0.1666667

   Info: using nr1, nr2, nr3 values from input

   Info: using nr1, nr2, nr3 values from input

     Parallelization info
     --------------------
     sticks:   dense  smooth     PW     G-vecs:    dense   smooth      PW
     Min          63      31     10                 1272      443      88
     Max          64      32     11                 1275      446      91
     Sum        1019     499    173                20377     7107    1433



     bravais-lattice index     =            3
     lattice parameter (alat)  =       7.5000  a.u.
     unit-cell volume          =     210.9375 (a.u.)^3
     number of atoms/cell      =            1
     number of atomic types    =            1
     number of electrons       =         9.00
     number of Kohn-Sham states=            9
     kinetic-energy cutoff     =      40.0000  Ry
     charge density cutoff     =     320.0000  Ry
     Exchange-correlation      = SLA  PW   PBE  PBE ( 1  4  3  4 0 0)

     celldm(1)=   7.500000  celldm(2)=   0.000000  celldm(3)=   0.000000
     celldm(4)=   0.000000  celldm(5)=   0.000000  celldm(6)=   0.000000

     crystal axes: (cart. coord. in units of alat)
               a(1) = (   0.500000   0.500000   0.500000 )  
               a(2) = (  -0.500000   0.500000   0.500000 )  
               a(3) = (  -0.500000  -0.500000   0.500000 )  

     reciprocal axes: (cart. coord. in units 2 pi/alat)
               b(1) = (  1.000000  0.000000  1.000000 )  
               b(2) = ( -1.000000  1.000000  0.000000 )  
               b(3) = (  0.000000 -1.000000  1.000000 )  


     PseudoPot. # 1 for Na read from file:
     /home/s1333534/quantum_espresso/qe-6.1/pseudo/Na_pbe_v1.uspp.F.UPF
     MD5 check sum: 76a99c7e9422403d3e93cbc85ab7bccb
     Pseudo is Ultrasoft, Zval =  9.0
     Generated by new atomic code, or converted to UPF format
     Using radial grid of  819 points,  5 beta functions with: 
                l(1) =   0
                l(2) =   0
                l(3) =   1
                l(4) =   1
                l(5) =   2
     Q(r) pseudized with  8 coefficients,  rinner =    1.250   1.250   1.250
                                                       1.250   1.250

     atomic species   valence    mass     pseudopotential
        Na             9.00    22.99000     Na( 1.00)

     48 Sym. Ops., with inversion, found



   Cartesian axes

     site n.     atom                  positions (alat units)
         1           Na  tau(   1) = (   0.0000000   0.0000000   0.0000000  )

     number of k points=  4400  Marzari-Vanderbilt smearing, width (Ry)=  0.0200

     Number of k-points >= 100: set verbosity='high' to print them.

     Dense  grid:    20377 G-vectors     FFT dimensions: (  40,  40,  40)

     Smooth grid:     7107 G-vectors     FFT dimensions: (  27,  27,  27)

     Estimated max dynamical RAM per process >       0.70MB

     Estimated total allocated dynamical RAM >      44.77MB

     The potential is recalculated from file :
     ./_ph0/na.bcc.save/charge-density.dat

     Starting wfc are    5 atomic +    4 random wfc

     Band Structure Calculation
     Davidson diagonalization with overlap

     ethr =  1.11E-10,  avg # of iterations = 19.8

     total cpu time spent up to now is       67.5 secs

     End of band structure calculation

     Number of k-points >= 100: set verbosity='high' to print the bands.

     the Fermi energy is     2.3846 ev

     Writing output data file na.bcc.save

                                                                                

     bravais-lattice index     =            3
     lattice parameter (alat)  =       7.5000  a.u.
     unit-cell volume          =     210.9375 (a.u.)^3
     number of atoms/cell      =            1
     number of atomic types    =            1
     kinetic-energy cut-off    =      40.0000  Ry
     charge density cut-off    =     320.0000  Ry
     convergence threshold     =      1.0E-16
     beta                      =       0.7000
     number of iterations used =            4
     Exchange-correlation      = SLA  PW   PBE  PBE ( 1  4  3  4 0 0)


     celldm(1)=    7.50000  celldm(2)=    0.00000  celldm(3)=    0.00000
     celldm(4)=    0.00000  celldm(5)=    0.00000  celldm(6)=    0.00000

     crystal axes: (cart. coord. in units of alat)
               a(1) = (  0.5000  0.5000  0.5000 )  
               a(2) = ( -0.5000  0.5000  0.5000 )  
               a(3) = ( -0.5000 -0.5000  0.5000 )  

     reciprocal axes: (cart. coord. in units 2 pi/alat)
               b(1) = (  1.0000  0.0000  1.0000 )  
               b(2) = ( -1.0000  1.0000  0.0000 )  
               b(3) = (  0.0000 -1.0000  1.0000 )  


     Atoms inside the unit cell: 

     Cartesian axes

     site n.  atom      mass           positions (alat units)
        1     Na  22.9900   tau(    1) = (    0.00000    0.00000    0.00000  )

     Computing dynamical matrix for 
                    q = (   0.0000000  -0.1666667   0.1666667 )

      4 Sym.Ops. (no q -> -q+G )


     G cutoff =  455.9453  (   1273 G-vectors)     FFT grid: ( 40, 40, 40)
     G cutoff =  227.9727  (    446 G-vectors)  smooth grid: ( 27, 27, 27)

     number of k points=  4400  Marzari-Vanderbilt smearing, width (Ry)=  0.0200

     PseudoPot. # 1 for Na read from file:
     /home/s1333534/quantum_espresso/qe-6.1/pseudo/Na_pbe_v1.uspp.F.UPF
     MD5 check sum: 76a99c7e9422403d3e93cbc85ab7bccb
     Pseudo is Ultrasoft, Zval =  9.0
     Generated by new atomic code, or converted to UPF format
     Using radial grid of  819 points,  5 beta functions with: 
                l(1) =   0
                l(2) =   0
                l(3) =   1
                l(4) =   1
                l(5) =   2
     Q(r) pseudized with  8 coefficients,  rinner =    1.250   1.250   1.250
                                                       1.250   1.250

     Mode symmetry, C_2v (mm2)  point group:


     Atomic displacements:
     There are   3 irreducible representations

     Representation     1      1 modes -A_1  D_1  S_1  To be done

     Representation     2      1 modes -B_1  D_3  S_3  To be done

     Representation     3      1 modes -B_2  D_4  S_4  To be done



     Alpha used in Ewald sum =   2.8000
     PHONON       :  1m47.68s CPU     1m53.65s WALL



     Representation #  1 mode #   1

     Self-consistent Calculation

      iter #   1 total cpu time :   122.1 secs   av.it.:   5.7
      thresh= 1.000E-02 alpha_mix =  0.700 |ddv_scf|^2 =  2.654E-02

      iter #   2 total cpu time :   130.1 secs   av.it.:   6.5
      thresh= 1.000E-02 alpha_mix =  0.700 |ddv_scf|^2 =  3.665E+00

      iter #   3 total cpu time :   138.5 secs   av.it.:   6.5
      thresh= 1.000E-02 alpha_mix =  0.700 |ddv_scf|^2 =  5.515E-07

      iter #   4 total cpu time :   148.1 secs   av.it.:   7.7
      thresh= 7.426E-05 alpha_mix =  0.700 |ddv_scf|^2 =  6.601E-08

      iter #   5 total cpu time :   157.1 secs   av.it.:   7.5
      thresh= 2.569E-05 alpha_mix =  0.700 |ddv_scf|^2 =  3.147E-09

      iter #   6 total cpu time :   166.2 secs   av.it.:   7.5
      thresh= 5.610E-06 alpha_mix =  0.700 |ddv_scf|^2 =  2.176E-09

      iter #   7 total cpu time :   173.4 secs   av.it.:   5.7
      thresh= 4.664E-06 alpha_mix =  0.700 |ddv_scf|^2 =  4.364E-09

      iter #   8 total cpu time :   181.6 secs   av.it.:   6.5
      thresh= 6.606E-06 alpha_mix =  0.700 |ddv_scf|^2 =  4.310E-11

      iter #   9 total cpu time :   190.7 secs   av.it.:   7.3
      thresh= 6.565E-07 alpha_mix =  0.700 |ddv_scf|^2 =  1.632E-12

      iter #  10 total cpu time :   200.2 secs   av.it.:   7.1
      thresh= 1.278E-07 alpha_mix =  0.700 |ddv_scf|^2 =  8.451E-14

      iter #  11 total cpu time :   209.1 secs   av.it.:   7.3
      thresh= 2.907E-08 alpha_mix =  0.700 |ddv_scf|^2 =  4.689E-16

      iter #  12 total cpu time :   218.4 secs   av.it.:   7.9
      thresh= 2.165E-09 alpha_mix =  0.700 |ddv_scf|^2 =  1.815E-16

      iter #  13 total cpu time :   227.7 secs   av.it.:   7.5
      thresh= 1.347E-09 alpha_mix =  0.700 |ddv_scf|^2 =  5.713E-15

      iter #  14 total cpu time :   234.5 secs   av.it.:   5.2
      thresh= 7.558E-09 alpha_mix =  0.700 |ddv_scf|^2 =  6.075E-18

     End of self-consistent calculation

     Convergence has been achieved 


     Representation #  2 mode #   2

     Self-consistent Calculation

      iter #   1 total cpu time :   243.6 secs   av.it.:   5.4
      thresh= 1.000E-02 alpha_mix =  0.700 |ddv_scf|^2 =  1.010E-05

      iter #   2 total cpu time :   253.3 secs   av.it.:   7.7
      thresh= 3.178E-04 alpha_mix =  0.700 |ddv_scf|^2 =  1.881E-07

      iter #   3 total cpu time :   263.2 secs   av.it.:   7.9
      thresh= 4.338E-05 alpha_mix =  0.700 |ddv_scf|^2 =  3.295E-09

      iter #   4 total cpu time :   272.4 secs   av.it.:   7.4
      thresh= 5.741E-06 alpha_mix =  0.700 |ddv_scf|^2 =  1.226E-11

      iter #   5 total cpu time :   281.6 secs   av.it.:   7.7
      thresh= 3.501E-07 alpha_mix =  0.700 |ddv_scf|^2 =  2.730E-14

      iter #   6 total cpu time :   290.6 secs   av.it.:   7.4
      thresh= 1.652E-08 alpha_mix =  0.700 |ddv_scf|^2 =  6.278E-16

      iter #   7 total cpu time :   300.2 secs   av.it.:   7.7
      thresh= 2.506E-09 alpha_mix =  0.700 |ddv_scf|^2 =  5.592E-19

     End of self-consistent calculation

     Convergence has been achieved 


     Representation #  3 mode #   3

     Self-consistent Calculation

      iter #   1 total cpu time :   308.8 secs   av.it.:   5.4
      thresh= 1.000E-02 alpha_mix =  0.700 |ddv_scf|^2 =  1.045E-05

      iter #   2 total cpu time :   318.4 secs   av.it.:   7.7
      thresh= 3.233E-04 alpha_mix =  0.700 |ddv_scf|^2 =  1.868E-07

      iter #   3 total cpu time :   328.3 secs   av.it.:   7.9
      thresh= 4.322E-05 alpha_mix =  0.700 |ddv_scf|^2 =  4.290E-09

      iter #   4 total cpu time :   337.4 secs   av.it.:   7.5
      thresh= 6.550E-06 alpha_mix =  0.700 |ddv_scf|^2 =  1.547E-11

      iter #   5 total cpu time :   347.0 secs   av.it.:   7.8
      thresh= 3.933E-07 alpha_mix =  0.700 |ddv_scf|^2 =  2.847E-14

      iter #   6 total cpu time :   355.9 secs   av.it.:   7.3
      thresh= 1.687E-08 alpha_mix =  0.700 |ddv_scf|^2 =  1.073E-15

      iter #   7 total cpu time :   365.4 secs   av.it.:   7.8
      thresh= 3.276E-09 alpha_mix =  0.700 |ddv_scf|^2 =  1.314E-18

     End of self-consistent calculation

     Convergence has been achieved 

     Number of q in the star =   12
     List of q in the star:
          1   0.000000000  -0.166666667   0.166666667
          2  -0.166666667   0.000000000   0.166666667
          3   0.166666667   0.000000000   0.166666667
          4   0.000000000   0.166666667   0.166666667
          5   0.166666667   0.166666667   0.000000000
          6  -0.166666667   0.166666667   0.000000000
          7   0.166666667  -0.166666667   0.000000000
          8  -0.166666667  -0.166666667   0.000000000
          9  -0.166666667   0.000000000  -0.166666667
         10   0.000000000  -0.166666667  -0.166666667
         11   0.000000000   0.166666667  -0.166666667
         12   0.166666667   0.000000000  -0.166666667

     Diagonalizing the dynamical matrix

     q = (    0.000000000  -0.166666667   0.166666667 ) 

 **************************************************************************
     freq (    1) =       0.616262 [THz] =      20.556295 [cm-1]
     freq (    2) =       1.505912 [THz] =      50.231821 [cm-1]
     freq (    3) =       2.478659 [THz] =      82.679169 [cm-1]
 **************************************************************************

     Mode symmetry, C_2v (mm2)  point group:

     freq (  1 -  1) =         20.6  [cm-1]   --> B_1  D_3  S_3      
     freq (  2 -  2) =         50.2  [cm-1]   --> B_2  D_4  S_4      
     freq (  3 -  3) =         82.7  [cm-1]   --> A_1  D_1  S_1      

     Calculation of q =    0.0000000  -0.3333333   0.3333333

   Info: using nr1, nr2, nr3 values from input

   Info: using nr1, nr2, nr3 values from input

     Parallelization info
     --------------------
     sticks:   dense  smooth     PW     G-vecs:    dense   smooth      PW
     Min          63      31     10                 1272      443      91
     Max          64      32     11                 1275      446      95
     Sum        1019     499    173                20377     7107    1505



     bravais-lattice index     =            3
     lattice parameter (alat)  =       7.5000  a.u.
     unit-cell volume          =     210.9375 (a.u.)^3
     number of atoms/cell      =            1
     number of atomic types    =            1
     number of electrons       =         9.00
     number of Kohn-Sham states=            9
     kinetic-energy cutoff     =      40.0000  Ry
     charge density cutoff     =     320.0000  Ry
     Exchange-correlation      = SLA  PW   PBE  PBE ( 1  4  3  4 0 0)

     celldm(1)=   7.500000  celldm(2)=   0.000000  celldm(3)=   0.000000
     celldm(4)=   0.000000  celldm(5)=   0.000000  celldm(6)=   0.000000

     crystal axes: (cart. coord. in units of alat)
               a(1) = (   0.500000   0.500000   0.500000 )  
               a(2) = (  -0.500000   0.500000   0.500000 )  
               a(3) = (  -0.500000  -0.500000   0.500000 )  

     reciprocal axes: (cart. coord. in units 2 pi/alat)
               b(1) = (  1.000000  0.000000  1.000000 )  
               b(2) = ( -1.000000  1.000000  0.000000 )  
               b(3) = (  0.000000 -1.000000  1.000000 )  


     PseudoPot. # 1 for Na read from file:
     /home/s1333534/quantum_espresso/qe-6.1/pseudo/Na_pbe_v1.uspp.F.UPF
     MD5 check sum: 76a99c7e9422403d3e93cbc85ab7bccb
     Pseudo is Ultrasoft, Zval =  9.0
     Generated by new atomic code, or converted to UPF format
     Using radial grid of  819 points,  5 beta functions with: 
                l(1) =   0
                l(2) =   0
                l(3) =   1
                l(4) =   1
                l(5) =   2
     Q(r) pseudized with  8 coefficients,  rinner =    1.250   1.250   1.250
                                                       1.250   1.250

     atomic species   valence    mass     pseudopotential
        Na             9.00    22.99000     Na( 1.00)

     48 Sym. Ops., with inversion, found



   Cartesian axes

     site n.     atom                  positions (alat units)
         1           Na  tau(   1) = (   0.0000000   0.0000000   0.0000000  )

     number of k points=  4400  Marzari-Vanderbilt smearing, width (Ry)=  0.0200

     Number of k-points >= 100: set verbosity='high' to print them.

     Dense  grid:    20377 G-vectors     FFT dimensions: (  40,  40,  40)

     Smooth grid:     7107 G-vectors     FFT dimensions: (  27,  27,  27)

     Estimated max dynamical RAM per process >       0.70MB

     Estimated total allocated dynamical RAM >      44.77MB

     The potential is recalculated from file :
     ./_ph0/na.bcc.save/charge-density.dat

     Starting wfc are    5 atomic +    4 random wfc

     Band Structure Calculation
     Davidson diagonalization with overlap

     ethr =  1.11E-10,  avg # of iterations = 19.8

     total cpu time spent up to now is      147.6 secs

     End of band structure calculation

     Number of k-points >= 100: set verbosity='high' to print the bands.

     the Fermi energy is     2.3846 ev

     Writing output data file na.bcc.save

                                                                                

     bravais-lattice index     =            3
     lattice parameter (alat)  =       7.5000  a.u.
     unit-cell volume          =     210.9375 (a.u.)^3
     number of atoms/cell      =            1
     number of atomic types    =            1
     kinetic-energy cut-off    =      40.0000  Ry
     charge density cut-off    =     320.0000  Ry
     convergence threshold     =      1.0E-16
     beta                      =       0.7000
     number of iterations used =            4
     Exchange-correlation      = SLA  PW   PBE  PBE ( 1  4  3  4 0 0)


     celldm(1)=    7.50000  celldm(2)=    0.00000  celldm(3)=    0.00000
     celldm(4)=    0.00000  celldm(5)=    0.00000  celldm(6)=    0.00000

     crystal axes: (cart. coord. in units of alat)
               a(1) = (  0.5000  0.5000  0.5000 )  
               a(2) = ( -0.5000  0.5000  0.5000 )  
               a(3) = ( -0.5000 -0.5000  0.5000 )  

     reciprocal axes: (cart. coord. in units 2 pi/alat)
               b(1) = (  1.0000  0.0000  1.0000 )  
               b(2) = ( -1.0000  1.0000  0.0000 )  
               b(3) = (  0.0000 -1.0000  1.0000 )  


     Atoms inside the unit cell: 

     Cartesian axes

     site n.  atom      mass           positions (alat units)
        1     Na  22.9900   tau(    1) = (    0.00000    0.00000    0.00000  )

     Computing dynamical matrix for 
                    q = (   0.0000000  -0.3333333   0.3333333 )

      4 Sym.Ops. (no q -> -q+G )


     G cutoff =  455.9453  (   1273 G-vectors)     FFT grid: ( 40, 40, 40)
     G cutoff =  227.9727  (    446 G-vectors)  smooth grid: ( 27, 27, 27)

     number of k points=  4400  Marzari-Vanderbilt smearing, width (Ry)=  0.0200

     PseudoPot. # 1 for Na read from file:
     /home/s1333534/quantum_espresso/qe-6.1/pseudo/Na_pbe_v1.uspp.F.UPF
     MD5 check sum: 76a99c7e9422403d3e93cbc85ab7bccb
     Pseudo is Ultrasoft, Zval =  9.0
     Generated by new atomic code, or converted to UPF format
     Using radial grid of  819 points,  5 beta functions with: 
                l(1) =   0
                l(2) =   0
                l(3) =   1
                l(4) =   1
                l(5) =   2
     Q(r) pseudized with  8 coefficients,  rinner =    1.250   1.250   1.250
                                                       1.250   1.250

     Mode symmetry, C_2v (mm2)  point group:


     Atomic displacements:
     There are   3 irreducible representations

     Representation     1      1 modes -A_1  D_1  S_1  To be done

     Representation     2      1 modes -B_1  D_3  S_3  To be done

     Representation     3      1 modes -B_2  D_4  S_4  To be done



     Alpha used in Ewald sum =   2.8000
     PHONON       :  6m58.27s CPU     7m29.63s WALL



     Representation #  1 mode #   1

     Self-consistent Calculation

      iter #   1 total cpu time :   458.1 secs   av.it.:   5.7
      thresh= 1.000E-02 alpha_mix =  0.700 |ddv_scf|^2 =  4.534E-04

      iter #   2 total cpu time :   466.9 secs   av.it.:   6.7
      thresh= 2.129E-03 alpha_mix =  0.700 |ddv_scf|^2 =  2.440E-03

      iter #   3 total cpu time :   474.5 secs   av.it.:   5.9
      thresh= 4.940E-03 alpha_mix =  0.700 |ddv_scf|^2 =  4.919E-07

      iter #   4 total cpu time :   483.9 secs   av.it.:   7.7
      thresh= 7.013E-05 alpha_mix =  0.700 |ddv_scf|^2 =  7.792E-09

      iter #   5 total cpu time :   493.5 secs   av.it.:   8.3
      thresh= 8.827E-06 alpha_mix =  0.700 |ddv_scf|^2 =  4.559E-10

      iter #   6 total cpu time :   503.3 secs   av.it.:   8.1
      thresh= 2.135E-06 alpha_mix =  0.700 |ddv_scf|^2 =  1.437E-11

      iter #   7 total cpu time :   512.6 secs   av.it.:   7.7
      thresh= 3.791E-07 alpha_mix =  0.700 |ddv_scf|^2 =  1.438E-14

      iter #   8 total cpu time :   522.2 secs   av.it.:   7.8
      thresh= 1.199E-08 alpha_mix =  0.700 |ddv_scf|^2 =  8.235E-15

      iter #   9 total cpu time :   530.8 secs   av.it.:   7.0
      thresh= 9.074E-09 alpha_mix =  0.700 |ddv_scf|^2 =  8.160E-15

      iter #  10 total cpu time :   539.5 secs   av.it.:   7.1
      thresh= 9.033E-09 alpha_mix =  0.700 |ddv_scf|^2 =  4.279E-16

      iter #  11 total cpu time :   547.9 secs   av.it.:   6.7
      thresh= 2.069E-09 alpha_mix =  0.700 |ddv_scf|^2 =  1.205E-17

     End of self-consistent calculation

     Convergence has been achieved 


     Representation #  2 mode #   2

     Self-consistent Calculation

      iter #   1 total cpu time :   556.4 secs   av.it.:   5.5
      thresh= 1.000E-02 alpha_mix =  0.700 |ddv_scf|^2 =  1.039E-05

      iter #   2 total cpu time :   566.2 secs   av.it.:   7.8
      thresh= 3.223E-04 alpha_mix =  0.700 |ddv_scf|^2 =  1.820E-07

      iter #   3 total cpu time :   575.7 secs   av.it.:   7.9
      thresh= 4.267E-05 alpha_mix =  0.700 |ddv_scf|^2 =  4.280E-09

      iter #   4 total cpu time :   584.6 secs   av.it.:   7.4
      thresh= 6.542E-06 alpha_mix =  0.700 |ddv_scf|^2 =  1.458E-11

      iter #   5 total cpu time :   594.5 secs   av.it.:   7.8
      thresh= 3.818E-07 alpha_mix =  0.700 |ddv_scf|^2 =  2.311E-14

      iter #   6 total cpu time :   603.6 secs   av.it.:   7.4
      thresh= 1.520E-08 alpha_mix =  0.700 |ddv_scf|^2 =  6.917E-16

      iter #   7 total cpu time :   613.1 secs   av.it.:   7.7
      thresh= 2.630E-09 alpha_mix =  0.700 |ddv_scf|^2 =  6.636E-19

     End of self-consistent calculation

     Convergence has been achieved 


     Representation #  3 mode #   3

     Self-consistent Calculation

      iter #   1 total cpu time :   621.6 secs   av.it.:   5.5
      thresh= 1.000E-02 alpha_mix =  0.700 |ddv_scf|^2 =  1.149E-05

      iter #   2 total cpu time :   631.2 secs   av.it.:   7.7
      thresh= 3.389E-04 alpha_mix =  0.700 |ddv_scf|^2 =  1.793E-07

      iter #   3 total cpu time :   640.6 secs   av.it.:   7.9
      thresh= 4.234E-05 alpha_mix =  0.700 |ddv_scf|^2 =  7.726E-09

      iter #   4 total cpu time :   649.5 secs   av.it.:   7.5
      thresh= 8.790E-06 alpha_mix =  0.700 |ddv_scf|^2 =  2.631E-11

      iter #   5 total cpu time :   659.0 secs   av.it.:   7.8
      thresh= 5.130E-07 alpha_mix =  0.700 |ddv_scf|^2 =  3.048E-14

      iter #   6 total cpu time :   667.3 secs   av.it.:   6.5
      thresh= 1.746E-08 alpha_mix =  0.700 |ddv_scf|^2 =  1.823E-15

      iter #   7 total cpu time :   676.5 secs   av.it.:   7.7
      thresh= 4.270E-09 alpha_mix =  0.700 |ddv_scf|^2 =  2.056E-18

     End of self-consistent calculation

     Convergence has been achieved 

     Number of q in the star =   12
     List of q in the star:
          1   0.000000000  -0.333333333   0.333333333
          2  -0.333333333   0.000000000   0.333333333
          3   0.333333333   0.000000000   0.333333333
          4   0.000000000   0.333333333   0.333333333
          5   0.333333333   0.333333333   0.000000000
          6  -0.333333333   0.333333333   0.000000000
          7   0.333333333  -0.333333333   0.000000000
          8  -0.333333333  -0.333333333   0.000000000
          9  -0.333333333   0.000000000  -0.333333333
         10   0.000000000  -0.333333333  -0.333333333
         11   0.000000000   0.333333333  -0.333333333
         12   0.333333333   0.000000000  -0.333333333

     Diagonalizing the dynamical matrix

     q = (    0.000000000  -0.333333333   0.333333333 ) 

 **************************************************************************
     freq (    1) =       0.991572 [THz] =      33.075298 [cm-1]
     freq (    2) =       2.589360 [THz] =      86.371749 [cm-1]
     freq (    3) =       4.305434 [THz] =     143.613824 [cm-1]
 **************************************************************************

     Mode symmetry, C_2v (mm2)  point group:

     freq (  1 -  1) =         33.1  [cm-1]   --> B_1  D_3  S_3      
     freq (  2 -  2) =         86.4  [cm-1]   --> B_2  D_4  S_4      
     freq (  3 -  3) =        143.6  [cm-1]   --> A_1  D_1  S_1      

     Calculation of q =    0.0000000   0.5000000  -0.5000000

   Info: using nr1, nr2, nr3 values from input

   Info: using nr1, nr2, nr3 values from input

     Parallelization info
     --------------------
     sticks:   dense  smooth     PW     G-vecs:    dense   smooth      PW
     Min          63      31     11                 1272      443      99
     Max          64      32     12                 1275      446     101
     Sum        1019     499    181                20377     7107    1601



     bravais-lattice index     =            3
     lattice parameter (alat)  =       7.5000  a.u.
     unit-cell volume          =     210.9375 (a.u.)^3
     number of atoms/cell      =            1
     number of atomic types    =            1
     number of electrons       =         9.00
     number of Kohn-Sham states=            9
     kinetic-energy cutoff     =      40.0000  Ry
     charge density cutoff     =     320.0000  Ry
     Exchange-correlation      = SLA  PW   PBE  PBE ( 1  4  3  4 0 0)

     celldm(1)=   7.500000  celldm(2)=   0.000000  celldm(3)=   0.000000
     celldm(4)=   0.000000  celldm(5)=   0.000000  celldm(6)=   0.000000

     crystal axes: (cart. coord. in units of alat)
               a(1) = (   0.500000   0.500000   0.500000 )  
               a(2) = (  -0.500000   0.500000   0.500000 )  
               a(3) = (  -0.500000  -0.500000   0.500000 )  

     reciprocal axes: (cart. coord. in units 2 pi/alat)
               b(1) = (  1.000000  0.000000  1.000000 )  
               b(2) = ( -1.000000  1.000000  0.000000 )  
               b(3) = (  0.000000 -1.000000  1.000000 )  


     PseudoPot. # 1 for Na read from file:
     /home/s1333534/quantum_espresso/qe-6.1/pseudo/Na_pbe_v1.uspp.F.UPF
     MD5 check sum: 76a99c7e9422403d3e93cbc85ab7bccb
     Pseudo is Ultrasoft, Zval =  9.0
     Generated by new atomic code, or converted to UPF format
     Using radial grid of  819 points,  5 beta functions with: 
                l(1) =   0
                l(2) =   0
                l(3) =   1
                l(4) =   1
                l(5) =   2
     Q(r) pseudized with  8 coefficients,  rinner =    1.250   1.250   1.250
                                                       1.250   1.250

     atomic species   valence    mass     pseudopotential
        Na             9.00    22.99000     Na( 1.00)

     48 Sym. Ops., with inversion, found



   Cartesian axes

     site n.     atom                  positions (alat units)
         1           Na  tau(   1) = (   0.0000000   0.0000000   0.0000000  )

     number of k points=  2310  Marzari-Vanderbilt smearing, width (Ry)=  0.0200

     Number of k-points >= 100: set verbosity='high' to print them.

     Dense  grid:    20377 G-vectors     FFT dimensions: (  40,  40,  40)

     Smooth grid:     7107 G-vectors     FFT dimensions: (  27,  27,  27)

     Estimated max dynamical RAM per process >       0.70MB

     Estimated total allocated dynamical RAM >      44.77MB

     The potential is recalculated from file :
     ./_ph0/na.bcc.save/charge-density.dat

     Starting wfc are    5 atomic +    4 random wfc

     Band Structure Calculation
     Davidson diagonalization with overlap

     ethr =  1.11E-10,  avg # of iterations = 19.8

     total cpu time spent up to now is      195.5 secs

     End of band structure calculation

     Number of k-points >= 100: set verbosity='high' to print the bands.

     the Fermi energy is     2.3846 ev

     Writing output data file na.bcc.save

                                                                                

     bravais-lattice index     =            3
     lattice parameter (alat)  =       7.5000  a.u.
     unit-cell volume          =     210.9375 (a.u.)^3
     number of atoms/cell      =            1
     number of atomic types    =            1
     kinetic-energy cut-off    =      40.0000  Ry
     charge density cut-off    =     320.0000  Ry
     convergence threshold     =      1.0E-16
     beta                      =       0.7000
     number of iterations used =            4
     Exchange-correlation      = SLA  PW   PBE  PBE ( 1  4  3  4 0 0)


     celldm(1)=    7.50000  celldm(2)=    0.00000  celldm(3)=    0.00000
     celldm(4)=    0.00000  celldm(5)=    0.00000  celldm(6)=    0.00000

     crystal axes: (cart. coord. in units of alat)
               a(1) = (  0.5000  0.5000  0.5000 )  
               a(2) = ( -0.5000  0.5000  0.5000 )  
               a(3) = ( -0.5000 -0.5000  0.5000 )  

     reciprocal axes: (cart. coord. in units 2 pi/alat)
               b(1) = (  1.0000  0.0000  1.0000 )  
               b(2) = ( -1.0000  1.0000  0.0000 )  
               b(3) = (  0.0000 -1.0000  1.0000 )  


     Atoms inside the unit cell: 

     Cartesian axes

     site n.  atom      mass           positions (alat units)
        1     Na  22.9900   tau(    1) = (    0.00000    0.00000    0.00000  )

     Computing dynamical matrix for 
                    q = (   0.0000000   0.5000000  -0.5000000 )

      9 Sym.Ops. (with q -> -q+G )


     G cutoff =  455.9453  (   1273 G-vectors)     FFT grid: ( 40, 40, 40)
     G cutoff =  227.9727  (    446 G-vectors)  smooth grid: ( 27, 27, 27)

     number of k points=  2310  Marzari-Vanderbilt smearing, width (Ry)=  0.0200

     PseudoPot. # 1 for Na read from file:
     /home/s1333534/quantum_espresso/qe-6.1/pseudo/Na_pbe_v1.uspp.F.UPF
     MD5 check sum: 76a99c7e9422403d3e93cbc85ab7bccb
     Pseudo is Ultrasoft, Zval =  9.0
     Generated by new atomic code, or converted to UPF format
     Using radial grid of  819 points,  5 beta functions with: 
                l(1) =   0
                l(2) =   0
                l(3) =   1
                l(4) =   1
                l(5) =   2
     Q(r) pseudized with  8 coefficients,  rinner =    1.250   1.250   1.250
                                                       1.250   1.250

     Mode symmetry, D_2h (mmm)  point group:


     Atomic displacements:
     There are   3 irreducible representations

     Representation     1      1 modes -B_1u  To be done

     Representation     2      1 modes -B_2u  To be done

     Representation     3      1 modes -B_3u  To be done



     Alpha used in Ewald sum =   2.8000
     PHONON       : 11m 6.91s CPU    12m 0.66s WALL



     Representation #  1 mode #   1

     Self-consistent Calculation

      iter #   1 total cpu time :   725.2 secs   av.it.:   5.5
      thresh= 1.000E-02 alpha_mix =  0.700 |ddv_scf|^2 =  1.206E-05

      iter #   2 total cpu time :   730.4 secs   av.it.:   7.7
      thresh= 3.473E-04 alpha_mix =  0.700 |ddv_scf|^2 =  1.760E-07

      iter #   3 total cpu time :   735.4 secs   av.it.:   7.8
      thresh= 4.196E-05 alpha_mix =  0.700 |ddv_scf|^2 =  9.836E-09

      iter #   4 total cpu time :   740.1 secs   av.it.:   7.3
      thresh= 9.918E-06 alpha_mix =  0.700 |ddv_scf|^2 =  3.352E-11

      iter #   5 total cpu time :   745.2 secs   av.it.:   7.7
      thresh= 5.790E-07 alpha_mix =  0.700 |ddv_scf|^2 =  3.297E-14

      iter #   6 total cpu time :   749.8 secs   av.it.:   6.8
      thresh= 1.816E-08 alpha_mix =  0.700 |ddv_scf|^2 =  2.144E-15

      iter #   7 total cpu time :   754.7 secs   av.it.:   7.5
      thresh= 4.630E-09 alpha_mix =  0.700 |ddv_scf|^2 =  1.952E-18

     End of self-consistent calculation

     Convergence has been achieved 


     Representation #  2 mode #   2

     Self-consistent Calculation

      iter #   1 total cpu time :   759.1 secs   av.it.:   5.5
      thresh= 1.000E-02 alpha_mix =  0.700 |ddv_scf|^2 =  1.056E-05

      iter #   2 total cpu time :   764.1 secs   av.it.:   7.7
      thresh= 3.250E-04 alpha_mix =  0.700 |ddv_scf|^2 =  1.784E-07

      iter #   3 total cpu time :   769.3 secs   av.it.:   7.9
      thresh= 4.223E-05 alpha_mix =  0.700 |ddv_scf|^2 =  4.948E-09

      iter #   4 total cpu time :   774.0 secs   av.it.:   7.2
      thresh= 7.034E-06 alpha_mix =  0.700 |ddv_scf|^2 =  1.597E-11

      iter #   5 total cpu time :   778.9 secs   av.it.:   7.6
      thresh= 3.997E-07 alpha_mix =  0.700 |ddv_scf|^2 =  2.035E-14

      iter #   6 total cpu time :   783.7 secs   av.it.:   7.3
      thresh= 1.426E-08 alpha_mix =  0.700 |ddv_scf|^2 =  6.512E-16

      iter #   7 total cpu time :   788.7 secs   av.it.:   7.6
      thresh= 2.552E-09 alpha_mix =  0.700 |ddv_scf|^2 =  3.190E-19

     End of self-consistent calculation

     Convergence has been achieved 


     Representation #  3 mode #   3

     Self-consistent Calculation

      iter #   1 total cpu time :   793.4 secs   av.it.:   5.6
      thresh= 1.000E-02 alpha_mix =  0.700 |ddv_scf|^2 =  9.234E-05

      iter #   2 total cpu time :   798.2 secs   av.it.:   6.8
      thresh= 9.609E-04 alpha_mix =  0.700 |ddv_scf|^2 =  4.528E-05

      iter #   3 total cpu time :   803.4 secs   av.it.:   6.8
      thresh= 6.729E-04 alpha_mix =  0.700 |ddv_scf|^2 =  6.875E-08

      iter #   4 total cpu time :   808.5 secs   av.it.:   7.8
      thresh= 2.622E-05 alpha_mix =  0.700 |ddv_scf|^2 =  2.299E-10

      iter #   5 total cpu time :   813.0 secs   av.it.:   6.7
      thresh= 1.516E-06 alpha_mix =  0.700 |ddv_scf|^2 =  4.673E-12

      iter #   6 total cpu time :   817.4 secs   av.it.:   6.8
      thresh= 2.162E-07 alpha_mix =  0.700 |ddv_scf|^2 =  1.539E-14

      iter #   7 total cpu time :   822.1 secs   av.it.:   7.2
      thresh= 1.241E-08 alpha_mix =  0.700 |ddv_scf|^2 =  3.959E-17

     End of self-consistent calculation

     Convergence has been achieved 

     Number of q in the star =    6
     List of q in the star:
          1   0.000000000   0.500000000  -0.500000000
          2  -0.500000000  -0.500000000   0.000000000
          3   0.500000000  -0.500000000   0.000000000
          4   0.500000000   0.000000000   0.500000000
          5   0.000000000  -0.500000000  -0.500000000
          6   0.500000000   0.000000000  -0.500000000

     Diagonalizing the dynamical matrix

     q = (    0.000000000   0.500000000  -0.500000000 ) 

 **************************************************************************
     freq (    1) =       1.116585 [THz] =      37.245253 [cm-1]
     freq (    2) =       2.987315 [THz] =      99.646103 [cm-1]
     freq (    3) =       4.973842 [THz] =     165.909505 [cm-1]
 **************************************************************************

     Mode symmetry, D_2h (mmm)  point group:

     freq (  1 -  1) =         37.2  [cm-1]   --> B_2u               
     freq (  2 -  2) =         99.6  [cm-1]   --> B_1u               
     freq (  3 -  3) =        165.9  [cm-1]   --> B_3u               

     Calculation of q =   -0.1666667  -0.1666667   0.3333333

   Info: using nr1, nr2, nr3 values from input

   Info: using nr1, nr2, nr3 values from input

     Parallelization info
     --------------------
     sticks:   dense  smooth     PW     G-vecs:    dense   smooth      PW
     Min          63      31     10                 1272      443      90
     Max          64      32     11                 1275      446      94
     Sum        1019     499    173                20377     7107    1481



     bravais-lattice index     =            3
     lattice parameter (alat)  =       7.5000  a.u.
     unit-cell volume          =     210.9375 (a.u.)^3
     number of atoms/cell      =            1
     number of atomic types    =            1
     number of electrons       =         9.00
     number of Kohn-Sham states=            9
     kinetic-energy cutoff     =      40.0000  Ry
     charge density cutoff     =     320.0000  Ry
     Exchange-correlation      = SLA  PW   PBE  PBE ( 1  4  3  4 0 0)

     celldm(1)=   7.500000  celldm(2)=   0.000000  celldm(3)=   0.000000
     celldm(4)=   0.000000  celldm(5)=   0.000000  celldm(6)=   0.000000

     crystal axes: (cart. coord. in units of alat)
               a(1) = (   0.500000   0.500000   0.500000 )  
               a(2) = (  -0.500000   0.500000   0.500000 )  
               a(3) = (  -0.500000  -0.500000   0.500000 )  

     reciprocal axes: (cart. coord. in units 2 pi/alat)
               b(1) = (  1.000000  0.000000  1.000000 )  
               b(2) = ( -1.000000  1.000000  0.000000 )  
               b(3) = (  0.000000 -1.000000  1.000000 )  


     PseudoPot. # 1 for Na read from file:
     /home/s1333534/quantum_espresso/qe-6.1/pseudo/Na_pbe_v1.uspp.F.UPF
     MD5 check sum: 76a99c7e9422403d3e93cbc85ab7bccb
     Pseudo is Ultrasoft, Zval =  9.0
     Generated by new atomic code, or converted to UPF format
     Using radial grid of  819 points,  5 beta functions with: 
                l(1) =   0
                l(2) =   0
                l(3) =   1
                l(4) =   1
                l(5) =   2
     Q(r) pseudized with  8 coefficients,  rinner =    1.250   1.250   1.250
                                                       1.250   1.250

     atomic species   valence    mass     pseudopotential
        Na             9.00    22.99000     Na( 1.00)

     48 Sym. Ops., with inversion, found



   Cartesian axes

     site n.     atom                  positions (alat units)
         1           Na  tau(   1) = (   0.0000000   0.0000000   0.0000000  )

     number of k points=  8400  Marzari-Vanderbilt smearing, width (Ry)=  0.0200

     Number of k-points >= 100: set verbosity='high' to print them.

     Dense  grid:    20377 G-vectors     FFT dimensions: (  40,  40,  40)

     Smooth grid:     7107 G-vectors     FFT dimensions: (  27,  27,  27)

     Estimated max dynamical RAM per process >       0.70MB

     Estimated total allocated dynamical RAM >      44.77MB

     The potential is recalculated from file :
     ./_ph0/na.bcc.save/charge-density.dat

     Starting wfc are    5 atomic +    4 random wfc

     Band Structure Calculation
     Davidson diagonalization with overlap

     ethr =  1.11E-10,  avg # of iterations = 19.8

     total cpu time spent up to now is      329.8 secs

     End of band structure calculation

     Number of k-points >= 100: set verbosity='high' to print the bands.

     the Fermi energy is     2.3846 ev

     Writing output data file na.bcc.save

                                                                                

     bravais-lattice index     =            3
     lattice parameter (alat)  =       7.5000  a.u.
     unit-cell volume          =     210.9375 (a.u.)^3
     number of atoms/cell      =            1
     number of atomic types    =            1
     kinetic-energy cut-off    =      40.0000  Ry
     charge density cut-off    =     320.0000  Ry
     convergence threshold     =      1.0E-16
     beta                      =       0.7000
     number of iterations used =            4
     Exchange-correlation      = SLA  PW   PBE  PBE ( 1  4  3  4 0 0)


     celldm(1)=    7.50000  celldm(2)=    0.00000  celldm(3)=    0.00000
     celldm(4)=    0.00000  celldm(5)=    0.00000  celldm(6)=    0.00000

     crystal axes: (cart. coord. in units of alat)
               a(1) = (  0.5000  0.5000  0.5000 )  
               a(2) = ( -0.5000  0.5000  0.5000 )  
               a(3) = ( -0.5000 -0.5000  0.5000 )  

     reciprocal axes: (cart. coord. in units 2 pi/alat)
               b(1) = (  1.0000  0.0000  1.0000 )  
               b(2) = ( -1.0000  1.0000  0.0000 )  
               b(3) = (  0.0000 -1.0000  1.0000 )  


     Atoms inside the unit cell: 

     Cartesian axes

     site n.  atom      mass           positions (alat units)
        1     Na  22.9900   tau(    1) = (    0.00000    0.00000    0.00000  )

     Computing dynamical matrix for 
                    q = (  -0.1666667  -0.1666667   0.3333333 )

      2 Sym.Ops. (no q -> -q+G )


     G cutoff =  455.9453  (   1273 G-vectors)     FFT grid: ( 40, 40, 40)
     G cutoff =  227.9727  (    446 G-vectors)  smooth grid: ( 27, 27, 27)

     number of k points=  8400  Marzari-Vanderbilt smearing, width (Ry)=  0.0200

     PseudoPot. # 1 for Na read from file:
     /home/s1333534/quantum_espresso/qe-6.1/pseudo/Na_pbe_v1.uspp.F.UPF
     MD5 check sum: 76a99c7e9422403d3e93cbc85ab7bccb
     Pseudo is Ultrasoft, Zval =  9.0
     Generated by new atomic code, or converted to UPF format
     Using radial grid of  819 points,  5 beta functions with: 
                l(1) =   0
                l(2) =   0
                l(3) =   1
                l(4) =   1
                l(5) =   2
     Q(r) pseudized with  8 coefficients,  rinner =    1.250   1.250   1.250
                                                       1.250   1.250

     Mode symmetry, C_s (m)     point group:


     Atomic displacements:
     There are   3 irreducible representations

     Representation     1      1 modes -A'  To be done

     Representation     2      1 modes -A'  To be done

     Representation     3      1 modes -A''  To be done



     Alpha used in Ewald sum =   2.8000
     PHONON       : 15m11.12s CPU    16m20.25s WALL



     Representation #  1 mode #   1

     Self-consistent Calculation

      iter #   1 total cpu time :   996.9 secs   av.it.:   5.6
      thresh= 1.000E-02 alpha_mix =  0.700 |ddv_scf|^2 =  1.128E-04

      iter #   2 total cpu time :  1013.8 secs   av.it.:   7.3
      thresh= 1.062E-03 alpha_mix =  0.700 |ddv_scf|^2 =  1.161E-03

      iter #   3 total cpu time :  1027.8 secs   av.it.:   5.5
      thresh= 3.407E-03 alpha_mix =  0.700 |ddv_scf|^2 =  1.394E-07

      iter #   4 total cpu time :  1046.5 secs   av.it.:   8.3
      thresh= 3.733E-05 alpha_mix =  0.700 |ddv_scf|^2 =  5.243E-09

      iter #   5 total cpu time :  1065.1 secs   av.it.:   7.9
      thresh= 7.241E-06 alpha_mix =  0.700 |ddv_scf|^2 =  1.764E-10

      iter #   6 total cpu time :  1083.7 secs   av.it.:   8.2
      thresh= 1.328E-06 alpha_mix =  0.700 |ddv_scf|^2 =  1.882E-11

      iter #   7 total cpu time :  1102.0 secs   av.it.:   7.8
      thresh= 4.338E-07 alpha_mix =  0.700 |ddv_scf|^2 =  3.810E-11

      iter #   8 total cpu time :  1119.0 secs   av.it.:   7.2
      thresh= 6.173E-07 alpha_mix =  0.700 |ddv_scf|^2 =  3.293E-11

      iter #   9 total cpu time :  1135.7 secs   av.it.:   6.8
      thresh= 5.738E-07 alpha_mix =  0.700 |ddv_scf|^2 =  1.007E-12

      iter #  10 total cpu time :  1152.3 secs   av.it.:   7.2
      thresh= 1.004E-07 alpha_mix =  0.700 |ddv_scf|^2 =  4.457E-15

      iter #  11 total cpu time :  1171.6 secs   av.it.:   8.2
      thresh= 6.676E-09 alpha_mix =  0.700 |ddv_scf|^2 =  2.038E-16

      iter #  12 total cpu time :  1189.2 secs   av.it.:   7.8
      thresh= 1.428E-09 alpha_mix =  0.700 |ddv_scf|^2 =  1.319E-17

     End of self-consistent calculation

     Convergence has been achieved 


     Representation #  2 mode #   2

     Self-consistent Calculation

      iter #   1 total cpu time :  1206.1 secs   av.it.:   5.7
      thresh= 1.000E-02 alpha_mix =  0.700 |ddv_scf|^2 =  9.205E-04

      iter #   2 total cpu time :  1222.0 secs   av.it.:   6.6
      thresh= 3.034E-03 alpha_mix =  0.700 |ddv_scf|^2 =  1.031E-02

      iter #   3 total cpu time :  1237.1 secs   av.it.:   5.5
      thresh= 1.000E-02 alpha_mix =  0.700 |ddv_scf|^2 =  9.941E-07

      iter #   4 total cpu time :  1254.8 secs   av.it.:   7.7
      thresh= 9.970E-05 alpha_mix =  0.700 |ddv_scf|^2 =  5.839E-09

      iter #   5 total cpu time :  1273.2 secs   av.it.:   8.3
      thresh= 7.641E-06 alpha_mix =  0.700 |ddv_scf|^2 =  7.263E-10

      iter #   6 total cpu time :  1292.0 secs   av.it.:   8.1
      thresh= 2.695E-06 alpha_mix =  0.700 |ddv_scf|^2 =  1.502E-11

      iter #   7 total cpu time :  1312.2 secs   av.it.:   8.2
      thresh= 3.876E-07 alpha_mix =  0.700 |ddv_scf|^2 =  1.137E-11

      iter #   8 total cpu time :  1328.2 secs   av.it.:   6.6
      thresh= 3.371E-07 alpha_mix =  0.700 |ddv_scf|^2 =  5.687E-12

      iter #   9 total cpu time :  1345.5 secs   av.it.:   7.2
      thresh= 2.385E-07 alpha_mix =  0.700 |ddv_scf|^2 =  4.101E-13

      iter #  10 total cpu time :  1361.2 secs   av.it.:   6.9
      thresh= 6.404E-08 alpha_mix =  0.700 |ddv_scf|^2 =  8.407E-14

      iter #  11 total cpu time :  1378.3 secs   av.it.:   7.3
      thresh= 2.899E-08 alpha_mix =  0.700 |ddv_scf|^2 =  2.097E-16

      iter #  12 total cpu time :  1397.6 secs   av.it.:   7.8
      thresh= 1.448E-09 alpha_mix =  0.700 |ddv_scf|^2 =  1.136E-17

     End of self-consistent calculation

     Convergence has been achieved 


     Representation #  3 mode #   3

     Self-consistent Calculation

      iter #   1 total cpu time :  1413.9 secs   av.it.:   5.5
      thresh= 1.000E-02 alpha_mix =  0.700 |ddv_scf|^2 =  1.212E-05

      iter #   2 total cpu time :  1433.0 secs   av.it.:   7.8
      thresh= 3.481E-04 alpha_mix =  0.700 |ddv_scf|^2 =  1.717E-07

      iter #   3 total cpu time :  1451.2 secs   av.it.:   8.0
      thresh= 4.143E-05 alpha_mix =  0.700 |ddv_scf|^2 =  8.552E-09

      iter #   4 total cpu time :  1469.0 secs   av.it.:   7.7
      thresh= 9.248E-06 alpha_mix =  0.700 |ddv_scf|^2 =  6.910E-11

      iter #   5 total cpu time :  1486.4 secs   av.it.:   7.5
      thresh= 8.312E-07 alpha_mix =  0.700 |ddv_scf|^2 =  6.218E-14

      iter #   6 total cpu time :  1504.1 secs   av.it.:   7.5
      thresh= 2.493E-08 alpha_mix =  0.700 |ddv_scf|^2 =  2.991E-15

      iter #   7 total cpu time :  1521.3 secs   av.it.:   7.5
      thresh= 5.469E-09 alpha_mix =  0.700 |ddv_scf|^2 =  1.115E-17

     End of self-consistent calculation

     Convergence has been achieved 

     Number of q in the star =   24
     List of q in the star:
          1  -0.166666667  -0.166666667   0.333333333
          2  -0.166666667  -0.333333333   0.166666667
          3   0.166666667  -0.333333333   0.166666667
          4  -0.166666667   0.333333333  -0.166666667
          5   0.166666667   0.333333333  -0.166666667
          6   0.166666667   0.166666667  -0.333333333
          7  -0.166666667   0.166666667  -0.333333333
          8   0.333333333   0.166666667  -0.166666667
          9  -0.333333333   0.166666667   0.166666667
         10   0.333333333  -0.166666667   0.166666667
         11  -0.333333333  -0.166666667  -0.166666667
         12  -0.166666667  -0.166666667  -0.333333333
         13  -0.166666667   0.333333333   0.166666667
         14  -0.166666667  -0.333333333  -0.166666667
         15  -0.166666667   0.166666667   0.333333333
         16   0.166666667  -0.166666667   0.333333333
         17   0.166666667  -0.333333333  -0.166666667
         18  -0.333333333   0.166666667  -0.166666667
         19   0.333333333   0.166666667   0.166666667
         20  -0.333333333  -0.166666667   0.166666667
         21   0.333333333  -0.166666667  -0.166666667
         22   0.166666667  -0.166666667  -0.333333333
         23   0.166666667   0.166666667   0.333333333
         24   0.166666667   0.333333333   0.166666667

     Diagonalizing the dynamical matrix

     q = (   -0.166666667  -0.166666667   0.333333333 ) 

 **************************************************************************
     freq (    1) =       1.486794 [THz] =      49.594111 [cm-1]
     freq (    2) =       2.363945 [THz] =      78.852732 [cm-1]
     freq (    3) =       3.815802 [THz] =     127.281448 [cm-1]
 **************************************************************************

     Mode symmetry, C_s (m)     point group:

     freq (  1 -  1) =         49.6  [cm-1]   --> A'                 
     freq (  2 -  2) =         78.9  [cm-1]   --> A''                
     freq (  3 -  3) =        127.3  [cm-1]   --> A'                 

     Calculation of q =   -0.1666667   0.6666667  -0.5000000

   Info: using nr1, nr2, nr3 values from input

   Info: using nr1, nr2, nr3 values from input

     Parallelization info
     --------------------
     sticks:   dense  smooth     PW     G-vecs:    dense   smooth      PW
     Min          63      31     12                 1272      443     107
     Max          64      32     13                 1275      446     109
     Sum        1019     499    197                20377     7107    1721



     bravais-lattice index     =            3
     lattice parameter (alat)  =       7.5000  a.u.
     unit-cell volume          =     210.9375 (a.u.)^3
     number of atoms/cell      =            1
     number of atomic types    =            1
     number of electrons       =         9.00
     number of Kohn-Sham states=            9
     kinetic-energy cutoff     =      40.0000  Ry
     charge density cutoff     =     320.0000  Ry
     Exchange-correlation      = SLA  PW   PBE  PBE ( 1  4  3  4 0 0)

     celldm(1)=   7.500000  celldm(2)=   0.000000  celldm(3)=   0.000000
     celldm(4)=   0.000000  celldm(5)=   0.000000  celldm(6)=   0.000000

     crystal axes: (cart. coord. in units of alat)
               a(1) = (   0.500000   0.500000   0.500000 )  
               a(2) = (  -0.500000   0.500000   0.500000 )  
               a(3) = (  -0.500000  -0.500000   0.500000 )  

     reciprocal axes: (cart. coord. in units 2 pi/alat)
               b(1) = (  1.000000  0.000000  1.000000 )  
               b(2) = ( -1.000000  1.000000  0.000000 )  
               b(3) = (  0.000000 -1.000000  1.000000 )  


     PseudoPot. # 1 for Na read from file:
     /home/s1333534/quantum_espresso/qe-6.1/pseudo/Na_pbe_v1.uspp.F.UPF
     MD5 check sum: 76a99c7e9422403d3e93cbc85ab7bccb
     Pseudo is Ultrasoft, Zval =  9.0
     Generated by new atomic code, or converted to UPF format
     Using radial grid of  819 points,  5 beta functions with: 
                l(1) =   0
                l(2) =   0
                l(3) =   1
                l(4) =   1
                l(5) =   2
     Q(r) pseudized with  8 coefficients,  rinner =    1.250   1.250   1.250
                                                       1.250   1.250

     atomic species   valence    mass     pseudopotential
        Na             9.00    22.99000     Na( 1.00)

     48 Sym. Ops., with inversion, found



   Cartesian axes

     site n.     atom                  positions (alat units)
         1           Na  tau(   1) = (   0.0000000   0.0000000   0.0000000  )

     number of k points= 16000  Marzari-Vanderbilt smearing, width (Ry)=  0.0200

     Number of k-points >= 100: set verbosity='high' to print them.

     Dense  grid:    20377 G-vectors     FFT dimensions: (  40,  40,  40)

     Smooth grid:     7107 G-vectors     FFT dimensions: (  27,  27,  27)

     Estimated max dynamical RAM per process >       0.70MB

     Estimated total allocated dynamical RAM >      44.77MB

     The potential is recalculated from file :
     ./_ph0/na.bcc.save/charge-density.dat

     Starting wfc are    5 atomic +    4 random wfc

     Band Structure Calculation
     Davidson diagonalization with overlap

     ethr =  1.11E-10,  avg # of iterations = 19.7

     total cpu time spent up to now is      601.7 secs

     End of band structure calculation

     Number of k-points >= 100: set verbosity='high' to print the bands.

     the Fermi energy is     2.3846 ev

     Writing output data file na.bcc.save

                                                                                

     bravais-lattice index     =            3
     lattice parameter (alat)  =       7.5000  a.u.
     unit-cell volume          =     210.9375 (a.u.)^3
     number of atoms/cell      =            1
     number of atomic types    =            1
     kinetic-energy cut-off    =      40.0000  Ry
     charge density cut-off    =     320.0000  Ry
     convergence threshold     =      1.0E-16
     beta                      =       0.7000
     number of iterations used =            4
     Exchange-correlation      = SLA  PW   PBE  PBE ( 1  4  3  4 0 0)


     celldm(1)=    7.50000  celldm(2)=    0.00000  celldm(3)=    0.00000
     celldm(4)=    0.00000  celldm(5)=    0.00000  celldm(6)=    0.00000

     crystal axes: (cart. coord. in units of alat)
               a(1) = (  0.5000  0.5000  0.5000 )  
               a(2) = ( -0.5000  0.5000  0.5000 )  
               a(3) = ( -0.5000 -0.5000  0.5000 )  

     reciprocal axes: (cart. coord. in units 2 pi/alat)
               b(1) = (  1.0000  0.0000  1.0000 )  
               b(2) = ( -1.0000  1.0000  0.0000 )  
               b(3) = (  0.0000 -1.0000  1.0000 )  


     Atoms inside the unit cell: 

     Cartesian axes

     site n.  atom      mass           positions (alat units)
        1     Na  22.9900   tau(    1) = (    0.00000    0.00000    0.00000  )

     Computing dynamical matrix for 
                    q = (  -0.1666667   0.6666667  -0.5000000 )

     No symmetry!

     G cutoff =  455.9453  (   1273 G-vectors)     FFT grid: ( 40, 40, 40)
     G cutoff =  227.9727  (    446 G-vectors)  smooth grid: ( 27, 27, 27)

     number of k points= 16000  Marzari-Vanderbilt smearing, width (Ry)=  0.0200

     PseudoPot. # 1 for Na read from file:
     /home/s1333534/quantum_espresso/qe-6.1/pseudo/Na_pbe_v1.uspp.F.UPF
     MD5 check sum: 76a99c7e9422403d3e93cbc85ab7bccb
     Pseudo is Ultrasoft, Zval =  9.0
     Generated by new atomic code, or converted to UPF format
     Using radial grid of  819 points,  5 beta functions with: 
                l(1) =   0
                l(2) =   0
                l(3) =   1
                l(4) =   1
                l(5) =   2
     Q(r) pseudized with  8 coefficients,  rinner =    1.250   1.250   1.250
                                                       1.250   1.250

     Mode symmetry, C_1 (1)     point group:


     Atomic displacements:
     There are   3 irreducible representations

     Representation     1      1 modes -A  To be done

     Representation     2      1 modes -A  To be done

     Representation     3      1 modes -A  To be done



     Alpha used in Ewald sum =   2.8000
     PHONON       : 28m16.00s CPU    30m31.35s WALL



     Representation #  1 mode #   1

     Self-consistent Calculation

      iter #   1 total cpu time :  1863.4 secs   av.it.:   5.7
      thresh= 1.000E-02 alpha_mix =  0.700 |ddv_scf|^2 =  1.329E-05

      iter #   2 total cpu time :  1900.7 secs   av.it.:   8.1
      thresh= 3.645E-04 alpha_mix =  0.700 |ddv_scf|^2 =  1.599E-06

      iter #   3 total cpu time :  1935.9 secs   av.it.:   7.6
      thresh= 1.265E-04 alpha_mix =  0.700 |ddv_scf|^2 =  7.035E-07

      iter #   4 total cpu time :  1969.8 secs   av.it.:   7.3
      thresh= 8.387E-05 alpha_mix =  0.700 |ddv_scf|^2 =  4.452E-09

      iter #   5 total cpu time :  2006.1 secs   av.it.:   7.9
      thresh= 6.673E-06 alpha_mix =  0.700 |ddv_scf|^2 =  3.619E-10

      iter #   6 total cpu time :  2043.9 secs   av.it.:   7.9
      thresh= 1.902E-06 alpha_mix =  0.700 |ddv_scf|^2 =  4.336E-12

      iter #   7 total cpu time :  2081.1 secs   av.it.:   8.4
      thresh= 2.082E-07 alpha_mix =  0.700 |ddv_scf|^2 =  2.658E-13

      iter #   8 total cpu time :  2118.8 secs   av.it.:   8.4
      thresh= 5.155E-08 alpha_mix =  0.700 |ddv_scf|^2 =  1.312E-14

      iter #   9 total cpu time :  2155.9 secs   av.it.:   8.4
      thresh= 1.145E-08 alpha_mix =  0.700 |ddv_scf|^2 =  2.707E-16

      iter #  10 total cpu time :  2192.0 secs   av.it.:   7.6
      thresh= 1.645E-09 alpha_mix =  0.700 |ddv_scf|^2 =  1.319E-16

      iter #  11 total cpu time :  2225.9 secs   av.it.:   7.3
      thresh= 1.148E-09 alpha_mix =  0.700 |ddv_scf|^2 =  2.094E-18

     End of self-consistent calculation

     Convergence has been achieved 


     Representation #  2 mode #   2

     Self-consistent Calculation

      iter #   1 total cpu time :  2259.3 secs   av.it.:   5.7
      thresh= 1.000E-02 alpha_mix =  0.700 |ddv_scf|^2 =  5.621E-05

      iter #   2 total cpu time :  2294.3 secs   av.it.:   7.6
      thresh= 7.497E-04 alpha_mix =  0.700 |ddv_scf|^2 =  4.764E-05

      iter #   3 total cpu time :  2327.6 secs   av.it.:   7.0
      thresh= 6.902E-04 alpha_mix =  0.700 |ddv_scf|^2 =  9.249E-08

      iter #   4 total cpu time :  2366.1 secs   av.it.:   8.3
      thresh= 3.041E-05 alpha_mix =  0.700 |ddv_scf|^2 =  3.826E-09

      iter #   5 total cpu time :  2402.7 secs   av.it.:   8.3
      thresh= 6.186E-06 alpha_mix =  0.700 |ddv_scf|^2 =  3.262E-10

      iter #   6 total cpu time :  2439.5 secs   av.it.:   8.2
      thresh= 1.806E-06 alpha_mix =  0.700 |ddv_scf|^2 =  9.352E-12

      iter #   7 total cpu time :  2475.0 secs   av.it.:   7.8
      thresh= 3.058E-07 alpha_mix =  0.700 |ddv_scf|^2 =  5.939E-13

      iter #   8 total cpu time :  2511.4 secs   av.it.:   7.9
      thresh= 7.706E-08 alpha_mix =  0.700 |ddv_scf|^2 =  2.086E-14

      iter #   9 total cpu time :  2546.1 secs   av.it.:   7.5
      thresh= 1.444E-08 alpha_mix =  0.700 |ddv_scf|^2 =  1.443E-15

      iter #  10 total cpu time :  2581.1 secs   av.it.:   7.5
      thresh= 3.799E-09 alpha_mix =  0.700 |ddv_scf|^2 =  3.289E-17

     End of self-consistent calculation

     Convergence has been achieved 


     Representation #  3 mode #   3

     Self-consistent Calculation

      iter #   1 total cpu time :  2615.0 secs   av.it.:   5.7
      thresh= 1.000E-02 alpha_mix =  0.700 |ddv_scf|^2 =  6.290E-05

      iter #   2 total cpu time :  2649.5 secs   av.it.:   7.5
      thresh= 7.931E-04 alpha_mix =  0.700 |ddv_scf|^2 =  4.794E-05

      iter #   3 total cpu time :  2682.4 secs   av.it.:   6.9
      thresh= 6.924E-04 alpha_mix =  0.700 |ddv_scf|^2 =  3.233E-07

      iter #   4 total cpu time :  2718.2 secs   av.it.:   7.8
      thresh= 5.686E-05 alpha_mix =  0.700 |ddv_scf|^2 =  7.714E-09

      iter #   5 total cpu time :  2756.7 secs   av.it.:   8.3
      thresh= 8.783E-06 alpha_mix =  0.700 |ddv_scf|^2 =  2.142E-10

      iter #   6 total cpu time :  2793.7 secs   av.it.:   8.3
      thresh= 1.464E-06 alpha_mix =  0.700 |ddv_scf|^2 =  1.664E-11

      iter #   7 total cpu time :  2830.1 secs   av.it.:   8.3
      thresh= 4.079E-07 alpha_mix =  0.700 |ddv_scf|^2 =  8.596E-13

      iter #   8 total cpu time :  2867.5 secs   av.it.:   8.4
      thresh= 9.272E-08 alpha_mix =  0.700 |ddv_scf|^2 =  5.388E-14

      iter #   9 total cpu time :  2901.6 secs   av.it.:   7.5
      thresh= 2.321E-08 alpha_mix =  0.700 |ddv_scf|^2 =  3.799E-15

      iter #  10 total cpu time :  2937.0 secs   av.it.:   7.7
      thresh= 6.163E-09 alpha_mix =  0.700 |ddv_scf|^2 =  5.811E-17

     End of self-consistent calculation

     Convergence has been achieved 

     Number of q in the star =   48
     List of q in the star:
          1  -0.166666667   0.666666667  -0.500000000
          2   0.666666667  -0.166666667  -0.500000000
          3  -0.166666667   0.500000000  -0.666666667
          4   0.166666667   0.500000000  -0.666666667
          5  -0.166666667  -0.500000000   0.666666667
          6   0.166666667  -0.500000000   0.666666667
          7   0.166666667  -0.666666667   0.500000000
          8  -0.166666667  -0.666666667   0.500000000
          9  -0.500000000  -0.666666667  -0.166666667
         10   0.500000000  -0.666666667   0.166666667
         11  -0.500000000   0.666666667   0.166666667
         12   0.500000000   0.666666667  -0.166666667
         13   0.666666667  -0.166666667   0.500000000
         14   0.666666667  -0.500000000  -0.166666667
         15  -0.166666667  -0.500000000  -0.666666667
         16  -0.166666667   0.500000000   0.666666667
         17   0.666666667   0.166666667  -0.500000000
         18   0.166666667   0.666666667  -0.500000000
         19   0.666666667   0.500000000   0.166666667
         20  -0.666666667   0.500000000  -0.166666667
         21   0.500000000   0.166666667   0.666666667
         22  -0.500000000   0.166666667  -0.666666667
         23   0.500000000   0.666666667   0.166666667
         24   0.500000000  -0.166666667  -0.666666667
         25  -0.666666667   0.166666667   0.500000000
         26  -0.166666667   0.666666667   0.500000000
         27  -0.500000000  -0.166666667   0.666666667
         28   0.166666667   0.666666667   0.500000000
         29  -0.500000000   0.666666667  -0.166666667
         30  -0.666666667  -0.166666667  -0.500000000
         31  -0.666666667  -0.166666667   0.500000000
         32   0.666666667   0.166666667   0.500000000
         33   0.166666667  -0.666666667  -0.500000000
         34  -0.666666667   0.166666667  -0.500000000
         35   0.500000000  -0.666666667  -0.166666667
         36  -0.500000000  -0.666666667   0.166666667
         37  -0.166666667  -0.666666667  -0.500000000
         38  -0.666666667  -0.500000000   0.166666667
         39   0.166666667   0.500000000   0.666666667
         40   0.166666667  -0.500000000  -0.666666667
         41  -0.666666667   0.500000000   0.166666667
         42   0.666666667   0.500000000  -0.166666667
         43  -0.666666667  -0.500000000  -0.166666667
         44   0.666666667  -0.500000000   0.166666667
         45   0.500000000   0.166666667  -0.666666667
         46   0.500000000  -0.166666667   0.666666667
         47  -0.500000000  -0.166666667  -0.666666667
         48  -0.500000000   0.166666667   0.666666667

     Diagonalizing the dynamical matrix

     q = (   -0.166666667   0.666666667  -0.500000000 ) 

 **************************************************************************
     freq (    1) =       1.795298 [THz] =      59.884684 [cm-1]
     freq (    2) =       3.287143 [THz] =     109.647298 [cm-1]
     freq (    3) =       4.700953 [THz] =     156.806924 [cm-1]
 **************************************************************************

     Mode symmetry, C_1 (1)     point group:

     freq (  1 -  1) =         59.9  [cm-1]   --> A                  
     freq (  2 -  2) =        109.6  [cm-1]   --> A                  
     freq (  3 -  3) =        156.8  [cm-1]   --> A                  

     Calculation of q =   -0.3333333   0.6666667  -0.3333333

   Info: using nr1, nr2, nr3 values from input

   Info: using nr1, nr2, nr3 values from input

     Parallelization info
     --------------------
     sticks:   dense  smooth     PW     G-vecs:    dense   smooth      PW
     Min          63      31     12                 1272      443     107
     Max          64      32     13                 1275      446     109
     Sum        1019     499    197                20377     7107    1721



     bravais-lattice index     =            3
     lattice parameter (alat)  =       7.5000  a.u.
     unit-cell volume          =     210.9375 (a.u.)^3
     number of atoms/cell      =            1
     number of atomic types    =            1
     number of electrons       =         9.00
     number of Kohn-Sham states=            9
     kinetic-energy cutoff     =      40.0000  Ry
     charge density cutoff     =     320.0000  Ry
     Exchange-correlation      = SLA  PW   PBE  PBE ( 1  4  3  4 0 0)

     celldm(1)=   7.500000  celldm(2)=   0.000000  celldm(3)=   0.000000
     celldm(4)=   0.000000  celldm(5)=   0.000000  celldm(6)=   0.000000

     crystal axes: (cart. coord. in units of alat)
               a(1) = (   0.500000   0.500000   0.500000 )  
               a(2) = (  -0.500000   0.500000   0.500000 )  
               a(3) = (  -0.500000  -0.500000   0.500000 )  

     reciprocal axes: (cart. coord. in units 2 pi/alat)
               b(1) = (  1.000000  0.000000  1.000000 )  
               b(2) = ( -1.000000  1.000000  0.000000 )  
               b(3) = (  0.000000 -1.000000  1.000000 )  


     PseudoPot. # 1 for Na read from file:
     /home/s1333534/quantum_espresso/qe-6.1/pseudo/Na_pbe_v1.uspp.F.UPF
     MD5 check sum: 76a99c7e9422403d3e93cbc85ab7bccb
     Pseudo is Ultrasoft, Zval =  9.0
     Generated by new atomic code, or converted to UPF format
     Using radial grid of  819 points,  5 beta functions with: 
                l(1) =   0
                l(2) =   0
                l(3) =   1
                l(4) =   1
                l(5) =   2
     Q(r) pseudized with  8 coefficients,  rinner =    1.250   1.250   1.250
                                                       1.250   1.250

     atomic species   valence    mass     pseudopotential
        Na             9.00    22.99000     Na( 1.00)

     48 Sym. Ops., with inversion, found



   Cartesian axes

     site n.     atom                  positions (alat units)
         1           Na  tau(   1) = (   0.0000000   0.0000000   0.0000000  )

     number of k points=  3080  Marzari-Vanderbilt smearing, width (Ry)=  0.0200

     Number of k-points >= 100: set verbosity='high' to print them.

     Dense  grid:    20377 G-vectors     FFT dimensions: (  40,  40,  40)

     Smooth grid:     7107 G-vectors     FFT dimensions: (  27,  27,  27)

     Estimated max dynamical RAM per process >       0.70MB

     Estimated total allocated dynamical RAM >      44.77MB

     The potential is recalculated from file :
     ./_ph0/na.bcc.save/charge-density.dat

     Starting wfc are    5 atomic +    4 random wfc

     Band Structure Calculation
     Davidson diagonalization with overlap

     ethr =  1.11E-10,  avg # of iterations = 20.0

     total cpu time spent up to now is      698.1 secs

     End of band structure calculation

     Number of k-points >= 100: set verbosity='high' to print the bands.

     the Fermi energy is     2.3846 ev

     Writing output data file na.bcc.save

                                                                                

     bravais-lattice index     =            3
     lattice parameter (alat)  =       7.5000  a.u.
     unit-cell volume          =     210.9375 (a.u.)^3
     number of atoms/cell      =            1
     number of atomic types    =            1
     kinetic-energy cut-off    =      40.0000  Ry
     charge density cut-off    =     320.0000  Ry
     convergence threshold     =      1.0E-16
     beta                      =       0.7000
     number of iterations used =            4
     Exchange-correlation      = SLA  PW   PBE  PBE ( 1  4  3  4 0 0)


     celldm(1)=    7.50000  celldm(2)=    0.00000  celldm(3)=    0.00000
     celldm(4)=    0.00000  celldm(5)=    0.00000  celldm(6)=    0.00000

     crystal axes: (cart. coord. in units of alat)
               a(1) = (  0.5000  0.5000  0.5000 )  
               a(2) = ( -0.5000  0.5000  0.5000 )  
               a(3) = ( -0.5000 -0.5000  0.5000 )  

     reciprocal axes: (cart. coord. in units 2 pi/alat)
               b(1) = (  1.0000  0.0000  1.0000 )  
               b(2) = ( -1.0000  1.0000  0.0000 )  
               b(3) = (  0.0000 -1.0000  1.0000 )  


     Atoms inside the unit cell: 

     Cartesian axes

     site n.  atom      mass           positions (alat units)
        1     Na  22.9900   tau(    1) = (    0.00000    0.00000    0.00000  )

     Computing dynamical matrix for 
                    q = (  -0.3333333   0.6666667  -0.3333333 )

      6 Sym.Ops. (no q -> -q+G )


     G cutoff =  455.9453  (   1273 G-vectors)     FFT grid: ( 40, 40, 40)
     G cutoff =  227.9727  (    446 G-vectors)  smooth grid: ( 27, 27, 27)

     number of k points=  3080  Marzari-Vanderbilt smearing, width (Ry)=  0.0200

     PseudoPot. # 1 for Na read from file:
     /home/s1333534/quantum_espresso/qe-6.1/pseudo/Na_pbe_v1.uspp.F.UPF
     MD5 check sum: 76a99c7e9422403d3e93cbc85ab7bccb
     Pseudo is Ultrasoft, Zval =  9.0
     Generated by new atomic code, or converted to UPF format
     Using radial grid of  819 points,  5 beta functions with: 
                l(1) =   0
                l(2) =   0
                l(3) =   1
                l(4) =   1
                l(5) =   2
     Q(r) pseudized with  8 coefficients,  rinner =    1.250   1.250   1.250
                                                       1.250   1.250

     Mode symmetry, C_3v (3m)   point group:


     Atomic displacements:
     There are   2 irreducible representations

     Representation     1      1 modes -A_1  L_1  To be done

     Representation     2      2 modes -E    L_3  To be done



     Alpha used in Ewald sum =   2.8000
     PHONON       : 45m50.29s CPU    49m57.21s WALL



     Representation #  1 mode #   1

     Self-consistent Calculation

      iter #   1 total cpu time :  3003.2 secs   av.it.:   5.4
      thresh= 1.000E-02 alpha_mix =  0.700 |ddv_scf|^2 =  1.131E-05

      iter #   2 total cpu time :  3010.6 secs   av.it.:   7.8
      thresh= 3.364E-04 alpha_mix =  0.700 |ddv_scf|^2 =  1.785E-07

      iter #   3 total cpu time :  3017.6 secs   av.it.:   8.0
      thresh= 4.225E-05 alpha_mix =  0.700 |ddv_scf|^2 =  7.423E-09

      iter #   4 total cpu time :  3024.5 secs   av.it.:   7.6
      thresh= 8.615E-06 alpha_mix =  0.700 |ddv_scf|^2 =  1.314E-10

      iter #   5 total cpu time :  3031.2 secs   av.it.:   7.5
      thresh= 1.146E-06 alpha_mix =  0.700 |ddv_scf|^2 =  3.735E-12

      iter #   6 total cpu time :  3038.1 secs   av.it.:   8.1
      thresh= 1.933E-07 alpha_mix =  0.700 |ddv_scf|^2 =  1.489E-13

      iter #   7 total cpu time :  3045.4 secs   av.it.:   8.2
      thresh= 3.859E-08 alpha_mix =  0.700 |ddv_scf|^2 =  5.559E-15

      iter #   8 total cpu time :  3052.6 secs   av.it.:   8.0
      thresh= 7.456E-09 alpha_mix =  0.700 |ddv_scf|^2 =  6.068E-17

     End of self-consistent calculation

     Convergence has been achieved 


     Representation #  2 modes #   2  3

     Self-consistent Calculation

      iter #   1 total cpu time :  3064.7 secs   av.it.:   5.6
      thresh= 1.000E-02 alpha_mix =  0.700 |ddv_scf|^2 =  8.887E-06

      iter #   2 total cpu time :  3078.7 secs   av.it.:   8.2
      thresh= 2.981E-04 alpha_mix =  0.700 |ddv_scf|^2 =  1.037E-06

      iter #   3 total cpu time :  3092.3 secs   av.it.:   7.7
      thresh= 1.018E-04 alpha_mix =  0.700 |ddv_scf|^2 =  8.510E-09

      iter #   4 total cpu time :  3106.7 secs   av.it.:   8.6
      thresh= 9.225E-06 alpha_mix =  0.700 |ddv_scf|^2 =  6.424E-11

      iter #   5 total cpu time :  3120.9 secs   av.it.:   7.9
      thresh= 8.015E-07 alpha_mix =  0.700 |ddv_scf|^2 =  7.458E-14

      iter #   6 total cpu time :  3134.6 secs   av.it.:   8.0
      thresh= 2.731E-08 alpha_mix =  0.700 |ddv_scf|^2 =  4.521E-15

      iter #   7 total cpu time :  3148.7 secs   av.it.:   8.2
      thresh= 6.724E-09 alpha_mix =  0.700 |ddv_scf|^2 =  1.339E-17

     End of self-consistent calculation

     Convergence has been achieved 

     Number of q in the star =    8
     List of q in the star:
          1  -0.333333333   0.666666667  -0.333333333
          2   0.333333333  -0.666666667   0.333333333
          3  -0.333333333  -0.666666667   0.333333333
          4  -0.333333333  -0.666666667  -0.333333333
          5  -0.333333333   0.666666667   0.333333333
          6   0.333333333   0.666666667  -0.333333333
          7  -0.666666667   0.333333333  -0.333333333
          8   0.333333333   0.666666667   0.333333333

     Diagonalizing the dynamical matrix

     q = (   -0.333333333   0.666666667  -0.333333333 ) 

 **************************************************************************
     freq (    1) =       2.114451 [THz] =      70.530500 [cm-1]
     freq (    2) =       4.286653 [THz] =     142.987358 [cm-1]
     freq (    3) =       4.286653 [THz] =     142.987358 [cm-1]
 **************************************************************************

     Mode symmetry, C_3v (3m)   point group:

     freq (  1 -  1) =         70.5  [cm-1]   --> A_1  L_1           
     freq (  2 -  3) =        143.0  [cm-1]   --> E    L_3           

     Calculation of q =    0.0000000   0.0000000   0.3333333

   Info: using nr1, nr2, nr3 values from input

   Info: using nr1, nr2, nr3 values from input

     Parallelization info
     --------------------
     sticks:   dense  smooth     PW     G-vecs:    dense   smooth      PW
     Min          63      31     10                 1272      443      90
     Max          64      32     11                 1275      446      94
     Sum        1019     499    173                20377     7107    1481



     bravais-lattice index     =            3
     lattice parameter (alat)  =       7.5000  a.u.
     unit-cell volume          =     210.9375 (a.u.)^3
     number of atoms/cell      =            1
     number of atomic types    =            1
     number of electrons       =         9.00
     number of Kohn-Sham states=            9
     kinetic-energy cutoff     =      40.0000  Ry
     charge density cutoff     =     320.0000  Ry
     Exchange-correlation      = SLA  PW   PBE  PBE ( 1  4  3  4 0 0)

     celldm(1)=   7.500000  celldm(2)=   0.000000  celldm(3)=   0.000000
     celldm(4)=   0.000000  celldm(5)=   0.000000  celldm(6)=   0.000000

     crystal axes: (cart. coord. in units of alat)
               a(1) = (   0.500000   0.500000   0.500000 )  
[...]
     G cutoff =  227.9727  (    446 G-vectors)  smooth grid: ( 27, 27, 27)

     number of k points=  4400  Marzari-Vanderbilt smearing, width (Ry)=  0.0200

     PseudoPot. # 1 for Na read from file:
     /home/s1333534/quantum_espresso/qe-6.1/pseudo/Na_pbe_v1.uspp.F.UPF
     MD5 check sum: 76a99c7e9422403d3e93cbc85ab7bccb
     Pseudo is Ultrasoft, Zval =  9.0
     Generated by new atomic code, or converted to UPF format
     Using radial grid of  819 points,  5 beta functions with: 
                l(1) =   0
                l(2) =   0
                l(3) =   1
                l(4) =   1
                l(5) =   2
     Q(r) pseudized with  8 coefficients,  rinner =    1.250   1.250   1.250
                                                       1.250   1.250

     Mode symmetry, C_2v (mm2)  point group:


     Atomic displacements:
     There are   3 irreducible representations

     Representation     1      1 modes -A_1  D_1  S_1  To be done

     Representation     2      1 modes -B_1  D_3  S_3  To be done

     Representation     3      1 modes -B_2  D_4  S_4  To be done



     Alpha used in Ewald sum =   2.8000
     PHONON       :     1h28m CPU        1h36m WALL



     Representation #  1 mode #   1

     Self-consistent Calculation

      iter #   1 total cpu time :  5779.8 secs   av.it.:   5.6
      thresh= 1.000E-02 alpha_mix =  0.700 |ddv_scf|^2 =  2.001E-05

      iter #   2 total cpu time :  5789.7 secs   av.it.:   7.8
      thresh= 4.474E-04 alpha_mix =  0.700 |ddv_scf|^2 =  8.967E-07

      iter #   3 total cpu time :  5799.9 secs   av.it.:   7.7
      thresh= 9.469E-05 alpha_mix =  0.700 |ddv_scf|^2 =  2.104E-08

      iter #   4 total cpu time :  5810.0 secs   av.it.:   8.2
      thresh= 1.451E-05 alpha_mix =  0.700 |ddv_scf|^2 =  1.338E-09

      iter #   5 total cpu time :  5820.0 secs   av.it.:   8.1
      thresh= 3.658E-06 alpha_mix =  0.700 |ddv_scf|^2 =  1.124E-10

      iter #   6 total cpu time :  5829.9 secs   av.it.:   7.9
      thresh= 1.060E-06 alpha_mix =  0.700 |ddv_scf|^2 =  5.780E-13

      iter #   7 total cpu time :  5839.9 secs   av.it.:   7.9
      thresh= 7.602E-08 alpha_mix =  0.700 |ddv_scf|^2 =  4.408E-14

      iter #   8 total cpu time :  5850.1 secs   av.it.:   8.0
      thresh= 2.100E-08 alpha_mix =  0.700 |ddv_scf|^2 =  5.973E-17

     End of self-consistent calculation

     Convergence has been achieved 


     Representation #  2 mode #   2

     Self-consistent Calculation

      iter #   1 total cpu time :  5858.9 secs   av.it.:   5.5
      thresh= 1.000E-02 alpha_mix =  0.700 |ddv_scf|^2 =  1.721E-05

      iter #   2 total cpu time :  5868.8 secs   av.it.:   7.7
      thresh= 4.149E-04 alpha_mix =  0.700 |ddv_scf|^2 =  2.115E-07

      iter #   3 total cpu time :  5878.4 secs   av.it.:   7.6
      thresh= 4.599E-05 alpha_mix =  0.700 |ddv_scf|^2 =  2.022E-08

      iter #   4 total cpu time :  5888.1 secs   av.it.:   7.7
      thresh= 1.422E-05 alpha_mix =  0.700 |ddv_scf|^2 =  8.715E-11

      iter #   5 total cpu time :  5897.7 secs   av.it.:   7.6
      thresh= 9.335E-07 alpha_mix =  0.700 |ddv_scf|^2 =  4.139E-14

      iter #   6 total cpu time :  5906.7 secs   av.it.:   7.1
      thresh= 2.034E-08 alpha_mix =  0.700 |ddv_scf|^2 =  2.832E-15

      iter #   7 total cpu time :  5915.9 secs   av.it.:   7.4
      thresh= 5.322E-09 alpha_mix =  0.700 |ddv_scf|^2 =  5.116E-18

     End of self-consistent calculation

     Convergence has been achieved 


     Representation #  3 mode #   3

     Self-consistent Calculation

      iter #   1 total cpu time :  5924.9 secs   av.it.:   5.6
      thresh= 1.000E-02 alpha_mix =  0.700 |ddv_scf|^2 =  2.939E-05

      iter #   2 total cpu time :  5934.9 secs   av.it.:   7.6
      thresh= 5.421E-04 alpha_mix =  0.700 |ddv_scf|^2 =  2.095E-06

      iter #   3 total cpu time :  5944.3 secs   av.it.:   7.3
      thresh= 1.447E-04 alpha_mix =  0.700 |ddv_scf|^2 =  2.962E-08

      iter #   4 total cpu time :  5954.3 secs   av.it.:   7.8
      thresh= 1.721E-05 alpha_mix =  0.700 |ddv_scf|^2 =  8.786E-10

      iter #   5 total cpu time :  5963.8 secs   av.it.:   7.4
      thresh= 2.964E-06 alpha_mix =  0.700 |ddv_scf|^2 =  1.554E-12

      iter #   6 total cpu time :  5973.7 secs   av.it.:   7.9
      thresh= 1.246E-07 alpha_mix =  0.700 |ddv_scf|^2 =  1.040E-14

      iter #   7 total cpu time :  5983.5 secs   av.it.:   7.8
      thresh= 1.020E-08 alpha_mix =  0.700 |ddv_scf|^2 =  1.820E-16

      iter #   8 total cpu time :  5993.2 secs   av.it.:   7.5
      thresh= 1.349E-09 alpha_mix =  0.700 |ddv_scf|^2 =  2.453E-19

     End of self-consistent calculation

     Convergence has been achieved 

     Number of q in the star =   12
     List of q in the star:
          1   0.000000000   0.833333333  -0.166666667
          2   0.000000000  -0.833333333  -0.166666667
          3   0.833333333   0.000000000  -0.166666667
          4  -0.833333333   0.000000000  -0.166666667
          5  -0.166666667  -0.833333333   0.000000000
          6   0.166666667  -0.833333333   0.000000000
          7  -0.166666667   0.833333333   0.000000000
          8   0.166666667   0.833333333   0.000000000
          9   0.833333333   0.000000000   0.166666667
         10   0.000000000   0.166666667  -0.833333333
         11   0.000000000  -0.166666667  -0.833333333
         12   0.166666667   0.000000000  -0.833333333

     Diagonalizing the dynamical matrix

     q = (    0.000000000   0.833333333  -0.166666667 ) 

 **************************************************************************
     freq (    1) =       3.839698 [THz] =     128.078526 [cm-1]
     freq (    2) =       4.168983 [THz] =     139.062313 [cm-1]
     freq (    3) =       4.598875 [THz] =     153.401965 [cm-1]
 **************************************************************************

     Mode symmetry, C_2v (mm2)  point group:

     freq (  1 -  1) =        128.1  [cm-1]   --> A_1  D_1  S_1      
     freq (  2 -  2) =        139.1  [cm-1]   --> B_1  D_3  S_3      
     freq (  3 -  3) =        153.4  [cm-1]   --> B_2  D_4  S_4      

     Calculation of q =    0.0000000   0.0000000  -1.0000000

   Info: using nr1, nr2, nr3 values from input

   Info: using nr1, nr2, nr3 values from input

     Parallelization info
     --------------------
     sticks:   dense  smooth     PW     G-vecs:    dense   smooth      PW
     Min          63      31     11                 1272      443      99
     Max          64      32     12                 1275      446     101
     Sum        1019     499    181                20377     7107    1601



     bravais-lattice index     =            3
     lattice parameter (alat)  =       7.5000  a.u.
     unit-cell volume          =     210.9375 (a.u.)^3
     number of atoms/cell      =            1
     number of atomic types    =            1
     number of electrons       =         9.00
     number of Kohn-Sham states=            9
     kinetic-energy cutoff     =      40.0000  Ry
     charge density cutoff     =     320.0000  Ry
     Exchange-correlation      = SLA  PW   PBE  PBE ( 1  4  3  4 0 0)

     celldm(1)=   7.500000  celldm(2)=   0.000000  celldm(3)=   0.000000
     celldm(4)=   0.000000  celldm(5)=   0.000000  celldm(6)=   0.000000

     crystal axes: (cart. coord. in units of alat)
               a(1) = (   0.500000   0.500000   0.500000 )  
               a(2) = (  -0.500000   0.500000   0.500000 )  
               a(3) = (  -0.500000  -0.500000   0.500000 )  

     reciprocal axes: (cart. coord. in units 2 pi/alat)
               b(1) = (  1.000000  0.000000  1.000000 )  
               b(2) = ( -1.000000  1.000000  0.000000 )  
               b(3) = (  0.000000 -1.000000  1.000000 )  


     PseudoPot. # 1 for Na read from file:
     /home/s1333534/quantum_espresso/qe-6.1/pseudo/Na_pbe_v1.uspp.F.UPF
     MD5 check sum: 76a99c7e9422403d3e93cbc85ab7bccb
     Pseudo is Ultrasoft, Zval =  9.0
     Generated by new atomic code, or converted to UPF format
     Using radial grid of  819 points,  5 beta functions with: 
                l(1) =   0
                l(2) =   0
                l(3) =   1
                l(4) =   1
                l(5) =   2
     Q(r) pseudized with  8 coefficients,  rinner =    1.250   1.250   1.250
                                                       1.250   1.250

     atomic species   valence    mass     pseudopotential
        Na             9.00    22.99000     Na( 1.00)

     48 Sym. Ops., with inversion, found



   Cartesian axes

     site n.     atom                  positions (alat units)
         1           Na  tau(   1) = (   0.0000000   0.0000000   0.0000000  )

     number of k points=   500  Marzari-Vanderbilt smearing, width (Ry)=  0.0200

     Number of k-points >= 100: set verbosity='high' to print them.

     Dense  grid:    20377 G-vectors     FFT dimensions: (  40,  40,  40)

     Smooth grid:     7107 G-vectors     FFT dimensions: (  27,  27,  27)

     Estimated max dynamical RAM per process >       0.70MB

     Estimated total allocated dynamical RAM >      44.77MB

     The potential is recalculated from file :
     ./_ph0/na.bcc.save/charge-density.dat

     Starting wfc are    5 atomic +    4 random wfc

     Band Structure Calculation
     Davidson diagonalization with overlap

     ethr =  1.11E-10,  avg # of iterations = 20.0

     total cpu time spent up to now is     1415.2 secs

     End of band structure calculation

     Number of k-points >= 100: set verbosity='high' to print the bands.

     the Fermi energy is     2.3846 ev

     Writing output data file na.bcc.save

                                                                                

     bravais-lattice index     =            3
     lattice parameter (alat)  =       7.5000  a.u.
     unit-cell volume          =     210.9375 (a.u.)^3
     number of atoms/cell      =            1
     number of atomic types    =            1
     kinetic-energy cut-off    =      40.0000  Ry
     charge density cut-off    =     320.0000  Ry
     convergence threshold     =      1.0E-16
     beta                      =       0.7000
     number of iterations used =            4
     Exchange-correlation      = SLA  PW   PBE  PBE ( 1  4  3  4 0 0)


     celldm(1)=    7.50000  celldm(2)=    0.00000  celldm(3)=    0.00000
     celldm(4)=    0.00000  celldm(5)=    0.00000  celldm(6)=    0.00000

     crystal axes: (cart. coord. in units of alat)
               a(1) = (  0.5000  0.5000  0.5000 )  
               a(2) = ( -0.5000  0.5000  0.5000 )  
               a(3) = ( -0.5000 -0.5000  0.5000 )  

     reciprocal axes: (cart. coord. in units 2 pi/alat)
               b(1) = (  1.0000  0.0000  1.0000 )  
               b(2) = ( -1.0000  1.0000  0.0000 )  
               b(3) = (  0.0000 -1.0000  1.0000 )  


     Atoms inside the unit cell: 

     Cartesian axes

     site n.  atom      mass           positions (alat units)
        1     Na  22.9900   tau(    1) = (    0.00000    0.00000    0.00000  )

     Computing dynamical matrix for 
                    q = (   0.0000000   0.0000000  -1.0000000 )

     49 Sym.Ops. (with q -> -q+G )


     G cutoff =  455.9453  (   1273 G-vectors)     FFT grid: ( 40, 40, 40)
     G cutoff =  227.9727  (    446 G-vectors)  smooth grid: ( 27, 27, 27)

     number of k points=   500  Marzari-Vanderbilt smearing, width (Ry)=  0.0200

     PseudoPot. # 1 for Na read from file:
     /home/s1333534/quantum_espresso/qe-6.1/pseudo/Na_pbe_v1.uspp.F.UPF
     MD5 check sum: 76a99c7e9422403d3e93cbc85ab7bccb
     Pseudo is Ultrasoft, Zval =  9.0
     Generated by new atomic code, or converted to UPF format
     Using radial grid of  819 points,  5 beta functions with: 
                l(1) =   0
                l(2) =   0
                l(3) =   1
                l(4) =   1
                l(5) =   2
     Q(r) pseudized with  8 coefficients,  rinner =    1.250   1.250   1.250
                                                       1.250   1.250

     Mode symmetry, O_h (m-3m)  point group:


     Atomic displacements:
     There are   1 irreducible representations

     Representation     1      3 modes -T_1u G_15  G_4-  To be done



     Alpha used in Ewald sum =   2.8000
     PHONON       :     1h31m CPU        1h40m WALL



     Representation #  1 modes #   1  2  3

     Self-consistent Calculation

      iter #   1 total cpu time :  6007.4 secs   av.it.:   5.7
      thresh= 1.000E-02 alpha_mix =  0.700 |ddv_scf|^2 =  2.138E-06

      iter #   2 total cpu time :  6011.9 secs   av.it.:   8.5
      thresh= 1.462E-04 alpha_mix =  0.700 |ddv_scf|^2 =  3.035E-08

      iter #   3 total cpu time :  6016.5 secs   av.it.:   8.3
      thresh= 1.742E-05 alpha_mix =  0.700 |ddv_scf|^2 =  2.596E-09

      iter #   4 total cpu time :  6021.2 secs   av.it.:   8.5
      thresh= 5.095E-06 alpha_mix =  0.700 |ddv_scf|^2 =  1.039E-11

      iter #   5 total cpu time :  6025.9 secs   av.it.:   8.3
      thresh= 3.223E-07 alpha_mix =  0.700 |ddv_scf|^2 =  3.670E-15

      iter #   6 total cpu time :  6030.0 secs   av.it.:   7.3
      thresh= 6.058E-09 alpha_mix =  0.700 |ddv_scf|^2 =  2.638E-16

      iter #   7 total cpu time :  6034.3 secs   av.it.:   8.0
      thresh= 1.624E-09 alpha_mix =  0.700 |ddv_scf|^2 =  2.663E-19

     End of self-consistent calculation

     Convergence has been achieved 

     Number of q in the star =    1
     List of q in the star:
          1   0.000000000   0.000000000  -1.000000000

     Diagonalizing the dynamical matrix

     q = (    0.000000000   0.000000000  -1.000000000 ) 

 **************************************************************************
     freq (    1) =       4.483791 [THz] =     149.563179 [cm-1]
     freq (    2) =       4.483791 [THz] =     149.563179 [cm-1]
     freq (    3) =       4.483791 [THz] =     149.563179 [cm-1]
 **************************************************************************

     Mode symmetry, O_h (m-3m)  point group:

     freq (  1 -  3) =        149.6  [cm-1]   --> T_1u G_15  G_4-    

     init_run     :      2.28s CPU      2.41s WALL (      15 calls)
     electrons    :   1119.29s CPU   1184.21s WALL (      15 calls)

     Called by init_run:
     wfcinit      :      0.00s CPU      0.01s WALL (      15 calls)
     potinit      :      0.41s CPU      0.42s WALL (      15 calls)

     Called by electrons:
     c_bands      :   1118.96s CPU   1183.87s WALL (      15 calls)
     v_of_rho     :      0.16s CPU      0.16s WALL (      16 calls)
     newd         :      0.15s CPU      0.15s WALL (      16 calls)

     Called by c_bands:
     init_us_2    :     22.97s CPU     24.92s WALL (  336489 calls)
     cegterg      :    863.85s CPU    920.82s WALL (   24765 calls)

     Called by sum_band:

     Called by *egterg:
     h_psi        :   3206.89s CPU   3472.54s WALL ( 3105710 calls)
     s_psi        :     89.46s CPU     98.60s WALL ( 6049438 calls)
     g_psi        :      2.65s CPU      2.87s WALL (  380222 calls)
     cdiaghg      :    245.46s CPU    261.30s WALL (  399484 calls)

     Called by h_psi:
     h_psi:pot    :   3184.61s CPU   3447.75s WALL ( 3105710 calls)
     h_psi:calbec :    185.62s CPU    200.18s WALL ( 3105710 calls)
     vloc_psi     :   2916.79s CPU   3158.46s WALL ( 3105710 calls)
     add_vuspsi   :     48.88s CPU     53.67s WALL ( 3105710 calls)

     General routines
     calbec       :    338.47s CPU    366.42s WALL ( 6592642 calls)
     fft          :      4.39s CPU      4.57s WALL (    6346 calls)
     ffts         :      4.92s CPU      5.64s WALL (   30429 calls)
     fftw         :   3225.62s CPU   3510.18s WALL (29968976 calls)
     interpolate  :      0.81s CPU      1.17s WALL (     870 calls)
     davcio       :     31.40s CPU     74.41s WALL ( 1369453 calls)

     Parallel routines
     fft_scatter  :   1383.09s CPU   1506.08s WALL (30005751 calls)

     PHONON       :     1h32m CPU        1h40m WALL

     INITIALIZATION: 
     phq_setup    :      0.56s CPU      0.59s WALL (      16 calls)
     phq_init     :     59.21s CPU     62.74s WALL (      16 calls)

     phq_init     :     59.21s CPU     62.74s WALL (      16 calls)
     init_vloc    :      0.11s CPU      0.11s WALL (      16 calls)
     init_us_1    :      1.11s CPU      1.21s WALL (      16 calls)
     newd         :      0.15s CPU      0.15s WALL (      16 calls)
     dvanqq       :      0.57s CPU      0.58s WALL (      16 calls)
     drho         :     45.96s CPU     48.56s WALL (      16 calls)

     DYNAMICAL MATRIX:
     dynmat0      :      8.35s CPU      8.89s WALL (      16 calls)
     phqscf       :   4136.20s CPU   4550.80s WALL (      16 calls)
     dynmatrix    :      0.10s CPU      0.11s WALL (      16 calls)

     phqscf       :   4136.20s CPU   4550.80s WALL (      16 calls)
     solve_linter :   4123.55s CPU   4536.34s WALL (      40 calls)
     drhodv       :     12.41s CPU     13.37s WALL (      40 calls)

     dynmat0      :      8.35s CPU      8.89s WALL (      16 calls)
     dynmat_us    :      8.30s CPU      8.65s WALL (      16 calls)
     d2ionq       :      0.01s CPU      0.01s WALL (      16 calls)

     dynmat_us    :      8.30s CPU      8.65s WALL (      16 calls)
     addusdynmat  :      0.00s CPU      0.00s WALL (      16 calls)

     phqscf       :   4136.20s CPU   4550.80s WALL (      16 calls)
     solve_linter :   4123.55s CPU   4536.34s WALL (      40 calls)

     solve_linter :   4123.55s CPU   4536.34s WALL (      40 calls)
     dvqpsi_us    :     79.40s CPU     85.04s WALL (   29082 calls)
     ortho        :     52.28s CPU     56.46s WALL (  262267 calls)
     cgsolve      :   3244.13s CPU   3531.25s WALL (  262267 calls)
     incdrhoscf   :    323.31s CPU    367.03s WALL (  262267 calls)
     addusddens   :      4.26s CPU      4.31s WALL (     381 calls)
     vpsifft      :    258.05s CPU    281.30s WALL (  233185 calls)
     dv_of_drho   :      3.30s CPU      3.36s WALL (     395 calls)
     mix_pot      :      0.75s CPU      2.83s WALL (     341 calls)
     ef_shift     :      0.02s CPU      0.03s WALL (       7 calls)
     localdos     :      0.08s CPU      0.09s WALL (       1 calls)
     psymdvscf    :     29.06s CPU     29.73s WALL (     310 calls)
     newdq        :      4.23s CPU      4.29s WALL (     341 calls)
     adddvscf     :     14.04s CPU     15.07s WALL (  233185 calls)
     drhodvus     :      0.01s CPU      0.02s WALL (      40 calls)

     dvqpsi_us    :     79.40s CPU     85.04s WALL (   29082 calls)
     dvqpsi_us_on :     13.68s CPU     14.42s WALL (   29082 calls)

     cgsolve      :   3244.13s CPU   3531.25s WALL (  262267 calls)
     ch_psi       :   3066.02s CPU   3335.71s WALL ( 2681461 calls)

     ch_psi       :   3066.02s CPU   3335.71s WALL ( 2681461 calls)
     h_psi        :   3206.89s CPU   3472.54s WALL ( 3105710 calls)
     last         :    315.34s CPU    344.40s WALL ( 2681461 calls)

     h_psi        :   3206.89s CPU   3472.54s WALL ( 3105710 calls)
     add_vuspsi   :     48.88s CPU     53.67s WALL ( 3105710 calls)

     incdrhoscf   :    323.31s CPU    367.03s WALL (  262267 calls)
     addusdbec    :     25.52s CPU     27.13s WALL (  291349 calls)

     drhodvus     :      0.01s CPU      0.02s WALL (      40 calls)

      General routines
     calbec       :    338.47s CPU    366.42s WALL ( 6592642 calls)
     fft          :      4.39s CPU      4.57s WALL (    6346 calls)
     ffts         :      4.92s CPU      5.64s WALL (   30429 calls)
     fftw         :   3225.62s CPU   3510.18s WALL (29968976 calls)
     davcio       :     31.40s CPU     74.41s WALL ( 1369453 calls)
     write_rec    :      1.42s CPU      5.03s WALL (     381 calls)


     PHONON       :     1h32m CPU        1h40m WALL


   This run was terminated on:  22: 4:37  31Jan2018            

=------------------------------------------------------------------------------=
   JOB DONE.
=------------------------------------------------------------------------------=
