
     Program PWSCF v.6.1 (svn rev. 13369) starts on 29Jan2018 at 23:37:30 

     This program is part of the open-source Quantum ESPRESSO suite
     for quantum simulation of materials; please cite
         "P. Giannozzi et al., J. Phys.:Condens. Matter 21 395502 (2009);
          URL http://www.quantum-espresso.org", 
     in publications or presentations arising from this work. More details at
     http://www.quantum-espresso.org/quote

     Parallel version (MPI), running on    64 processors
     K-points division:     npool     =       4
     R & G space division:  proc/nbgrp/npool/nimage =      16
     Waiting for input...
     Reading input from standard input

     Current dimensions of program PWSCF are:
     Max number of different atomic species (ntypx) = 10
     Max number of k-points (npk) =  80000
     Max angular momentum in pseudopotentials (lmaxx) =  3

     Subspace diagonalization in iterative solution of the eigenvalue problem:
     a serial algorithm will be used


     Parallelization info
     --------------------
     sticks:   dense  smooth     PW     G-vecs:    dense   smooth      PW
     Min          71      35     10                 1550      542      91
     Max          72      36     11                 1553      545      95
     Sum        1151     571    173                24835     8685    1505



     bravais-lattice index     =            3
     lattice parameter (alat)  =       8.0000  a.u.
     unit-cell volume          =     256.0000 (a.u.)^3
     number of atoms/cell      =            1
     number of atomic types    =            1
     number of electrons       =         9.00
     number of Kohn-Sham states=            9
     kinetic-energy cutoff     =      40.0000  Ry
     charge density cutoff     =     320.0000  Ry
     convergence threshold     =      1.0E-10
     mixing beta               =       0.7000
     number of iterations used =            8  plain     mixing
     Exchange-correlation      = SLA  PW   PBE  PBE ( 1  4  3  4 0 0)
     nstep                     =           50


     celldm(1)=   8.000000  celldm(2)=   0.000000  celldm(3)=   0.000000
     celldm(4)=   0.000000  celldm(5)=   0.000000  celldm(6)=   0.000000

     crystal axes: (cart. coord. in units of alat)
               a(1) = (   0.500000   0.500000   0.500000 )  
               a(2) = (  -0.500000   0.500000   0.500000 )  
               a(3) = (  -0.500000  -0.500000   0.500000 )  

     reciprocal axes: (cart. coord. in units 2 pi/alat)
               b(1) = (  1.000000  0.000000  1.000000 )  
               b(2) = ( -1.000000  1.000000  0.000000 )  
               b(3) = (  0.000000 -1.000000  1.000000 )  


     PseudoPot. # 1 for Na read from file:
     /home/s1333534/quantum_espresso/qe-6.1/pseudo/Na_pbe_v1.uspp.F.UPF
     MD5 check sum: 76a99c7e9422403d3e93cbc85ab7bccb
     Pseudo is Ultrasoft, Zval =  9.0
     Generated by new atomic code, or converted to UPF format
     Using radial grid of  819 points,  5 beta functions with: 
                l(1) =   0
                l(2) =   0
                l(3) =   1
                l(4) =   1
                l(5) =   2
     Q(r) pseudized with  8 coefficients,  rinner =    1.250   1.250   1.250
                                                       1.250   1.250

     atomic species   valence    mass     pseudopotential
        Na             9.00    22.99000     Na( 1.00)

     48 Sym. Ops., with inversion, found



   Cartesian axes

     site n.     atom                  positions (alat units)
         1           Na  tau(   1) = (   0.0000000   0.0000000   0.0000000  )

     number of k points=   250  Marzari-Vanderbilt smearing, width (Ry)=  0.0200

     Number of k-points >= 100: set verbosity='high' to print them.

     Dense  grid:    24835 G-vectors     FFT dimensions: (  40,  40,  40)

     Smooth grid:     8685 G-vectors     FFT dimensions: (  27,  27,  27)

     Estimated max dynamical RAM per process >       1.67MB

     Estimated total allocated dynamical RAM >     106.95MB

     Initial potential from superposition of free atoms

     starting charge    8.99371, renormalised to    9.00000
     Starting wfc are    5 randomized atomic wfcs +    4 random wfc

     total cpu time spent up to now is        0.8 secs

     per-process dynamical memory:     8.7 Mb

     Self-consistent Calculation

     iteration #  1     ecut=    40.00 Ry     beta=0.70
     Davidson diagonalization with overlap
     ethr =  1.00E-02,  avg # of iterations =  5.9

     Threshold (ethr) on eigenvalues was too large:
     Diagonalizing with lowered threshold

     Davidson diagonalization with overlap
     ethr =  9.84E-06,  avg # of iterations =  4.6

     total cpu time spent up to now is        3.4 secs

     total energy              =     -95.10637783 Ry
     Harris-Foulkes estimate   =     -95.10656724 Ry
     estimated scf accuracy    <       0.00088330 Ry

     iteration #  2     ecut=    40.00 Ry     beta=0.70
     Davidson diagonalization with overlap
     ethr =  9.81E-06,  avg # of iterations =  2.0

     total cpu time spent up to now is        4.1 secs

     total energy              =     -95.10647613 Ry
     Harris-Foulkes estimate   =     -95.10649622 Ry
     estimated scf accuracy    <       0.00009726 Ry

     iteration #  3     ecut=    40.00 Ry     beta=0.70
     Davidson diagonalization with overlap
     ethr =  1.08E-06,  avg # of iterations =  2.1

     total cpu time spent up to now is        4.9 secs

     total energy              =     -95.10648758 Ry
     Harris-Foulkes estimate   =     -95.10648857 Ry
     estimated scf accuracy    <       0.00000602 Ry

     iteration #  4     ecut=    40.00 Ry     beta=0.70
     Davidson diagonalization with overlap
     ethr =  6.69E-08,  avg # of iterations =  1.0

     total cpu time spent up to now is        5.5 secs

     total energy              =     -95.10648815 Ry
     Harris-Foulkes estimate   =     -95.10648811 Ry
     estimated scf accuracy    <       0.00000001 Ry

     iteration #  5     ecut=    40.00 Ry     beta=0.70
     Davidson diagonalization with overlap
     ethr =  1.40E-10,  avg # of iterations =  3.0

     total cpu time spent up to now is        6.4 secs

     total energy              =     -95.10648818 Ry
     Harris-Foulkes estimate   =     -95.10648818 Ry
     estimated scf accuracy    <          1.7E-09 Ry

     iteration #  6     ecut=    40.00 Ry     beta=0.70
     Davidson diagonalization with overlap
     ethr =  1.91E-11,  avg # of iterations =  1.5

     total cpu time spent up to now is        7.1 secs

     End of self-consistent calculation

     Number of k-points >= 100: set verbosity='high' to print the bands.

     the Fermi energy is     1.5119 ev

!    total energy              =     -95.10648818 Ry
     Harris-Foulkes estimate   =     -95.10648818 Ry
     estimated scf accuracy    <          5.4E-11 Ry

     The total energy is the sum of the following terms:

     one-electron contribution =     -88.63760988 Ry
     hartree contribution      =      44.64395914 Ry
     xc contribution           =     -14.26550735 Ry
     ewald contribution        =     -36.84723868 Ry
     smearing contrib. (-TS)   =      -0.00009142 Ry

     convergence has been achieved in   6 iterations

     Forces acting on atoms (cartesian axes, Ry/au):

     atom    1 type  1   force =     0.00000000    0.00000000    0.00000000

     Total force =     0.000000     Total SCF correction =     0.000000


     Computing stress (Cartesian axis) and pressure

          total   stress  (Ry/bohr**3)                   (kbar)     P=   -4.56
  -0.00003097   0.00000000   0.00000000         -4.56      0.00      0.00
   0.00000000  -0.00003097   0.00000000          0.00     -4.56      0.00
   0.00000000   0.00000000  -0.00003097          0.00      0.00     -4.56


     BFGS Geometry Optimization

     number of scf cycles    =   1
     number of bfgs steps    =   0

     enthalpy new            =     -94.9324628926 Ry

     new trust radius        =       0.0568604568 bohr
     new conv_thr            =            1.0E-10 Ry

     new unit-cell volume =    242.59454 a.u.^3 (    35.94880 Ang^3 )
     density =      1.06195 g/cm^3

CELL_PARAMETERS (alat=  8.00000000)
   0.491115554   0.491115554   0.491115554
  -0.491115554   0.491115554   0.491115554
  -0.491115554  -0.491115554   0.491115554

ATOMIC_POSITIONS (crystal)
Na       0.000000000   0.000000000   0.000000000



     Writing output data file na.bcc.save
     NEW-OLD atomic charge density approx. for the potential
     extrapolated charge    8.50302, renormalised to    9.00000

     total cpu time spent up to now is        8.8 secs

     per-process dynamical memory:    13.5 Mb

     Self-consistent Calculation

     iteration #  1     ecut=    40.00 Ry     beta=0.70
     Davidson diagonalization with overlap
     ethr =  1.00E-06,  avg # of iterations =  5.3

     total cpu time spent up to now is       10.3 secs

     total energy              =     -94.96894911 Ry
     Harris-Foulkes estimate   =     -98.91593707 Ry
     estimated scf accuracy    <       0.07838592 Ry

     iteration #  2     ecut=    40.00 Ry     beta=0.70
     Davidson diagonalization with overlap
     ethr =  8.71E-04,  avg # of iterations =  2.8

     total cpu time spent up to now is       11.3 secs

     total energy              =     -95.10670188 Ry
     Harris-Foulkes estimate   =     -95.16350139 Ry
     estimated scf accuracy    <       0.12853484 Ry

     iteration #  3     ecut=    40.00 Ry     beta=0.70
     Davidson diagonalization with overlap
     ethr =  8.71E-04,  avg # of iterations =  2.0

     total cpu time spent up to now is       12.0 secs

     total energy              =     -95.10709149 Ry
     Harris-Foulkes estimate   =     -95.11631780 Ry
     estimated scf accuracy    <       0.02166810 Ry

     iteration #  4     ecut=    40.00 Ry     beta=0.70
     Davidson diagonalization with overlap
     ethr =  2.41E-04,  avg # of iterations =  1.0

     total cpu time spent up to now is       12.6 secs

     total energy              =     -95.10798245 Ry
     Harris-Foulkes estimate   =     -95.10854380 Ry
     estimated scf accuracy    <       0.00435642 Ry

     iteration #  5     ecut=    40.00 Ry     beta=0.70
     Davidson diagonalization with overlap
     ethr =  4.84E-05,  avg # of iterations =  1.0

     total cpu time spent up to now is       13.2 secs

     total energy              =     -95.10719248 Ry
     Harris-Foulkes estimate   =     -95.10808000 Ry
     estimated scf accuracy    <       0.00309165 Ry

     iteration #  6     ecut=    40.00 Ry     beta=0.70
     Davidson diagonalization with overlap
     ethr =  3.44E-05,  avg # of iterations =  1.0

     total cpu time spent up to now is       13.9 secs

     total energy              =     -95.10649804 Ry
     Harris-Foulkes estimate   =     -95.10727528 Ry
     estimated scf accuracy    <       0.00132033 Ry

     iteration #  7     ecut=    40.00 Ry     beta=0.70
     Davidson diagonalization with overlap
     ethr =  1.47E-05,  avg # of iterations =  2.0

     total cpu time spent up to now is       14.6 secs

     total energy              =     -95.10669854 Ry
     Harris-Foulkes estimate   =     -95.10670338 Ry
     estimated scf accuracy    <       0.00003439 Ry

     iteration #  8     ecut=    40.00 Ry     beta=0.70
     Davidson diagonalization with overlap
     ethr =  3.82E-07,  avg # of iterations =  2.0

     total cpu time spent up to now is       15.4 secs

     total energy              =     -95.10668725 Ry
     Harris-Foulkes estimate   =     -95.10669915 Ry
     estimated scf accuracy    <       0.00002428 Ry

     iteration #  9     ecut=    40.00 Ry     beta=0.70
     Davidson diagonalization with overlap
     ethr =  2.70E-07,  avg # of iterations =  1.0

     total cpu time spent up to now is       16.0 secs

     total energy              =     -95.10668735 Ry
     Harris-Foulkes estimate   =     -95.10668942 Ry
     estimated scf accuracy    <       0.00000307 Ry

     iteration # 10     ecut=    40.00 Ry     beta=0.70
     Davidson diagonalization with overlap
     ethr =  3.41E-08,  avg # of iterations =  2.0

     total cpu time spent up to now is       16.8 secs

     total energy              =     -95.10668814 Ry
     Harris-Foulkes estimate   =     -95.10668814 Ry
     estimated scf accuracy    <          7.7E-09 Ry

     iteration # 11     ecut=    40.00 Ry     beta=0.70
     Davidson diagonalization with overlap
     ethr =  8.59E-11,  avg # of iterations =  2.1

     total cpu time spent up to now is       17.6 secs

     total energy              =     -95.10668814 Ry
     Harris-Foulkes estimate   =     -95.10668814 Ry
     estimated scf accuracy    <          2.8E-09 Ry

     iteration # 12     ecut=    40.00 Ry     beta=0.70
     Davidson diagonalization with overlap
     ethr =  3.08E-11,  avg # of iterations =  1.0

     total cpu time spent up to now is       18.2 secs

     total energy              =     -95.10668814 Ry
     Harris-Foulkes estimate   =     -95.10668814 Ry
     estimated scf accuracy    <          9.6E-10 Ry

     iteration # 13     ecut=    40.00 Ry     beta=0.70
     Davidson diagonalization with overlap
     ethr =  1.07E-11,  avg # of iterations =  1.0

     total cpu time spent up to now is       18.8 secs

     total energy              =     -95.10668814 Ry
     Harris-Foulkes estimate   =     -95.10668814 Ry
     estimated scf accuracy    <          6.6E-10 Ry

     iteration # 14     ecut=    40.00 Ry     beta=0.70
     Davidson diagonalization with overlap
     ethr =  7.34E-12,  avg # of iterations =  1.0

     total cpu time spent up to now is       19.5 secs

     total energy              =     -95.10668814 Ry
     Harris-Foulkes estimate   =     -95.10668814 Ry
     estimated scf accuracy    <          3.7E-10 Ry

     iteration # 15     ecut=    40.00 Ry     beta=0.70
     Davidson diagonalization with overlap
     ethr =  4.10E-12,  avg # of iterations =  2.0

     total cpu time spent up to now is       20.2 secs

     total energy              =     -95.10668814 Ry
     Harris-Foulkes estimate   =     -95.10668814 Ry
     estimated scf accuracy    <          1.2E-09 Ry

     iteration # 16     ecut=    40.00 Ry     beta=0.70
     Davidson diagonalization with overlap
     ethr =  4.10E-12,  avg # of iterations =  2.0

     total cpu time spent up to now is       21.0 secs

     End of self-consistent calculation

     Number of k-points >= 100: set verbosity='high' to print the bands.

     the Fermi energy is     1.7365 ev

!    total energy              =     -95.10668814 Ry
     Harris-Foulkes estimate   =     -95.10668814 Ry
     estimated scf accuracy    <          7.6E-12 Ry

     The total energy is the sum of the following terms:

     one-electron contribution =     -87.46743987 Ry
     hartree contribution      =      44.14719104 Ry
     xc contribution           =     -14.27252746 Ry
     ewald contribution        =     -37.51381769 Ry
     smearing contrib. (-TS)   =      -0.00009417 Ry

     convergence has been achieved in  16 iterations

     Forces acting on atoms (cartesian axes, Ry/au):

     atom    1 type  1   force =     0.00000000    0.00000000    0.00000000

     Total force =     0.000000     Total SCF correction =     0.000000


     Computing stress (Cartesian axis) and pressure

          total   stress  (Ry/bohr**3)                   (kbar)     P=    0.41
   0.00000276   0.00000000   0.00000000          0.41      0.00      0.00
   0.00000000   0.00000276   0.00000000          0.00      0.41      0.00
  -0.00000000   0.00000000   0.00000276         -0.00      0.00      0.41


     number of scf cycles    =   2
     number of bfgs steps    =   1

     enthalpy old            =     -94.9324628926 Ry
     enthalpy new            =     -94.9417756966 Ry

     CASE: enthalpy_new < enthalpy_old


     WARNING: bfgs curvature condition failed, Theta= 0.871
     new trust radius        =       0.0845295282 bohr
     new conv_thr            =            1.0E-12 Ry

     new unit-cell volume =    223.37681 a.u.^3 (    33.10103 Ang^3 )
     density =      1.15331 g/cm^3

CELL_PARAMETERS (alat=  8.00000000)
   0.477788884   0.477788884   0.477788884
  -0.477788884   0.477788884   0.477788884
  -0.477788884  -0.477788884   0.477788884

ATOMIC_POSITIONS (crystal)
Na       0.000000000   0.000000000   0.000000000



     Writing output data file na.bcc.save
     NEW-OLD atomic charge density approx. for the potential
     extrapolated charge    8.22625, renormalised to    9.00000

     total cpu time spent up to now is       22.6 secs

     per-process dynamical memory:    13.5 Mb

     Self-consistent Calculation

     iteration #  1     ecut=    40.00 Ry     beta=0.70
     Davidson diagonalization with overlap
     ethr =  1.00E-06,  avg # of iterations =  5.9

     total cpu time spent up to now is       24.3 secs

     total energy              =     -94.80045446 Ry
     Harris-Foulkes estimate   =    -100.86059721 Ry
     estimated scf accuracy    <       0.17718428 Ry

     iteration #  2     ecut=    40.00 Ry     beta=0.70
     Davidson diagonalization with overlap
     ethr =  1.97E-03,  avg # of iterations =  2.6

     total cpu time spent up to now is       25.3 secs

     total energy              =     -95.10292353 Ry
     Harris-Foulkes estimate   =     -95.22920048 Ry
     estimated scf accuracy    <       0.28388986 Ry

     iteration #  3     ecut=    40.00 Ry     beta=0.70
     Davidson diagonalization with overlap
     ethr =  1.97E-03,  avg # of iterations =  2.0

     total cpu time spent up to now is       26.0 secs

     total energy              =     -95.10767872 Ry
     Harris-Foulkes estimate   =     -95.12552619 Ry
     estimated scf accuracy    <       0.04430807 Ry

     iteration #  4     ecut=    40.00 Ry     beta=0.70
     Davidson diagonalization with overlap
     ethr =  4.92E-04,  avg # of iterations =  1.0

     total cpu time spent up to now is       26.7 secs

     total energy              =     -95.10757447 Ry
     Harris-Foulkes estimate   =     -95.11037604 Ry
     estimated scf accuracy    <       0.01010840 Ry

     iteration #  5     ecut=    40.00 Ry     beta=0.70
     Davidson diagonalization with overlap
     ethr =  1.12E-04,  avg # of iterations =  1.1

     total cpu time spent up to now is       27.3 secs

     total energy              =     -95.10689214 Ry
     Harris-Foulkes estimate   =     -95.10797667 Ry
     estimated scf accuracy    <       0.00418251 Ry

     iteration #  6     ecut=    40.00 Ry     beta=0.70
     Davidson diagonalization with overlap
     ethr =  4.65E-05,  avg # of iterations =  1.0

     total cpu time spent up to now is       27.9 secs

     total energy              =     -95.10550616 Ry
     Harris-Foulkes estimate   =     -95.10697797 Ry
     estimated scf accuracy    <       0.00202345 Ry

     iteration #  7     ecut=    40.00 Ry     beta=0.70
     Davidson diagonalization with overlap
     ethr =  2.25E-05,  avg # of iterations =  2.1

     total cpu time spent up to now is       28.7 secs

     total energy              =     -95.10609538 Ry
     Harris-Foulkes estimate   =     -95.10607281 Ry
     estimated scf accuracy    <       0.00004753 Ry

     iteration #  8     ecut=    40.00 Ry     beta=0.70
     Davidson diagonalization with overlap
     ethr =  5.28E-07,  avg # of iterations =  2.3

     total cpu time spent up to now is       29.5 secs

     total energy              =     -95.10603932 Ry
     Harris-Foulkes estimate   =     -95.10609782 Ry
     estimated scf accuracy    <       0.00010111 Ry

     iteration #  9     ecut=    40.00 Ry     beta=0.70
     Davidson diagonalization with overlap
     ethr =  5.28E-07,  avg # of iterations =  2.0

     total cpu time spent up to now is       30.3 secs

     total energy              =     -95.10605062 Ry
     Harris-Foulkes estimate   =     -95.10605323 Ry
     estimated scf accuracy    <       0.00000371 Ry

     iteration # 10     ecut=    40.00 Ry     beta=0.70
     Davidson diagonalization with overlap
     ethr =  4.12E-08,  avg # of iterations =  2.0

     total cpu time spent up to now is       31.0 secs

     total energy              =     -95.10605152 Ry
     Harris-Foulkes estimate   =     -95.10605155 Ry
     estimated scf accuracy    <       0.00000004 Ry

     iteration # 11     ecut=    40.00 Ry     beta=0.70
     Davidson diagonalization with overlap
     ethr =  4.06E-10,  avg # of iterations =  2.0

     total cpu time spent up to now is       31.7 secs

     total energy              =     -95.10605153 Ry
     Harris-Foulkes estimate   =     -95.10605155 Ry
     estimated scf accuracy    <       0.00000004 Ry

     iteration # 12     ecut=    40.00 Ry     beta=0.70
     Davidson diagonalization with overlap
     ethr =  4.06E-10,  avg # of iterations =  1.0

     total cpu time spent up to now is       32.4 secs

     total energy              =     -95.10605153 Ry
     Harris-Foulkes estimate   =     -95.10605154 Ry
     estimated scf accuracy    <          9.7E-09 Ry

     iteration # 13     ecut=    40.00 Ry     beta=0.70
     Davidson diagonalization with overlap
     ethr =  1.08E-10,  avg # of iterations =  1.0

     total cpu time spent up to now is       33.0 secs

     total energy              =     -95.10605153 Ry
     Harris-Foulkes estimate   =     -95.10605153 Ry
     estimated scf accuracy    <          1.9E-09 Ry

     iteration # 14     ecut=    40.00 Ry     beta=0.70
     Davidson diagonalization with overlap
     ethr =  2.14E-11,  avg # of iterations =  2.0

     total cpu time spent up to now is       33.7 secs

     total energy              =     -95.10605153 Ry
     Harris-Foulkes estimate   =     -95.10605153 Ry
     estimated scf accuracy    <          2.5E-11 Ry

     iteration # 15     ecut=    40.00 Ry     beta=0.70
     Davidson diagonalization with overlap
     ethr =  2.72E-13,  avg # of iterations =  2.0

     total cpu time spent up to now is       34.4 secs

     total energy              =     -95.10605153 Ry
     Harris-Foulkes estimate   =     -95.10605153 Ry
     estimated scf accuracy    <          3.6E-12 Ry

     iteration # 16     ecut=    40.00 Ry     beta=0.70
     Davidson diagonalization with overlap
     ethr =  1.00E-13,  avg # of iterations =  1.0

     total cpu time spent up to now is       35.0 secs

     End of self-consistent calculation

     Number of k-points >= 100: set verbosity='high' to print the bands.

     the Fermi energy is     2.1075 ev

!    total energy              =     -95.10605153 Ry
     Harris-Foulkes estimate   =     -95.10605153 Ry
     estimated scf accuracy    <          6.9E-14 Ry

     The total energy is the sum of the following terms:

     one-electron contribution =     -85.63460752 Ry
     hartree contribution      =      43.37258639 Ry
     xc contribution           =     -14.28376478 Ry
     ewald contribution        =     -38.56016739 Ry
     smearing contrib. (-TS)   =      -0.00009822 Ry

     convergence has been achieved in  16 iterations

     Forces acting on atoms (cartesian axes, Ry/au):

     atom    1 type  1   force =     0.00000000    0.00000000    0.00000000

     Total force =     0.000000     Total SCF correction =     0.000000


     Computing stress (Cartesian axis) and pressure

          total   stress  (Ry/bohr**3)                   (kbar)     P=    9.81
   0.00006667  -0.00000000   0.00000000          9.81     -0.00      0.00
  -0.00000000   0.00006667  -0.00000000         -0.00      9.81     -0.00
   0.00000000  -0.00000000   0.00006667          0.00     -0.00      9.81


     number of scf cycles    =   3
     number of bfgs steps    =   2

     enthalpy old            =     -94.9417756966 Ry
     enthalpy new            =     -94.9542030409 Ry

     CASE: enthalpy_new < enthalpy_old

     new trust radius        =       0.1250621471 bohr
     new conv_thr            =            1.0E-12 Ry

     new unit-cell volume =    196.49619 a.u.^3 (    29.11773 Ang^3 )
     density =      1.31108 g/cm^3

CELL_PARAMETERS (alat=  8.00000000)
   0.457798879   0.457798879   0.457798879
  -0.457798879   0.457798879   0.457798879
  -0.457798879  -0.457798879   0.457798879

ATOMIC_POSITIONS (crystal)
Na       0.000000000   0.000000000   0.000000000



     Writing output data file na.bcc.save
     NEW-OLD atomic charge density approx. for the potential
     extrapolated charge    7.76966, renormalised to    9.00000

     total cpu time spent up to now is       36.7 secs

     per-process dynamical memory:    13.5 Mb

     Self-consistent Calculation

     iteration #  1     ecut=    40.00 Ry     beta=0.70
     Davidson diagonalization with overlap
     ethr =  1.00E-06,  avg # of iterations =  6.5

     total cpu time spent up to now is       38.5 secs

     total energy              =     -94.42613885 Ry
     Harris-Foulkes estimate   =    -103.79750212 Ry
     estimated scf accuracy    <       0.40911311 Ry

     iteration #  2     ecut=    40.00 Ry     beta=0.70
     Davidson diagonalization with overlap
     ethr =  4.55E-03,  avg # of iterations =  2.5

     total cpu time spent up to now is       39.4 secs

     total energy              =     -95.08427883 Ry
     Harris-Foulkes estimate   =     -95.36410636 Ry
     estimated scf accuracy    <       0.61962009 Ry

     iteration #  3     ecut=    40.00 Ry     beta=0.70
     Davidson diagonalization with overlap
     ethr =  4.55E-03,  avg # of iterations =  2.0

     total cpu time spent up to now is       40.1 secs

     total energy              =     -95.10557841 Ry
     Harris-Foulkes estimate   =     -95.13882496 Ry
     estimated scf accuracy    <       0.08414476 Ry

     iteration #  4     ecut=    40.00 Ry     beta=0.70
     Davidson diagonalization with overlap
     ethr =  9.35E-04,  avg # of iterations =  1.0

     total cpu time spent up to now is       40.8 secs

     total energy              =     -95.10350612 Ry
     Harris-Foulkes estimate   =     -95.11086318 Ry
     estimated scf accuracy    <       0.01927806 Ry

     iteration #  5     ecut=    40.00 Ry     beta=0.70
     Davidson diagonalization with overlap
     ethr =  2.14E-04,  avg # of iterations =  1.1

     total cpu time spent up to now is       41.4 secs

     total energy              =     -95.10287667 Ry
     Harris-Foulkes estimate   =     -95.10477711 Ry
     estimated scf accuracy    <       0.00471220 Ry

     iteration #  6     ecut=    40.00 Ry     beta=0.70
     Davidson diagonalization with overlap
     ethr =  5.24E-05,  avg # of iterations =  1.3

     total cpu time spent up to now is       42.1 secs

     total energy              =     -95.10239244 Ry
     Harris-Foulkes estimate   =     -95.10316230 Ry
     estimated scf accuracy    <       0.00111764 Ry

     iteration #  7     ecut=    40.00 Ry     beta=0.70
     Davidson diagonalization with overlap
     ethr =  1.24E-05,  avg # of iterations =  2.3

     total cpu time spent up to now is       42.9 secs

     total energy              =     -95.10265243 Ry
     Harris-Foulkes estimate   =     -95.10265202 Ry
     estimated scf accuracy    <       0.00000199 Ry

     iteration #  8     ecut=    40.00 Ry     beta=0.70
     Davidson diagonalization with overlap
     ethr =  2.21E-08,  avg # of iterations =  2.3

     total cpu time spent up to now is       43.7 secs

     total energy              =     -95.10265091 Ry
     Harris-Foulkes estimate   =     -95.10265267 Ry
     estimated scf accuracy    <       0.00000295 Ry

     iteration #  9     ecut=    40.00 Ry     beta=0.70
     Davidson diagonalization with overlap
     ethr =  2.21E-08,  avg # of iterations =  2.0

     total cpu time spent up to now is       44.8 secs

     total energy              =     -95.10265134 Ry
     Harris-Foulkes estimate   =     -95.10265136 Ry
     estimated scf accuracy    <       0.00000007 Ry

     iteration # 10     ecut=    40.00 Ry     beta=0.70
     Davidson diagonalization with overlap
     ethr =  7.42E-10,  avg # of iterations =  2.9

     total cpu time spent up to now is       45.6 secs

     total energy              =     -95.10265131 Ry
     Harris-Foulkes estimate   =     -95.10265145 Ry
     estimated scf accuracy    <       0.00000026 Ry

     iteration # 11     ecut=    40.00 Ry     beta=0.70
     Davidson diagonalization with overlap
     ethr =  7.42E-10,  avg # of iterations =  2.0

     total cpu time spent up to now is       46.3 secs

     total energy              =     -95.10265134 Ry
     Harris-Foulkes estimate   =     -95.10265134 Ry
     estimated scf accuracy    <          9.9E-09 Ry

     iteration # 12     ecut=    40.00 Ry     beta=0.70
     Davidson diagonalization with overlap
     ethr =  1.10E-10,  avg # of iterations =  1.2

     total cpu time spent up to now is       47.1 secs

     total energy              =     -95.10265134 Ry
     Harris-Foulkes estimate   =     -95.10265134 Ry
     estimated scf accuracy    <          8.2E-10 Ry

     iteration # 13     ecut=    40.00 Ry     beta=0.70
     Davidson diagonalization with overlap
     ethr =  9.08E-12,  avg # of iterations =  2.0

     total cpu time spent up to now is       48.1 secs

     total energy              =     -95.10265134 Ry
     Harris-Foulkes estimate   =     -95.10265134 Ry
     estimated scf accuracy    <          1.7E-10 Ry

     iteration # 14     ecut=    40.00 Ry     beta=0.70
     Davidson diagonalization with overlap
     ethr =  1.85E-12,  avg # of iterations =  2.0

     total cpu time spent up to now is       48.8 secs

     total energy              =     -95.10265134 Ry
     Harris-Foulkes estimate   =     -95.10265134 Ry
     estimated scf accuracy    <          2.0E-11 Ry

     iteration # 15     ecut=    40.00 Ry     beta=0.70
     Davidson diagonalization with overlap
     ethr =  2.25E-13,  avg # of iterations =  1.0

     total cpu time spent up to now is       49.4 secs

     End of self-consistent calculation

     Number of k-points >= 100: set verbosity='high' to print the bands.

     the Fermi energy is     2.7539 ev

!    total energy              =     -95.10265134 Ry
     Harris-Foulkes estimate   =     -95.10265134 Ry
     estimated scf accuracy    <          1.1E-13 Ry

     The total energy is the sum of the following terms:

     one-electron contribution =     -82.69522021 Ry
     hartree contribution      =      42.13889926 Ry
     xc contribution           =     -14.30231188 Ry
     ewald contribution        =     -40.24391534 Ry
     smearing contrib. (-TS)   =      -0.00010318 Ry

     convergence has been achieved in  15 iterations

     Forces acting on atoms (cartesian axes, Ry/au):

     atom    1 type  1   force =     0.00000000    0.00000000    0.00000000

     Total force =     0.000000     Total SCF correction =     0.000000


     Computing stress (Cartesian axis) and pressure

          total   stress  (Ry/bohr**3)                   (kbar)     P=   28.80
   0.00019578   0.00000000  -0.00000000         28.80      0.00     -0.00
   0.00000000   0.00019578   0.00000000          0.00     28.80      0.00
  -0.00000000   0.00000000   0.00019578         -0.00      0.00     28.80


     number of scf cycles    =   4
     number of bfgs steps    =   3

     enthalpy old            =     -94.9542030409 Ry
     enthalpy new            =     -94.9690759242 Ry

     CASE: enthalpy_new < enthalpy_old

     new trust radius        =       0.1836269757 bohr
     new conv_thr            =            1.0E-12 Ry

     new unit-cell volume =    160.35944 a.u.^3 (    23.76282 Ang^3 )
     density =      1.60653 g/cm^3

CELL_PARAMETERS (alat=  8.00000000)
   0.427813872   0.427813872   0.427813872
  -0.427813872   0.427813872   0.427813872
  -0.427813872  -0.427813872   0.427813872

ATOMIC_POSITIONS (crystal)
Na       0.000000000   0.000000000   0.000000000



     Writing output data file na.bcc.save
     NEW-OLD atomic charge density approx. for the potential
     extrapolated charge    6.97328, renormalised to    9.00000

     total cpu time spent up to now is       51.1 secs

     per-process dynamical memory:    13.5 Mb

     Self-consistent Calculation

     iteration #  1     ecut=    40.00 Ry     beta=0.70
     Davidson diagonalization with overlap
     ethr =  1.00E-06,  avg # of iterations =  7.0

     total cpu time spent up to now is       52.9 secs

     total energy              =     -93.58790080 Ry
     Harris-Foulkes estimate   =    -108.12815524 Ry
     estimated scf accuracy    <       1.01008405 Ry

     iteration #  2     ecut=    40.00 Ry     beta=0.70
     Davidson diagonalization with overlap
     ethr =  1.00E-02,  avg # of iterations =  2.6

     total cpu time spent up to now is       53.8 secs

     total energy              =     -95.00702814 Ry
     Harris-Foulkes estimate   =     -95.62052533 Ry
     estimated scf accuracy    <       1.30837714 Ry

     iteration #  3     ecut=    40.00 Ry     beta=0.70
     Davidson diagonalization with overlap
     ethr =  1.00E-02,  avg # of iterations =  2.0

     total cpu time spent up to now is       54.5 secs

     total energy              =     -95.09428873 Ry
     Harris-Foulkes estimate   =     -95.14536937 Ry
     estimated scf accuracy    <       0.12993885 Ry

     iteration #  4     ecut=    40.00 Ry     beta=0.70
     Davidson diagonalization with overlap
     ethr =  1.44E-03,  avg # of iterations =  1.1

     total cpu time spent up to now is       55.2 secs

     total energy              =     -95.08879251 Ry
     Harris-Foulkes estimate   =     -95.10273016 Ry
     estimated scf accuracy    <       0.02905894 Ry

     iteration #  5     ecut=    40.00 Ry     beta=0.70
     Davidson diagonalization with overlap
     ethr =  3.23E-04,  avg # of iterations =  2.0

     total cpu time spent up to now is       55.9 secs

     total energy              =     -95.08975464 Ry
     Harris-Foulkes estimate   =     -95.09192443 Ry
     estimated scf accuracy    <       0.00324170 Ry

     iteration #  6     ecut=    40.00 Ry     beta=0.70
     Davidson diagonalization with overlap
     ethr =  3.60E-05,  avg # of iterations =  2.3

     total cpu time spent up to now is       56.7 secs

     total energy              =     -95.09053746 Ry
     Harris-Foulkes estimate   =     -95.09053999 Ry
     estimated scf accuracy    <       0.00000352 Ry

     iteration #  7     ecut=    40.00 Ry     beta=0.70
     Davidson diagonalization with overlap
     ethr =  3.91E-08,  avg # of iterations =  2.7

     total cpu time spent up to now is       57.8 secs

     total energy              =     -95.09054018 Ry
     Harris-Foulkes estimate   =     -95.09053981 Ry
     estimated scf accuracy    <       0.00000117 Ry

     iteration #  8     ecut=    40.00 Ry     beta=0.70
     Davidson diagonalization with overlap
     ethr =  1.30E-08,  avg # of iterations =  1.0

     total cpu time spent up to now is       58.4 secs

     total energy              =     -95.09053879 Ry
     Harris-Foulkes estimate   =     -95.09054022 Ry
     estimated scf accuracy    <       0.00000211 Ry

     iteration #  9     ecut=    40.00 Ry     beta=0.70
     Davidson diagonalization with overlap
     ethr =  1.30E-08,  avg # of iterations =  2.0

     total cpu time spent up to now is       59.1 secs

     total energy              =     -95.09053930 Ry
     Harris-Foulkes estimate   =     -95.09053931 Ry
     estimated scf accuracy    <       0.00000002 Ry

     iteration # 10     ecut=    40.00 Ry     beta=0.70
     Davidson diagonalization with overlap
     ethr =  2.38E-10,  avg # of iterations =  2.0

     total cpu time spent up to now is       59.9 secs

     total energy              =     -95.09053930 Ry
     Harris-Foulkes estimate   =     -95.09053931 Ry
     estimated scf accuracy    <          7.3E-10 Ry

     iteration # 11     ecut=    40.00 Ry     beta=0.70
     Davidson diagonalization with overlap
     ethr =  8.12E-12,  avg # of iterations =  2.0

     total cpu time spent up to now is       60.6 secs

     total energy              =     -95.09053930 Ry
     Harris-Foulkes estimate   =     -95.09053931 Ry
     estimated scf accuracy    <          6.0E-11 Ry

     iteration # 12     ecut=    40.00 Ry     beta=0.70
     Davidson diagonalization with overlap
     ethr =  6.65E-13,  avg # of iterations =  1.0

     total cpu time spent up to now is       61.2 secs

     total energy              =     -95.09053930 Ry
     Harris-Foulkes estimate   =     -95.09053930 Ry
     estimated scf accuracy    <          1.1E-11 Ry

     iteration # 13     ecut=    40.00 Ry     beta=0.70
     Davidson diagonalization with overlap
     ethr =  1.24E-13,  avg # of iterations =  2.0

     total cpu time spent up to now is       62.0 secs

     End of self-consistent calculation

     Number of k-points >= 100: set verbosity='high' to print the bands.

     the Fermi energy is     3.9833 ev

!    total energy              =     -95.09053930 Ry
     Harris-Foulkes estimate   =     -95.09053930 Ry
     estimated scf accuracy    <          4.9E-13 Ry

     The total energy is the sum of the following terms:

     one-electron contribution =     -77.79899369 Ry
     hartree contribution      =      40.10789514 Ry
     xc contribution           =     -14.33476791 Ry
     ewald contribution        =     -43.06456738 Ry
     smearing contrib. (-TS)   =      -0.00010546 Ry

     convergence has been achieved in  13 iterations

     Forces acting on atoms (cartesian axes, Ry/au):

     atom    1 type  1   force =     0.00000000    0.00000000    0.00000000

     Total force =     0.000000     Total SCF correction =     0.000000


     Computing stress (Cartesian axis) and pressure

          total   stress  (Ry/bohr**3)                   (kbar)     P=   75.86
   0.00051568  -0.00000000   0.00000000         75.86     -0.00      0.00
   0.00000000   0.00051568   0.00000000          0.00     75.86      0.00
  -0.00000000   0.00000000   0.00051568         -0.00      0.00     75.86


     number of scf cycles    =   5
     number of bfgs steps    =   4

     enthalpy old            =     -94.9690759242 Ry
     enthalpy new            =     -94.9815291524 Ry

     CASE: enthalpy_new < enthalpy_old

     new trust radius        =       0.0746684312 bohr
     new conv_thr            =            1.0E-12 Ry

     new unit-cell volume =    146.59024 a.u.^3 (    21.72243 Ang^3 )
     density =      1.75744 g/cm^3

CELL_PARAMETERS (alat=  8.00000000)
   0.415200982   0.415200982   0.415200982
  -0.415200982   0.415200982   0.415200982
  -0.415200982  -0.415200982   0.415200982

ATOMIC_POSITIONS (crystal)
Na       0.000000000   0.000000000   0.000000000



     Writing output data file na.bcc.save
     NEW-OLD atomic charge density approx. for the potential
     extrapolated charge    8.15522, renormalised to    9.00000

     total cpu time spent up to now is       63.7 secs

     per-process dynamical memory:    13.5 Mb

     Self-consistent Calculation

     iteration #  1     ecut=    40.00 Ry     beta=0.70
     Davidson diagonalization with overlap
     ethr =  1.00E-06,  avg # of iterations =  5.1

     total cpu time spent up to now is       65.1 secs

     total energy              =     -94.74013778 Ry
     Harris-Foulkes estimate   =    -100.57886920 Ry
     estimated scf accuracy    <       0.20107889 Ry

     iteration #  2     ecut=    40.00 Ry     beta=0.70
     Davidson diagonalization with overlap
     ethr =  2.23E-03,  avg # of iterations =  2.5

     total cpu time spent up to now is       66.0 secs

     total energy              =     -95.07756964 Ry
     Harris-Foulkes estimate   =     -95.21944971 Ry
     estimated scf accuracy    <       0.31881885 Ry

     iteration #  3     ecut=    40.00 Ry     beta=0.70
     Davidson diagonalization with overlap
     ethr =  2.23E-03,  avg # of iterations =  1.9

     total cpu time spent up to now is       66.7 secs

     total energy              =     -95.08168683 Ry
     Harris-Foulkes estimate   =     -95.10314750 Ry
     estimated scf accuracy    <       0.04929005 Ry

     iteration #  4     ecut=    40.00 Ry     beta=0.70
     Davidson diagonalization with overlap
     ethr =  5.48E-04,  avg # of iterations =  1.1

     total cpu time spent up to now is       67.4 secs

     total energy              =     -95.08244673 Ry
     Harris-Foulkes estimate   =     -95.08563511 Ry
     estimated scf accuracy    <       0.00840654 Ry

     iteration #  5     ecut=    40.00 Ry     beta=0.70
     Davidson diagonalization with overlap
     ethr =  9.34E-05,  avg # of iterations =  1.1

     total cpu time spent up to now is       68.1 secs

     total energy              =     -95.08289795 Ry
     Harris-Foulkes estimate   =     -95.08304042 Ry
     estimated scf accuracy    <       0.00217036 Ry

     iteration #  6     ecut=    40.00 Ry     beta=0.70
     Davidson diagonalization with overlap
     ethr =  2.41E-05,  avg # of iterations =  1.1

     total cpu time spent up to now is       68.7 secs

     total energy              =     -95.08170822 Ry
     Harris-Foulkes estimate   =     -95.08291685 Ry
     estimated scf accuracy    <       0.00199246 Ry

     iteration #  7     ecut=    40.00 Ry     beta=0.70
     Davidson diagonalization with overlap
     ethr =  2.21E-05,  avg # of iterations =  2.0

     total cpu time spent up to now is       69.4 secs

     total energy              =     -95.08204188 Ry
     Harris-Foulkes estimate   =     -95.08205399 Ry
     estimated scf accuracy    <       0.00002349 Ry

     iteration #  8     ecut=    40.00 Ry     beta=0.70
     Davidson diagonalization with overlap
     ethr =  2.61E-07,  avg # of iterations =  2.8

     total cpu time spent up to now is       70.4 secs

     total energy              =     -95.08202035 Ry
     Harris-Foulkes estimate   =     -95.08208788 Ry
     estimated scf accuracy    <       0.00009816 Ry

     iteration #  9     ecut=    40.00 Ry     beta=0.70
     Davidson diagonalization with overlap
     ethr =  2.61E-07,  avg # of iterations =  2.0

     total cpu time spent up to now is       71.2 secs

     total energy              =     -95.08204367 Ry
     Harris-Foulkes estimate   =     -95.08204398 Ry
     estimated scf accuracy    <       0.00000061 Ry

     iteration # 10     ecut=    40.00 Ry     beta=0.70
     Davidson diagonalization with overlap
     ethr =  6.81E-09,  avg # of iterations =  1.9

     total cpu time spent up to now is       71.8 secs

     total energy              =     -95.08204371 Ry
     Harris-Foulkes estimate   =     -95.08204374 Ry
     estimated scf accuracy    <       0.00000007 Ry

     iteration # 11     ecut=    40.00 Ry     beta=0.70
     Davidson diagonalization with overlap
     ethr =  8.09E-10,  avg # of iterations =  1.0

     total cpu time spent up to now is       72.5 secs

     total energy              =     -95.08204371 Ry
     Harris-Foulkes estimate   =     -95.08204371 Ry
     estimated scf accuracy    <       0.00000001 Ry

     iteration # 12     ecut=    40.00 Ry     beta=0.70
     Davidson diagonalization with overlap
     ethr =  1.12E-10,  avg # of iterations =  1.0

     total cpu time spent up to now is       73.1 secs

     total energy              =     -95.08204371 Ry
     Harris-Foulkes estimate   =     -95.08204371 Ry
     estimated scf accuracy    <          4.2E-09 Ry

     iteration # 13     ecut=    40.00 Ry     beta=0.70
     Davidson diagonalization with overlap
     ethr =  4.67E-11,  avg # of iterations =  2.0

     total cpu time spent up to now is       73.8 secs

     total energy              =     -95.08204371 Ry
     Harris-Foulkes estimate   =     -95.08204371 Ry
     estimated scf accuracy    <          2.5E-10 Ry

     iteration # 14     ecut=    40.00 Ry     beta=0.70
     Davidson diagonalization with overlap
     ethr =  2.74E-12,  avg # of iterations =  1.0

     total cpu time spent up to now is       74.4 secs

     total energy              =     -95.08204371 Ry
     Harris-Foulkes estimate   =     -95.08204371 Ry
     estimated scf accuracy    <          1.5E-11 Ry

     iteration # 15     ecut=    40.00 Ry     beta=0.70
     Davidson diagonalization with overlap
     ethr =  1.72E-13,  avg # of iterations =  1.0

     total cpu time spent up to now is       75.0 secs

     total energy              =     -95.08204371 Ry
     Harris-Foulkes estimate   =     -95.08204371 Ry
     estimated scf accuracy    <          3.9E-12 Ry

     iteration # 16     ecut=    40.00 Ry     beta=0.70
     Davidson diagonalization with overlap
     ethr =  1.00E-13,  avg # of iterations =  1.0

     total cpu time spent up to now is       75.6 secs

     End of self-consistent calculation

     Number of k-points >= 100: set verbosity='high' to print the bands.

     the Fermi energy is     4.6202 ev

!    total energy              =     -95.08204371 Ry
     Harris-Foulkes estimate   =     -95.08204371 Ry
     estimated scf accuracy    <          1.3E-13 Ry

     The total energy is the sum of the following terms:

     one-electron contribution =     -75.54048772 Ry
     hartree contribution      =      39.18191738 Ry
     xc contribution           =     -14.35059531 Ry
     ewald contribution        =     -44.37277401 Ry
     smearing contrib. (-TS)   =      -0.00010405 Ry

     convergence has been achieved in  16 iterations

     Forces acting on atoms (cartesian axes, Ry/au):

     atom    1 type  1   force =     0.00000000    0.00000000    0.00000000

     Total force =     0.000000     Total SCF correction =     0.000000


     Computing stress (Cartesian axis) and pressure

          total   stress  (Ry/bohr**3)                   (kbar)     P=  107.64
   0.00073170   0.00000000  -0.00000000        107.64      0.00     -0.00
   0.00000000   0.00073170   0.00000000          0.00    107.64      0.00
  -0.00000000   0.00000000   0.00073170         -0.00      0.00    107.64


     number of scf cycles    =   6
     number of bfgs steps    =   5

     enthalpy old            =     -94.9815291524 Ry
     enthalpy new            =     -94.9823936696 Ry

     CASE: enthalpy_new < enthalpy_old

     new trust radius        =       0.0168859561 bohr
     new conv_thr            =            1.0E-12 Ry

     new unit-cell volume =    149.67837 a.u.^3 (    22.18005 Ang^3 )
     density =      1.72118 g/cm^3

CELL_PARAMETERS (alat=  8.00000000)
   0.418096335   0.418096335   0.418096335
  -0.418096335   0.418096335   0.418096335
  -0.418096335  -0.418096335   0.418096335

ATOMIC_POSITIONS (crystal)
Na       0.000000000   0.000000000   0.000000000



     Writing output data file na.bcc.save
     NEW-OLD atomic charge density approx. for the potential
     extrapolated charge    9.18556, renormalised to    9.00000

     total cpu time spent up to now is       77.3 secs

     per-process dynamical memory:    13.5 Mb

     Self-consistent Calculation

     iteration #  1     ecut=    40.00 Ry     beta=0.70
     Davidson diagonalization with overlap
     ethr =  1.00E-06,  avg # of iterations =  3.4

     total cpu time spent up to now is       78.5 secs

     total energy              =     -95.06107934 Ry
     Harris-Foulkes estimate   =     -93.84065187 Ry
     estimated scf accuracy    <       0.01294464 Ry

     iteration #  2     ecut=    40.00 Ry     beta=0.70
     Davidson diagonalization with overlap
     ethr =  1.44E-04,  avg # of iterations =  2.9

     total cpu time spent up to now is       79.5 secs

     total energy              =     -95.08480015 Ry
     Harris-Foulkes estimate   =     -95.09431822 Ry
     estimated scf accuracy    <       0.02173637 Ry

     iteration #  3     ecut=    40.00 Ry     beta=0.70
     Davidson diagonalization with overlap
     ethr =  1.44E-04,  avg # of iterations =  1.2

     total cpu time spent up to now is       80.1 secs

     total energy              =     -95.08486989 Ry
     Harris-Foulkes estimate   =     -95.08617156 Ry
     estimated scf accuracy    <       0.00440671 Ry

     iteration #  4     ecut=    40.00 Ry     beta=0.70
     Davidson diagonalization with overlap
     ethr =  4.90E-05,  avg # of iterations =  1.0

     total cpu time spent up to now is       80.7 secs

     total energy              =     -95.08463104 Ry
     Harris-Foulkes estimate   =     -95.08502907 Ry
     estimated scf accuracy    <       0.00174306 Ry

     iteration #  5     ecut=    40.00 Ry     beta=0.70
     Davidson diagonalization with overlap
     ethr =  1.94E-05,  avg # of iterations =  1.0

     total cpu time spent up to now is       81.4 secs

     total energy              =     -95.08440162 Ry
     Harris-Foulkes estimate   =     -95.08466023 Ry
     estimated scf accuracy    <       0.00094810 Ry

     iteration #  6     ecut=    40.00 Ry     beta=0.70
     Davidson diagonalization with overlap
     ethr =  1.05E-05,  avg # of iterations =  1.0

     total cpu time spent up to now is       82.0 secs

     total energy              =     -95.08419352 Ry
     Harris-Foulkes estimate   =     -95.08442049 Ry
     estimated scf accuracy    <       0.00044580 Ry

     iteration #  7     ecut=    40.00 Ry     beta=0.70
     Davidson diagonalization with overlap
     ethr =  4.95E-06,  avg # of iterations =  1.0

     total cpu time spent up to now is       82.6 secs

     total energy              =     -95.08420968 Ry
     Harris-Foulkes estimate   =     -95.08423604 Ry
     estimated scf accuracy    <       0.00004806 Ry

     iteration #  8     ecut=    40.00 Ry     beta=0.70
     Davidson diagonalization with overlap
     ethr =  5.34E-07,  avg # of iterations =  2.0

     total cpu time spent up to now is       83.3 secs

     total energy              =     -95.08421565 Ry
     Harris-Foulkes estimate   =     -95.08421721 Ry
     estimated scf accuracy    <       0.00000290 Ry

     iteration #  9     ecut=    40.00 Ry     beta=0.70
     Davidson diagonalization with overlap
     ethr =  3.22E-08,  avg # of iterations =  1.7

     total cpu time spent up to now is       84.1 secs

     total energy              =     -95.08421597 Ry
     Harris-Foulkes estimate   =     -95.08421602 Ry
     estimated scf accuracy    <       0.00000023 Ry

     iteration # 10     ecut=    40.00 Ry     beta=0.70
     Davidson diagonalization with overlap
     ethr =  2.50E-09,  avg # of iterations =  1.6

     total cpu time spent up to now is       84.8 secs

     total energy              =     -95.08421590 Ry
     Harris-Foulkes estimate   =     -95.08421598 Ry
     estimated scf accuracy    <       0.00000010 Ry

     iteration # 11     ecut=    40.00 Ry     beta=0.70
     Davidson diagonalization with overlap
     ethr =  1.14E-09,  avg # of iterations =  2.0

     total cpu time spent up to now is       85.6 secs

     total energy              =     -95.08421594 Ry
     Harris-Foulkes estimate   =     -95.08421594 Ry
     estimated scf accuracy    <       0.00000001 Ry

     iteration # 12     ecut=    40.00 Ry     beta=0.70
     Davidson diagonalization with overlap
     ethr =  1.36E-10,  avg # of iterations =  1.0

     total cpu time spent up to now is       86.2 secs

     total energy              =     -95.08421594 Ry
     Harris-Foulkes estimate   =     -95.08421594 Ry
     estimated scf accuracy    <          2.6E-09 Ry

     iteration # 13     ecut=    40.00 Ry     beta=0.70
     Davidson diagonalization with overlap
     ethr =  2.94E-11,  avg # of iterations =  2.0

     total cpu time spent up to now is       86.9 secs

     total energy              =     -95.08421594 Ry
     Harris-Foulkes estimate   =     -95.08421594 Ry
     estimated scf accuracy    <          8.6E-11 Ry

     iteration # 14     ecut=    40.00 Ry     beta=0.70
     Davidson diagonalization with overlap
     ethr =  9.55E-13,  avg # of iterations =  2.3

     total cpu time spent up to now is       87.8 secs

     total energy              =     -95.08421594 Ry
     Harris-Foulkes estimate   =     -95.08421594 Ry
     estimated scf accuracy    <          6.2E-10 Ry

     iteration # 15     ecut=    40.00 Ry     beta=0.70
     Davidson diagonalization with overlap
     ethr =  9.55E-13,  avg # of iterations =  2.3

     total cpu time spent up to now is       88.6 secs

     total energy              =     -95.08421594 Ry
     Harris-Foulkes estimate   =     -95.08421594 Ry
     estimated scf accuracy    <          2.4E-11 Ry

     iteration # 16     ecut=    40.00 Ry     beta=0.70
     Davidson diagonalization with overlap
     ethr =  2.63E-13,  avg # of iterations =  1.0

     total cpu time spent up to now is       89.3 secs

     End of self-consistent calculation

     Number of k-points >= 100: set verbosity='high' to print the bands.

     the Fermi energy is     4.4666 ev

!    total energy              =     -95.08421594 Ry
     Harris-Foulkes estimate   =     -95.08421594 Ry
     estimated scf accuracy    <          6.2E-13 Ry

     The total energy is the sum of the following terms:

     one-electron contribution =     -76.07026769 Ry
     hartree contribution      =      39.39846956 Ry
     xc contribution           =     -14.34682455 Ry
     ewald contribution        =     -44.06548876 Ry
     smearing contrib. (-TS)   =      -0.00010450 Ry

     convergence has been achieved in  16 iterations

     Forces acting on atoms (cartesian axes, Ry/au):

     atom    1 type  1   force =     0.00000000    0.00000000    0.00000000

     Total force =     0.000000     Total SCF correction =     0.000000


     Computing stress (Cartesian axis) and pressure

          total   stress  (Ry/bohr**3)                   (kbar)     P=   99.42
   0.00067585   0.00000000  -0.00000000         99.42      0.00     -0.00
   0.00000000   0.00067585   0.00000000          0.00     99.42      0.00
  -0.00000000   0.00000000   0.00067585         -0.00      0.00     99.42


     number of scf cycles    =   7
     number of bfgs steps    =   6

     enthalpy old            =     -94.9823936696 Ry
     enthalpy new            =     -94.9824666338 Ry

     CASE: enthalpy_new < enthalpy_old

     new trust radius        =       0.0012086414 bohr
     new conv_thr            =            1.0E-12 Ry

     new unit-cell volume =    149.45667 a.u.^3 (    22.14719 Ang^3 )
     density =      1.72373 g/cm^3

CELL_PARAMETERS (alat=  8.00000000)
   0.417889814   0.417889814   0.417889814
  -0.417889814   0.417889814   0.417889814
  -0.417889814  -0.417889814   0.417889814

ATOMIC_POSITIONS (crystal)
Na       0.000000000   0.000000000   0.000000000



     Writing output data file na.bcc.save
     NEW-OLD atomic charge density approx. for the potential
     extrapolated charge    8.98666, renormalised to    9.00000

     total cpu time spent up to now is       90.9 secs

     per-process dynamical memory:    13.5 Mb

     Self-consistent Calculation

     iteration #  1     ecut=    40.00 Ry     beta=0.70
     Davidson diagonalization with overlap
     ethr =  1.00E-06,  avg # of iterations =  2.0

     total cpu time spent up to now is       91.8 secs

     total energy              =     -95.08395483 Ry
     Harris-Foulkes estimate   =     -95.17317056 Ry
     estimated scf accuracy    <       0.00006227 Ry

     iteration #  2     ecut=    40.00 Ry     beta=0.70
     Davidson diagonalization with overlap
     ethr =  6.92E-07,  avg # of iterations =  2.9

     total cpu time spent up to now is       92.6 secs

     total energy              =     -95.08406763 Ry
     Harris-Foulkes estimate   =     -95.08411334 Ry
     estimated scf accuracy    <       0.00010434 Ry

     iteration #  3     ecut=    40.00 Ry     beta=0.70
     Davidson diagonalization with overlap
     ethr =  6.92E-07,  avg # of iterations =  1.3

     total cpu time spent up to now is       93.3 secs

     total energy              =     -95.08406980 Ry
     Harris-Foulkes estimate   =     -95.08407450 Ry
     estimated scf accuracy    <       0.00002028 Ry

     iteration #  4     ecut=    40.00 Ry     beta=0.70
     Davidson diagonalization with overlap
     ethr =  2.25E-07,  avg # of iterations =  1.0

     total cpu time spent up to now is       93.9 secs

     total energy              =     -95.08406759 Ry
     Harris-Foulkes estimate   =     -95.08407036 Ry
     estimated scf accuracy    <       0.00001011 Ry

     iteration #  5     ecut=    40.00 Ry     beta=0.70
     Davidson diagonalization with overlap
     ethr =  1.12E-07,  avg # of iterations =  1.0

     total cpu time spent up to now is       94.5 secs

     total energy              =     -95.08406648 Ry
     Harris-Foulkes estimate   =     -95.08406781 Ry
     estimated scf accuracy    <       0.00000469 Ry

     iteration #  6     ecut=    40.00 Ry     beta=0.70
     Davidson diagonalization with overlap
     ethr =  5.21E-08,  avg # of iterations =  1.0

     total cpu time spent up to now is       95.1 secs

     total energy              =     -95.08406566 Ry
     Harris-Foulkes estimate   =     -95.08406660 Ry
     estimated scf accuracy    <       0.00000204 Ry

     iteration #  7     ecut=    40.00 Ry     beta=0.70
     Davidson diagonalization with overlap
     ethr =  2.27E-08,  avg # of iterations =  1.0

     total cpu time spent up to now is       95.7 secs

     total energy              =     -95.08406559 Ry
     Harris-Foulkes estimate   =     -95.08406581 Ry
     estimated scf accuracy    <       0.00000034 Ry

     iteration #  8     ecut=    40.00 Ry     beta=0.70
     Davidson diagonalization with overlap
     ethr =  3.82E-09,  avg # of iterations =  2.0

     total cpu time spent up to now is       96.5 secs

     total energy              =     -95.08406566 Ry
     Harris-Foulkes estimate   =     -95.08406566 Ry
     estimated scf accuracy    <          2.5E-09 Ry

     iteration #  9     ecut=    40.00 Ry     beta=0.70
     Davidson diagonalization with overlap
     ethr =  2.77E-11,  avg # of iterations =  1.8

     total cpu time spent up to now is       97.3 secs

     total energy              =     -95.08406566 Ry
     Harris-Foulkes estimate   =     -95.08406566 Ry
     estimated scf accuracy    <          4.4E-10 Ry

     iteration # 10     ecut=    40.00 Ry     beta=0.70
     Davidson diagonalization with overlap
     ethr =  4.94E-12,  avg # of iterations =  1.0

     total cpu time spent up to now is       98.0 secs

     total energy              =     -95.08406566 Ry
     Harris-Foulkes estimate   =     -95.08406566 Ry
     estimated scf accuracy    <          6.7E-10 Ry

     iteration # 11     ecut=    40.00 Ry     beta=0.70
     Davidson diagonalization with overlap
     ethr =  4.94E-12,  avg # of iterations =  2.0

     total cpu time spent up to now is       98.7 secs

     End of self-consistent calculation

     Number of k-points >= 100: set verbosity='high' to print the bands.

     the Fermi energy is     4.4774 ev

!    total energy              =     -95.08406566 Ry
     Harris-Foulkes estimate   =     -95.08406566 Ry
     estimated scf accuracy    <          8.7E-13 Ry

     The total energy is the sum of the following terms:

     one-electron contribution =     -76.03271439 Ry
     hartree contribution      =      39.38311127 Ry
     xc contribution           =     -14.34709217 Ry
     ewald contribution        =     -44.08726591 Ry
     smearing contrib. (-TS)   =      -0.00010447 Ry

     convergence has been achieved in  11 iterations

     Forces acting on atoms (cartesian axes, Ry/au):

     atom    1 type  1   force =     0.00000000    0.00000000    0.00000000

     Total force =     0.000000     Total SCF correction =     0.000000


     Computing stress (Cartesian axis) and pressure

          total   stress  (Ry/bohr**3)                   (kbar)     P=  100.01
   0.00067985  -0.00000000   0.00000000        100.01     -0.00      0.00
  -0.00000000   0.00067985  -0.00000000         -0.00    100.01     -0.00
   0.00000000  -0.00000000   0.00067985          0.00     -0.00    100.01


     bfgs converged in   8 scf cycles and   7 bfgs steps
     (criteria: energy <  1.0E-04 Ry, force <  1.0E-03Ry/Bohr, cell <  5.0E-02kbar)

     End of BFGS Geometry Optimization

     Final enthalpy =     -94.9824670640 Ry
Begin final coordinates
     new unit-cell volume =    149.45667 a.u.^3 (    22.14719 Ang^3 )
     density =      1.72373 g/cm^3

CELL_PARAMETERS (alat=  8.00000000)
   0.417889814   0.417889814   0.417889814
  -0.417889814   0.417889814   0.417889814
  -0.417889814  -0.417889814   0.417889814

ATOMIC_POSITIONS (crystal)
Na       0.000000000   0.000000000   0.000000000
End final coordinates



     A final scf calculation at the relaxed structure.
     The G-vectors are recalculated for the final unit cell
     Results may differ from those at the preceding step.

     Parallelization info
     --------------------
     sticks:   dense  smooth     PW     G-vecs:    dense   smooth      PW
     Min          50      24      8                  911      315      59
     Max          51      25      9                  912      319      62
     Sum         809     399    129                14579     5089     959



     bravais-lattice index     =            3
     lattice parameter (alat)  =       8.0000  a.u.
     unit-cell volume          =     149.4567 (a.u.)^3
     number of atoms/cell      =            1
     number of atomic types    =            1
     number of electrons       =         9.00
     number of Kohn-Sham states=            9
     kinetic-energy cutoff     =      40.0000  Ry
     charge density cutoff     =     320.0000  Ry
     convergence threshold     =      1.0E-12
     mixing beta               =       0.7000
     number of iterations used =            8  plain     mixing
     Exchange-correlation      = SLA  PW   PBE  PBE ( 1  4  3  4 0 0)

     celldm(1)=   8.000000  celldm(2)=   0.000000  celldm(3)=   0.000000
     celldm(4)=   0.000000  celldm(5)=   0.000000  celldm(6)=   0.000000

     crystal axes: (cart. coord. in units of alat)
               a(1) = (   0.417890   0.417890   0.417890 )  
               a(2) = (  -0.417890   0.417890   0.417890 )  
               a(3) = (  -0.417890  -0.417890   0.417890 )  

     reciprocal axes: (cart. coord. in units 2 pi/alat)
               b(1) = (  1.196488  0.000000  1.196488 )  
               b(2) = ( -1.196488  1.196488  0.000000 )  
               b(3) = (  0.000000 -1.196488  1.196488 )  


     PseudoPot. # 1 for Na read from file:
     /home/s1333534/quantum_espresso/qe-6.1/pseudo/Na_pbe_v1.uspp.F.UPF
     MD5 check sum: 76a99c7e9422403d3e93cbc85ab7bccb
     Pseudo is Ultrasoft, Zval =  9.0
     Generated by new atomic code, or converted to UPF format
     Using radial grid of  819 points,  5 beta functions with: 
                l(1) =   0
                l(2) =   0
                l(3) =   1
                l(4) =   1
                l(5) =   2
     Q(r) pseudized with  8 coefficients,  rinner =    1.250   1.250   1.250
                                                       1.250   1.250

     atomic species   valence    mass     pseudopotential
        Na             9.00    22.99000     Na( 1.00)

     48 Sym. Ops., with inversion, found



   Cartesian axes

     site n.     atom                  positions (alat units)
         1           Na  tau(   1) = (   0.0000000   0.0000000   0.0000000  )

     number of k points=   250  Marzari-Vanderbilt smearing, width (Ry)=  0.0200

     Number of k-points >= 100: set verbosity='high' to print them.

     Dense  grid:    14579 G-vectors     FFT dimensions: (  36,  36,  36)

     Smooth grid:     5089 G-vectors     FFT dimensions: (  24,  24,  24)

     Estimated max dynamical RAM per process >       1.06MB

     Estimated total allocated dynamical RAM >      67.97MB

     Initial potential from superposition of free atoms

     starting charge    8.99371, renormalised to    9.00000
     Starting wfc are    5 randomized atomic wfcs +    4 random wfc

     Writing output data file na.bcc.save

     total cpu time spent up to now is      100.6 secs

     per-process dynamical memory:    12.9 Mb

     Self-consistent Calculation

     iteration #  1     ecut=    40.00 Ry     beta=0.70
     Davidson diagonalization with overlap
     ethr =  1.00E-06,  avg # of iterations = 10.6

     total cpu time spent up to now is      102.3 secs

     total energy              =     -95.08297159 Ry
     Harris-Foulkes estimate   =     -95.08356770 Ry
     estimated scf accuracy    <       0.00161035 Ry

     iteration #  2     ecut=    40.00 Ry     beta=0.70
     Davidson diagonalization with overlap
     ethr =  1.79E-05,  avg # of iterations =  2.0

     total cpu time spent up to now is      102.9 secs

     total energy              =     -95.08319698 Ry
     Harris-Foulkes estimate   =     -95.08324697 Ry
     estimated scf accuracy    <       0.00018860 Ry

     iteration #  3     ecut=    40.00 Ry     beta=0.70
     Davidson diagonalization with overlap
     ethr =  2.10E-06,  avg # of iterations =  2.0

     total cpu time spent up to now is      103.4 secs

     total energy              =     -95.08321999 Ry
     Harris-Foulkes estimate   =     -95.08322123 Ry
     estimated scf accuracy    <       0.00001117 Ry

     iteration #  4     ecut=    40.00 Ry     beta=0.70
     Davidson diagonalization with overlap
     ethr =  1.24E-07,  avg # of iterations =  1.0

     total cpu time spent up to now is      104.2 secs

     total energy              =     -95.08322092 Ry
     Harris-Foulkes estimate   =     -95.08322086 Ry
     estimated scf accuracy    <       0.00000001 Ry

     iteration #  5     ecut=    40.00 Ry     beta=0.70
     Davidson diagonalization with overlap
     ethr =  1.58E-10,  avg # of iterations =  3.0

     total cpu time spent up to now is      104.9 secs

     total energy              =     -95.08322095 Ry
     Harris-Foulkes estimate   =     -95.08322094 Ry
     estimated scf accuracy    <          1.4E-09 Ry

     iteration #  6     ecut=    40.00 Ry     beta=0.70
     Davidson diagonalization with overlap
     ethr =  1.55E-11,  avg # of iterations =  1.6

     total cpu time spent up to now is      105.4 secs

     total energy              =     -95.08322095 Ry
     Harris-Foulkes estimate   =     -95.08322095 Ry
     estimated scf accuracy    <          1.7E-10 Ry

     iteration #  7     ecut=    40.00 Ry     beta=0.70
     Davidson diagonalization with overlap
     ethr =  1.84E-12,  avg # of iterations =  2.0

     total cpu time spent up to now is      106.0 secs

     total energy              =     -95.08322095 Ry
     Harris-Foulkes estimate   =     -95.08322095 Ry
     estimated scf accuracy    <          2.9E-12 Ry

     iteration #  8     ecut=    40.00 Ry     beta=0.70
     Davidson diagonalization with overlap
     ethr =  1.00E-13,  avg # of iterations =  1.0

     total cpu time spent up to now is      106.4 secs

     End of self-consistent calculation

     Number of k-points >= 100: set verbosity='high' to print the bands.

     the Fermi energy is     4.4764 ev

!    total energy              =     -95.08322095 Ry
     Harris-Foulkes estimate   =     -95.08322095 Ry
     estimated scf accuracy    <          3.0E-14 Ry

     The total energy is the sum of the following terms:

     one-electron contribution =     -76.03229229 Ry
     hartree contribution      =      39.38378606 Ry
     xc contribution           =     -14.34734434 Ry
     ewald contribution        =     -44.08726591 Ry
     smearing contrib. (-TS)   =      -0.00010447 Ry

     convergence has been achieved in   8 iterations

     Forces acting on atoms (cartesian axes, Ry/au):

     atom    1 type  1   force =     0.00000000    0.00000000    0.00000000

     Total force =     0.000000     Total SCF correction =     0.000000


     Computing stress (Cartesian axis) and pressure

          total   stress  (Ry/bohr**3)                   (kbar)     P=   98.98
   0.00067282   0.00000000  -0.00000000         98.98      0.00     -0.00
   0.00000000   0.00067282   0.00000000          0.00     98.98      0.00
  -0.00000000   0.00000000   0.00067282         -0.00      0.00     98.98


     Writing output data file na.bcc.save

     init_run     :      0.92s CPU      1.00s WALL (       2 calls)
     electrons    :     85.08s CPU     92.10s WALL (       9 calls)
     update_pot   :      1.42s CPU      1.46s WALL (       7 calls)
     forces       :      0.89s CPU      0.90s WALL (       9 calls)
     stress       :      2.63s CPU      2.66s WALL (       9 calls)

     Called by init_run:
     wfcinit      :      0.31s CPU      0.34s WALL (       2 calls)
     potinit      :      0.12s CPU      0.12s WALL (       2 calls)

     Called by electrons:
     c_bands      :     69.17s CPU     75.31s WALL (     118 calls)
     sum_band     :     12.89s CPU     13.67s WALL (     118 calls)
     v_of_rho     :      1.33s CPU      1.36s WALL (     126 calls)
     newd         :      1.21s CPU      1.23s WALL (     126 calls)
     mix_rho      :      0.21s CPU      0.22s WALL (     118 calls)

     Called by c_bands:
     init_us_2    :      1.27s CPU      1.36s WALL (   16128 calls)
     cegterg      :     62.24s CPU     68.04s WALL (    7434 calls)

     Called by sum_band:
     sum_band:bec :      0.08s CPU      0.09s WALL (    7434 calls)
     addusdens    :      1.54s CPU      1.56s WALL (     118 calls)

     Called by *egterg:
     h_psi        :     45.97s CPU     49.19s WALL (   22911 calls)
     s_psi        :      0.49s CPU      0.53s WALL (   22911 calls)
     g_psi        :      0.12s CPU      0.15s WALL (   15351 calls)
     cdiaghg      :      8.23s CPU      9.32s WALL (   22281 calls)

     Called by h_psi:
     h_psi:pot    :     45.77s CPU     48.97s WALL (   22911 calls)
     h_psi:calbec :      1.88s CPU      2.02s WALL (   22911 calls)
     vloc_psi     :     43.16s CPU     46.15s WALL (   22911 calls)
     add_vuspsi   :      0.52s CPU      0.57s WALL (   22911 calls)

     General routines
     calbec       :      2.63s CPU      2.84s WALL (   33180 calls)
     fft          :      1.33s CPU      1.39s WALL (    2063 calls)
     ffts         :      0.08s CPU      0.09s WALL (     244 calls)
     fftw         :     46.93s CPU     50.16s WALL (  399130 calls)
     interpolate  :      0.21s CPU      0.24s WALL (     244 calls)
     davcio       :      0.00s CPU      0.01s WALL (     126 calls)

     Parallel routines
     fft_scatter  :     23.27s CPU     24.81s WALL (  401437 calls)

     PWSCF        :  1m40.14s CPU     1m47.82s WALL


   This run was terminated on:  23:39:18  29Jan2018            

=------------------------------------------------------------------------------=
   JOB DONE.
=------------------------------------------------------------------------------=
